<event>
12    1  0.1397649E-007  0.1357406E+04  0.7818608E-02  0.8985241E-01
          2   -1    0    0  501    0  0.00000000000E+00  0.00000000000E+00  0.71192303918E+03  0.71192303918E+03  0.00000000000E+00 0.  1.
         -2   -1    0    0    0  501 -0.00000000000E+00 -0.00000000000E+00 -0.64703322836E+03  0.64703322836E+03  0.00000000000E+00 0. -1.
         23    2    1    2    0    0  0.19236958763E+03 -0.22419595994E+03  0.21967605253E+03  0.37961645628E+03  0.92634761952E+02 0.  0.
        254    2    1    2    0    0 -0.19236958763E+03  0.22419595994E+03 -0.15478624172E+03  0.97933981126E+03  0.92080280115E+03 0.  0.
        -24    2    4    4    0    0  0.82875268078E+02 -0.48040617930E+02  0.33000657576E+03  0.35255159202E+03  0.78816711153E+02 0.  0.
         24    2    4    4    0    0 -0.27524485570E+03  0.27223657787E+03 -0.48479281748E+03  0.62678821925E+03  0.89257554210E+02 0.  0.
         13    1    3    3    0    0  0.10346866249E+03 -0.55785472811E+02  0.65301218391E+02  0.13446944716E+03  0.00000000000E+00 0. -1.
        -13    1    3    3    0    0  0.88900925134E+02 -0.16841048713E+03  0.15437483414E+03  0.24514700912E+03  0.00000000000E+00 0.  1.
          2    1    6    6  502    0 -0.23566407832E+03  0.26696254445E+03 -0.44979092305E+03  0.57368844542E+03  0.00000000000E+00 0. -1.
          3    1    5    5  503    0  0.68861678095E+02 -0.27951127277E+02  0.31538966405E+03  0.32402752416E+03  0.00000000000E+00 0. -1.
         -4    1    5    5    0  503  0.14013589983E+02 -0.20089490654E+02  0.14616911715E+02  0.28524067855E+02  0.00000000000E+00 0.  1.
         -1    1    6    6    0  502 -0.39580777382E+02  0.52740334189E+01 -0.35001894435E+02  0.53099773829E+02  0.00000000000E+00 0.  1.
<mgrwt>
<rscale>  0 0.13574061E+04</rscale>
<asrwt>0</asrwt>
<pdfrwt beam="1">  1        2 0.10952662E+00 0.13574061E+04</pdfrwt>
<pdfrwt beam="2">  1       -2 0.99543573E-01 0.13574061E+04</pdfrwt>
<totfact> 0.32698749E+01</totfact>
</mgrwt>
</event>
<event>
12    1  0.1397649E-007  0.1318077E+04  0.7818608E-02  0.9015352E-01
         -2   -1    0    0    0  501 -0.00000000000E+00  0.00000000000E+00  0.63348956341E+03  0.63348956341E+03  0.00000000000E+00 0. -1.
          2   -1    0    0  501    0  0.00000000000E+00 -0.00000000000E+00 -0.68561783757E+03  0.68561783757E+03  0.00000000000E+00 0.  1.
         23    2    1    2    0    0  0.20569694994E+03 -0.13542478492E+03  0.22608874458E+03  0.34669138988E+03  0.91802460773E+02 0.  0.
        254    2    1    2    0    0 -0.20569694994E+03  0.13542478492E+03 -0.27821701874E+03  0.97241601110E+03  0.89863067026E+03 0.  0.
        -24    2    4    4    0    0 -0.33586534640E+03  0.45824036473E+03 -0.16846493479E+03  0.59855390740E+03  0.84241219267E+02 0.  0.
         24    2    4    4    0    0  0.13016839646E+03 -0.32281557981E+03 -0.10975208394E+03  0.37386210370E+03  0.81078003497E+02 0.  0.
         13    1    3    3    0    0  0.16381941301E+03 -0.13205621978E+03  0.21967478911E+03  0.30419181158E+03  0.00000000000E+00 0. -1.
        -13    1    3    3    0    0  0.41877536931E+02 -0.33685651428E+01  0.64139554633E+01  0.42499578295E+02  0.00000000000E+00 0.  1.
          2    1    6    6  502    0  0.37307365425E+02 -0.82294673364E+02 -0.67070327832E+02  0.11252858150E+03  0.00000000000E+00 0. -1.
          3    1    5    5  503    0 -0.58613665884E+02  0.12303173103E+03 -0.14274600503E+02  0.13702602997E+03  0.00000000000E+00 0. -1.
         -4    1    5    5    0  503 -0.27725168052E+03  0.33520863369E+03 -0.15419033429E+03  0.46152787743E+03  0.00000000000E+00 0.  1.
         -1    1    6    6    0  502  0.92861031036E+02 -0.24052090644E+03 -0.42681756111E+02  0.26133352220E+03  0.00000000000E+00 0.  1.
<mgrwt>
<rscale>  0 0.13180770E+04</rscale>
<asrwt>0</asrwt>
<pdfrwt beam="1">  1        2 0.10547967E+00 0.13180770E+04</pdfrwt>
<pdfrwt beam="2">  1       -2 0.97459932E-01 0.13180770E+04</pdfrwt>
<totfact> 0.36153614E+01</totfact>
</mgrwt>
</event>
<event>
12    1  0.1397649E-007  0.1842902E+04  0.7818608E-02  0.8683812E-01
         -2   -1    0    0    0  501 -0.00000000000E+00  0.00000000000E+00  0.19151641782E+03  0.19151641782E+03  0.00000000000E+00 0.  1.
          2   -1    0    0  501    0  0.00000000000E+00 -0.00000000000E+00 -0.44334142274E+04  0.44334142274E+04  0.00000000000E+00 0. -1.
         23    2    1    2    0    0 -0.28585255451E+03  0.57107744968E+03 -0.91844871210E+03  0.11229332379E+04  0.97927950608E+02 0.  0.
        254    2    1    2    0    0  0.28585255451E+03 -0.57107744968E+03 -0.33234490975E+04  0.35019974073E+04  0.90046143785E+03 0.  0.
        -24    2    4    4    0    0 -0.19702066136E+03 -0.46301894951E+03 -0.23785099934E+04  0.24324487479E+04  0.79331166352E+02 0.  0.
         24    2    4    4    0    0  0.48287321587E+03 -0.10805850017E+03 -0.94493910408E+03  0.10695486594E+04  0.78620877579E+02 0.  0.
         13    1    3    3    0    0 -0.25544233866E+03  0.54785375122E+03 -0.88707933089E+03  0.10734543588E+04  0.00000000000E+00 0.  1.
        -13    1    3    3    0    0 -0.30410215851E+02  0.23223698461E+02 -0.31369381212E+02  0.49478879089E+02  0.00000000000E+00 0. -1.
          2    1    6    6  502    0  0.87058853112E+02 -0.51416513120E+02 -0.19788806440E+03  0.22222193357E+03  0.00000000000E+00 0. -1.
          3    1    5    5  503    0 -0.19484577314E+03 -0.40582389301E+03 -0.21714707062E+04  0.22176435546E+04  0.00000000000E+00 0. -1.
         -4    1    5    5    0  503 -0.21748882179E+01 -0.57195056498E+02 -0.20703928723E+03  0.21480519334E+03  0.00000000000E+00 0.  1.
         -1    1    6    6    0  502  0.39581436276E+03 -0.56641987053E+02 -0.74705103968E+03  0.84732672586E+03  0.00000000000E+00 0.  1.
<mgrwt>
<rscale>  0 0.18429016E+04</rscale>
<asrwt>0</asrwt>
<pdfrwt beam="1">  1        2 0.68206367E+00 0.18429016E+04</pdfrwt>
<pdfrwt beam="2">  1       -2 0.29464067E-01 0.18429016E+04</pdfrwt>
<totfact> 0.14527308E+00</totfact>
</mgrwt>
</event>
<event>
12    1  0.1397649E-007  0.1212846E+04  0.7818608E-02  0.9101686E-01
          2   -1    0    0  501    0  0.00000000000E+00  0.00000000000E+00  0.19048855514E+04  0.19048855514E+04  0.00000000000E+00 0. -1.
         -2   -1    0    0    0  501 -0.00000000000E+00 -0.00000000000E+00 -0.19305566765E+03  0.19305566765E+03  0.00000000000E+00 0.  1.
         23    2    1    2    0    0 -0.18786901898E+03  0.50197120569E+02  0.77315922652E+03  0.80234578655E+03  0.90382810500E+02 0.  0.
        254    2    1    2    0    0  0.18786901898E+03 -0.50197120569E+02  0.93867065719E+03  0.12955954325E+04  0.87157925788E+03 0.  0.
        -24    2    4    4    0    0  0.38086970602E+03  0.27307629335E+03  0.34467712858E+03  0.58770976565E+03  0.83474850778E+02 0.  0.
         24    2    4    4    0    0 -0.19300068704E+03 -0.32327341392E+03  0.59399352861E+03  0.70788566683E+03  0.80739333165E+02 0.  0.
         11    1    3    3    0    0 -0.14357131063E+03  0.67563968930E+02  0.48532670370E+03  0.51060710968E+03  0.00000000000E+00 0. -1.
        -11    1    3    3    0    0 -0.44297708349E+02 -0.17366848361E+02  0.28783252282E+03  0.29173867687E+03  0.00000000000E+00 0.  1.
          4    1    6    6  502    0 -0.17546021922E+03 -0.23079618606E+03  0.42546326131E+03  0.51485158517E+03  0.00000000000E+00 0. -1.
          3    1    5    5  503    0  0.31975737052E+03  0.25556960975E+03  0.27363942975E+03  0.49238109117E+03  0.00000000000E+00 0. -1.
         -4    1    5    5    0  503  0.61112335502E+02  0.17506683598E+02  0.71037698838E+02  0.95328674475E+02  0.00000000000E+00 0.  1.
         -3    1    6    6    0  502 -0.17540467825E+02 -0.92477227860E+02  0.16853026730E+03  0.19303408166E+03  0.00000000000E+00 0.  1.
<mgrwt>
<rscale>  0 0.12128462E+04</rscale>
<asrwt>0</asrwt>
<pdfrwt beam="1">  1        2 0.29305930E+00 0.12128462E+04</pdfrwt>
<pdfrwt beam="2">  1       -2 0.29700873E-01 0.12128462E+04</pdfrwt>
<totfact> 0.77788357E+01</totfact>
</mgrwt>
</event>
<event>
12    1  0.1397649E-007  0.1322034E+04  0.7818608E-02  0.9012272E-01
         -1   -1    0    0    0  501 -0.00000000000E+00  0.00000000000E+00  0.24911180578E+03  0.24911180578E+03  0.00000000000E+00 0.  1.
          1   -1    0    0  501    0  0.00000000000E+00 -0.00000000000E+00 -0.17540052228E+04  0.17540052228E+04  0.00000000000E+00 0. -1.
         23    2    1    2    0    0  0.27974425834E+03 -0.11867126416E+03 -0.14844865758E+03  0.35009215419E+03  0.90486427015E+02 0.  0.
        254    2    1    2    0    0 -0.27974425834E+03  0.11867126416E+03 -0.13564447594E+04  0.16530248744E+04  0.89454409109E+03 0.  0.
        -24    2    4    4    0    0  0.22914747456E+03  0.17025513787E+03 -0.94898761203E+03  0.99452988375E+03  0.83766489868E+02 0.  0.
         24    2    4    4    0    0 -0.50889173290E+03 -0.51583873708E+02 -0.40745714739E+03  0.65849499061E+03  0.77218092820E+02 0.  0.
         11    1    3    3    0    0  0.27736251830E+03 -0.10625856523E+03 -0.15587079463E+03  0.33543487275E+03  0.00000000000E+00 0.  1.
        -11    1    3    3    0    0  0.23817400428E+01 -0.12412698939E+02  0.74221370535E+01  0.14657281434E+02  0.00000000000E+00 0. -1.
          2    1    6    6  502    0 -0.41585738677E+03 -0.67594387398E+02 -0.35200215335E+03  0.54900991184E+03  0.00000000000E+00 0. -1.
          1    1    5    5  503    0  0.95409905774E+02  0.11776151354E+03 -0.54837615777E+03  0.56893517609E+03  0.00000000000E+00 0. -1.
         -2    1    5    5    0  503  0.13373756879E+03  0.52493624329E+02 -0.40061145426E+03  0.42559470766E+03  0.00000000000E+00 0.  1.
         -1    1    6    6    0  502 -0.93034346138E+02  0.16010513690E+02 -0.55454994038E+02  0.10948507877E+03  0.00000000000E+00 0.  1.
<mgrwt>
<rscale>  0 0.13220339E+04</rscale>
<asrwt>0</asrwt>
<pdfrwt beam="1">  1        1 0.26984694E+00 0.13220339E+04</pdfrwt>
<pdfrwt beam="2">  1       -1 0.38324895E-01 0.13220339E+04</pdfrwt>
<totfact> 0.28294822E+01</totfact>
</mgrwt>
</event>
<event>
12    1  0.1397649E-007  0.1935295E+04  0.7818608E-02  0.8637485E-01
          2   -1    0    0  501    0  0.00000000000E+00  0.00000000000E+00  0.10104920150E+04  0.10104920150E+04  0.00000000000E+00 0.  1.
         -2   -1    0    0    0  501 -0.00000000000E+00 -0.00000000000E+00 -0.92661953315E+03  0.92661953315E+03  0.00000000000E+00 0. -1.
         23    2    1    2    0    0  0.32442144607E+02 -0.64279350746E+03  0.43143369503E+03  0.77994160363E+03  0.89094814001E+02 0.  0.
        254    2    1    2    0    0 -0.32442144607E+02  0.64279350746E+03 -0.34756121319E+03  0.11571699445E+04  0.89666465169E+03 0.  0.
        -24    2    4    4    0    0  0.25179565168E+03  0.37125026359E+03 -0.54496855884E+03  0.71021953052E+03  0.78697159977E+02 0.  0.
         24    2    4    4    0    0 -0.28423779629E+03  0.27154324387E+03  0.19740734565E+03  0.44695041400E+03  0.79171676301E+02 0.  0.
         13    1    3    3    0    0  0.20305914261E+02 -0.92499965693E+02  0.32406061507E+02  0.10009358935E+03  0.00000000000E+00 0.  1.
        -13    1    3    3    0    0  0.12136230346E+02 -0.55029354177E+03  0.39902763352E+03  0.67984801427E+03  0.00000000000E+00 0. -1.
          4    1    6    6  502    0 -0.90165037314E+02  0.11210904780E+03  0.35699698775E+02  0.14823171403E+03  0.00000000000E+00 0. -1.
          1    1    5    5  503    0  0.96357144098E+02  0.83909735085E+02 -0.17461452173E+03  0.21636953127E+03  0.00000000000E+00 0. -1.
         -2    1    5    5    0  503  0.15543850758E+03  0.28734052851E+03 -0.37035403710E+03  0.49384999925E+03  0.00000000000E+00 0.  1.
         -3    1    6    6    0  502 -0.19407275897E+03  0.15943419606E+03  0.16170764687E+03  0.29871869996E+03  0.00000000000E+00 0.  1.
<mgrwt>
<rscale>  0 0.19352950E+04</rscale>
<asrwt>0</asrwt>
<pdfrwt beam="1">  1        2 0.15546031E+00 0.19352950E+04</pdfrwt>
<pdfrwt beam="2">  1       -2 0.14255685E+00 0.19352950E+04</pdfrwt>
<totfact> 0.79348476E+00</totfact>
</mgrwt>
</event>
<event>
12    1  0.1397649E-007  0.1271632E+04  0.7818608E-02  0.9052369E-01
          1   -1    0    0  501    0  0.00000000000E+00  0.00000000000E+00  0.76302096199E+03  0.76302096199E+03  0.00000000000E+00 0. -1.
         -1   -1    0    0    0  501 -0.00000000000E+00 -0.00000000000E+00 -0.52981757190E+03  0.52981757190E+03  0.00000000000E+00 0.  1.
         23    2    1    2    0    0 -0.27054969397E+03  0.13476251675E+03  0.63690387688E+02  0.32254461829E+03  0.92846607244E+02 0.  0.
        254    2    1    2    0    0  0.27054969397E+03 -0.13476251675E+03  0.16951300240E+03  0.97029391559E+03  0.90629882038E+03 0.  0.
        -24    2    4    4    0    0  0.55158654939E+03  0.31295063270E+02 -0.62425427597E+02  0.56194751812E+03  0.81614806633E+02 0.  0.
         24    2    4    4    0    0 -0.28103685542E+03 -0.16605758002E+03  0.23193843000E+03  0.40834639747E+03  0.79965686546E+02 0.  0.
         11    1    3    3    0    0 -0.56965059398E+02  0.58272685276E+02  0.49251011732E+02  0.95217571898E+02  0.00000000000E+00 0.  1.
        -11    1    3    3    0    0 -0.21358463457E+03  0.76489831478E+02  0.14439375956E+02  0.22732704639E+03  0.00000000000E+00 0. -1.
          4    1    6    6  502    0 -0.26324693329E+03 -0.13218064356E+03  0.18523334859E+03  0.34796848111E+03  0.00000000000E+00 0. -1.
          3    1    5    5  503    0  0.36428081055E+03  0.34343647657E+02 -0.47059391997E+01  0.36592641464E+03  0.00000000000E+00 0. -1.
         -4    1    5    5    0  503  0.18730573884E+03 -0.30485843872E+01 -0.57719488398E+02  0.19602110348E+03  0.00000000000E+00 0.  1.
         -3    1    6    6    0  502 -0.17789922133E+02 -0.33876936469E+02  0.46705081412E+02  0.60377916358E+02  0.00000000000E+00 0.  1.
<mgrwt>
<rscale>  0 0.12716319E+04</rscale>
<asrwt>0</asrwt>
<pdfrwt beam="1">  1        1 0.11738784E+00 0.12716319E+04</pdfrwt>
<pdfrwt beam="2">  1       -1 0.81510395E-01 0.12716319E+04</pdfrwt>
<totfact> 0.35194562E+01</totfact>
</mgrwt>
</event>
<event>
12    1  0.1397649E-007  0.1274171E+04  0.7818608E-02  0.9050302E-01
          2   -1    0    0  501    0  0.00000000000E+00  0.00000000000E+00  0.38547437343E+03  0.38547437343E+03  0.00000000000E+00 0. -1.
         -2   -1    0    0    0  501 -0.00000000000E+00 -0.00000000000E+00 -0.10529311855E+04  0.10529311855E+04  0.00000000000E+00 0.  1.
         23    2    1    2    0    0 -0.25030400247E+03  0.35496183004E+02  0.36313911301E+02  0.27179030551E+03  0.92947282681E+02 0.  0.
        254    2    1    2    0    0  0.25030400247E+03 -0.35496183004E+02 -0.70377072339E+03  0.11666152534E+04  0.89542495262E+03 0.  0.
        -24    2    4    4    0    0  0.53818603248E+03  0.16706204663E+03 -0.43884134879E+03  0.71880973566E+03  0.80943027432E+02 0.  0.
         24    2    4    4    0    0 -0.28788203001E+03 -0.20255822964E+03 -0.26492937460E+03  0.44780551777E+03  0.80226607959E+02 0.  0.
         13    1    3    3    0    0 -0.11019723719E+03 -0.18682531854E+02  0.46877178472E+02  0.12120205420E+03  0.00000000000E+00 0. -1.
        -13    1    3    3    0    0 -0.14010676527E+03  0.54178714858E+02 -0.10563267171E+02  0.15058825131E+03  0.00000000000E+00 0.  1.
          2    1    6    6  502    0 -0.18127019851E+03 -0.13226999653E+03 -0.21476246131E+03  0.31060771342E+03  0.00000000000E+00 0. -1.
          3    1    5    5  503    0  0.76398831969E+02  0.34360463065E+02 -0.33598640476E+02  0.90256809107E+02  0.00000000000E+00 0. -1.
         -4    1    5    5    0  503  0.46178720051E+03  0.13270158357E+03 -0.40524270831E+03  0.62855292655E+03  0.00000000000E+00 0.  1.
         -1    1    6    6    0  502 -0.10661183150E+03 -0.70288233107E+02 -0.50166913291E+02  0.13719780435E+03  0.00000000000E+00 0.  1.
<mgrwt>
<rscale>  0 0.12741711E+04</rscale>
<asrwt>0</asrwt>
<pdfrwt beam="1">  1        2 0.59303749E-01 0.12741711E+04</pdfrwt>
<pdfrwt beam="2">  1       -2 0.16198941E+00 0.12741711E+04</pdfrwt>
<totfact> 0.19802093E+01</totfact>
</mgrwt>
</event>
<event>
12    1  0.1397649E-007  0.1793953E+04  0.7818608E-02  0.8709522E-01
         -1   -1    0    0    0  501 -0.00000000000E+00  0.00000000000E+00  0.15300067641E+04  0.15300067641E+04  0.00000000000E+00 0.  1.
          1   -1    0    0  501    0  0.00000000000E+00 -0.00000000000E+00 -0.52585817657E+03  0.52585817657E+03  0.00000000000E+00 0. -1.
         23    2    1    2    0    0 -0.18237719957E+03 -0.28945496714E+03  0.10329021821E+04  0.10918373133E+04  0.90422231703E+02 0.  0.
        254    2    1    2    0    0  0.18237719957E+03  0.28945496714E+03 -0.28753594575E+02  0.96402762738E+03  0.90082011313E+03 0.  0.
        -24    2    4    4    0    0  0.41440007799E+03  0.13982895069E+03 -0.32549279328E+03  0.55091347102E+03  0.79249820115E+02 0.  0.
         24    2    4    4    0    0 -0.23202287842E+03  0.14962601645E+03  0.29673919870E+03  0.41311415636E+03  0.79916163722E+02 0.  0.
         13    1    3    3    0    0 -0.17666083357E+03 -0.23338874824E+03  0.79002824637E+03  0.84251052692E+03  0.00000000000E+00 0.  1.
        -13    1    3    3    0    0 -0.57163659998E+01 -0.56066218904E+02  0.24287393572E+03  0.24932678636E+03  0.00000000000E+00 0. -1.
          4    1    6    6  502    0 -0.51426771016E+01  0.83666020017E+01 -0.41553585523E+01  0.10663684238E+02  0.00000000000E+00 0. -1.
          3    1    5    5  503    0  0.15329014788E+03  0.82193034347E+02 -0.96781906499E+02  0.19904849097E+03  0.00000000000E+00 0. -1.
         -4    1    5    5    0  503  0.26110993011E+03  0.57635916340E+02 -0.22871088678E+03  0.35186498005E+03  0.00000000000E+00 0.  1.
         -3    1    6    6    0  502 -0.22688020132E+03  0.14125941445E+03  0.30089455726E+03  0.40245047212E+03  0.00000000000E+00 0.  1.
<mgrwt>
<rscale>  0 0.17939527E+04</rscale>
<asrwt>0</asrwt>
<pdfrwt beam="1">  1        1 0.80901258E-01 0.17939527E+04</pdfrwt>
<pdfrwt beam="2">  1       -1 0.23538565E+00 0.17939527E+04</pdfrwt>
<totfact> 0.33918478E+00</totfact>
</mgrwt>
</event>
<event>
12    1  0.1397649E-007  0.1428801E+04  0.7818608E-02  0.8933231E-01
          2   -1    0    0  501    0  0.00000000000E+00  0.00000000000E+00  0.13425548425E+04  0.13425548425E+04  0.00000000000E+00 0.  1.
         -2   -1    0    0    0  501 -0.00000000000E+00 -0.00000000000E+00 -0.38014709423E+03  0.38014709423E+03  0.00000000000E+00 0. -1.
         23    2    1    2    0    0  0.13879234682E+03  0.40958422469E+02  0.76694256278E+03  0.78580847841E+03  0.91395635691E+02 0.  0.
        254    2    1    2    0    0 -0.13879234682E+03 -0.40958422469E+02  0.19546518547E+03  0.93689345832E+03  0.90477721324E+03 0.  0.
        -24    2    4    4    0    0 -0.38282540918E+03  0.28325905605E+03  0.13080928441E+02  0.48309767552E+03  0.80132806362E+02 0.  0.
         24    2    4    4    0    0  0.24403306237E+03 -0.32421747852E+03  0.18238425703E+03  0.45379578280E+03  0.89428666332E+02 0.  0.
         13    1    3    3    0    0 -0.10777668170E+02  0.23238529014E+01  0.12728690324E+03  0.12776350872E+03  0.00000000000E+00 0. -1.
        -13    1    3    3    0    0  0.14957001499E+03  0.38634569567E+02  0.63965565954E+03  0.65804496969E+03  0.00000000000E+00 0.  1.
          4    1    6    6  502    0 -0.77504814228E+01 -0.70798267820E+01  0.30789212748E+01  0.10939545958E+02  0.00000000000E+00 0. -1.
          1    1    5    5  503    0 -0.82102610703E+02  0.54634411784E+02  0.35140792421E+02  0.10469304145E+03  0.00000000000E+00 0. -1.
         -2    1    5    5    0  503 -0.30072279848E+03  0.22862464427E+03 -0.22059863980E+02  0.37840463408E+03  0.00000000000E+00 0.  1.
         -3    1    6    6    0  502  0.25178354379E+03 -0.31713765174E+03  0.17930533576E+03  0.44285623684E+03  0.00000000000E+00 0.  1.
<mgrwt>
<rscale>  0 0.14288013E+04</rscale>
<asrwt>0</asrwt>
<pdfrwt beam="1">  1        2 0.20654690E+00 0.14288013E+04</pdfrwt>
<pdfrwt beam="2">  1       -2 0.58484169E-01 0.14288013E+04</pdfrwt>
<totfact> 0.41459863E+01</totfact>
</mgrwt>
</event>
<event>
12    1  0.1397649E-007  0.1931129E+04  0.7818608E-02  0.8639515E-01
         -1   -1    0    0    0  501 -0.00000000000E+00  0.00000000000E+00  0.60603352114E+03  0.60603352114E+03  0.00000000000E+00 0.  1.
          1   -1    0    0  501    0  0.00000000000E+00 -0.00000000000E+00 -0.15383880597E+04  0.15383880597E+04  0.00000000000E+00 0. -1.
         23    2    1    2    0    0 -0.32045831588E+03  0.57120582040E+03 -0.79520618796E+03  0.10342906944E+04  0.91840828104E+02 0.  0.
        254    2    1    2    0    0  0.32045831588E+03 -0.57120582040E+03 -0.13714835060E+03  0.11101308864E+04  0.88578287037E+03 0.  0.
        -24    2    4    4    0    0  0.11740090576E+03  0.16516275940E+03 -0.25366937215E+03  0.33381527889E+03  0.77606573730E+02 0.  0.
         24    2    4    4    0    0  0.20305741012E+03 -0.73636857979E+03  0.11652102155E+03  0.77631560754E+03  0.74951830739E+02 0.  0.
         11    1    3    3    0    0 -0.15205126350E+02  0.21470935493E+02 -0.95511865734E+01  0.27989678512E+02  0.00000000000E+00 0. -1.
        -11    1    3    3    0    0 -0.30525318953E+03  0.54973488490E+03 -0.78565500138E+03  0.10063010159E+04  0.00000000000E+00 0.  1.
          4    1    6    6  502    0  0.19185645194E+03 -0.60271418636E+03  0.81878487908E+02  0.63779101230E+03  0.00000000000E+00 0. -1.
          3    1    5    5  503    0  0.12622901419E+03  0.15324976702E+03 -0.21627433773E+03  0.29358788169E+03  0.00000000000E+00 0. -1.
         -4    1    5    5    0  503 -0.88281084290E+01  0.11912992372E+02 -0.37395034421E+02  0.40227397194E+02  0.00000000000E+00 0.  1.
         -3    1    6    6    0  502  0.11200958185E+02 -0.13365439343E+03  0.34642533646E+02  0.13852459524E+03  0.00000000000E+00 0.  1.
<mgrwt>
<rscale>  0 0.19311289E+04</rscale>
<asrwt>0</asrwt>
<pdfrwt beam="1">  1        1 0.23667509E+00 0.19311289E+04</pdfrwt>
<pdfrwt beam="2">  1       -1 0.93235926E-01 0.19311289E+04</pdfrwt>
<totfact> 0.64116793E+00</totfact>
</mgrwt>
</event>
<event>
12    1  0.1397649E-007  0.2102902E+04  0.7818608E-02  0.8559966E-01
         -1   -1    0    0    0  501 -0.00000000000E+00  0.00000000000E+00  0.46505520665E+03  0.46505520665E+03  0.00000000000E+00 0.  1.
          1   -1    0    0  501    0  0.00000000000E+00 -0.00000000000E+00 -0.23772437662E+04  0.23772437662E+04  0.00000000000E+00 0. -1.
         23    2    1    2    0    0  0.42125626120E+03 -0.73581148220E+03 -0.79130331122E+03  0.11633391007E+04  0.91222573007E+02 0.  0.
        254    2    1    2    0    0 -0.42125626120E+03  0.73581148220E+03 -0.11208852483E+04  0.16789598722E+04  0.91850266060E+03 0.  0.
        -24    2    4    4    0    0 -0.52686603578E+03  0.56241178435E+03 -0.12155880570E+04  0.14413073211E+04  0.76273419760E+02 0.  0.
         24    2    4    4    0    0  0.10560977458E+03  0.17339969785E+03  0.94702808715E+02  0.23765255110E+03  0.79304686884E+02 0.  0.
         13    1    3    3    0    0  0.22953298888E+03 -0.45770297793E+03 -0.42900986975E+03  0.66800215368E+03  0.00000000000E+00 0. -1.
        -13    1    3    3    0    0  0.19172327233E+03 -0.27810850427E+03 -0.36229344148E+03  0.49533694697E+03  0.00000000000E+00 0.  1.
          4    1    6    6  502    0  0.12264690098E+01 -0.34672475611E+01  0.18082875686E+02  0.18453087139E+02  0.00000000000E+00 0. -1.
          3    1    5    5  503    0 -0.50924193326E+02  0.47715730271E+02 -0.74453139921E+02  0.10204574673E+03  0.00000000000E+00 0. -1.
         -4    1    5    5    0  503 -0.47594184246E+03  0.51469605408E+03 -0.11411349171E+04  0.13392615743E+04  0.00000000000E+00 0.  1.
         -3    1    6    6    0  502  0.10438330557E+03  0.17686694542E+03  0.76619933029E+02  0.21919946396E+03  0.00000000000E+00 0.  1.
<mgrwt>
<rscale>  0 0.21029024E+04</rscale>
<asrwt>0</asrwt>
<pdfrwt beam="1">  1        1 0.36572982E+00 0.21029024E+04</pdfrwt>
<pdfrwt beam="2">  1       -1 0.71546954E-01 0.21029024E+04</pdfrwt>
<totfact> 0.29870722E+00</totfact>
</mgrwt>
</event>
<event>
12    1  0.1397649E-007  0.2142122E+04  0.7818608E-02  0.8542912E-01
          2   -1    0    0  501    0  0.00000000000E+00  0.00000000000E+00  0.16339462134E+04  0.16339462134E+04  0.00000000000E+00 0. -1.
         -2   -1    0    0    0  501 -0.00000000000E+00 -0.00000000000E+00 -0.70208646353E+03  0.70208646353E+03  0.00000000000E+00 0.  1.
         23    2    1    2    0    0  0.48862077469E+02  0.44838093859E+03 -0.43099755060E+03  0.63346839755E+03  0.10995614296E+03 0.  0.
        254    2    1    2    0    0 -0.48862077469E+02 -0.44838093859E+03  0.13628573005E+04  0.17025642794E+04  0.91537540674E+03 0.  0.
        -24    2    4    4    0    0  0.32371250900E+03 -0.32438647942E+03  0.11679800520E+04  0.12572551190E+04  0.80601835236E+02 0.  0.
         24    2    4    4    0    0 -0.37257458647E+03 -0.12399445916E+03  0.19487724849E+03  0.44530916040E+03  0.78336823897E+02 0.  0.
         11    1    3    3    0    0  0.22202187922E+02  0.40666140272E+03 -0.34283643700E+03  0.53235632441E+03  0.00000000000E+00 0.  1.
        -11    1    3    3    0    0  0.26659889547E+02  0.41719535870E+02 -0.88161113599E+02  0.10111207314E+03  0.00000000000E+00 0. -1.
          2    1    6    6  502    0 -0.15243099872E+03 -0.55130077971E+02  0.12373637608E+03  0.20392455868E+03  0.00000000000E+00 0. -1.
          1    1    5    5  503    0  0.28782479024E+03 -0.30232006355E+03  0.99088377896E+03  0.10752168126E+04  0.00000000000E+00 0. -1.
         -2    1    5    5    0  503  0.35887718752E+02 -0.22066415870E+02  0.17709627302E+03  0.18203830637E+03  0.00000000000E+00 0.  1.
         -1    1    6    6    0  502 -0.22014358774E+03 -0.68864381190E+02  0.71140872408E+02  0.24138460172E+03  0.00000000000E+00 0.  1.
<mgrwt>
<rscale>  0 0.21421219E+04</rscale>
<asrwt>0</asrwt>
<pdfrwt beam="1">  1        2 0.25137634E+00 0.21421219E+04</pdfrwt>
<pdfrwt beam="2">  1       -2 0.10801330E+00 0.21421219E+04</pdfrwt>
<totfact> 0.67322871E+00</totfact>
</mgrwt>
</event>
<event>
12    1  0.1397649E-007  0.1332456E+04  0.7818608E-02  0.9004216E-01
          2   -1    0    0  501    0  0.00000000000E+00  0.00000000000E+00  0.34610202100E+04  0.34610202100E+04  0.00000000000E+00 0.  1.
         -2   -1    0    0    0  501 -0.00000000000E+00 -0.00000000000E+00 -0.12824530214E+03  0.12824530214E+03  0.00000000000E+00 0. -1.
         23    2    1    2    0    0  0.80296013411E+01  0.15645414121E+03  0.17898541161E+04  0.17991421454E+04  0.93767422389E+02 0.  0.
        254    2    1    2    0    0 -0.80296013411E+01 -0.15645414121E+03  0.15429207917E+04  0.17901233667E+04  0.89408876839E+03 0.  0.
        -24    2    4    4    0    0 -0.16741124426E+03 -0.49314111013E+03  0.91583708655E+03  0.10565531273E+04  0.79575514585E+02 0.  0.
         24    2    4    4    0    0  0.15938164292E+03  0.33668696892E+03  0.62708370512E+03  0.73357023937E+03  0.78298784943E+02 0.  0.
         13    1    3    3    0    0  0.38526162416E+02  0.21723800391E+02  0.47217207632E+03  0.47423903082E+03  0.00000000000E+00 0. -1.
        -13    1    3    3    0    0 -0.30496561075E+02  0.13473034082E+03  0.13176820398E+04  0.13249031146E+04  0.00000000000E+00 0.  1.
          4    1    6    6  502    0  0.81889811103E+01  0.24192179288E+01  0.19873229084E+01  0.87670678881E+01  0.00000000000E+00 0. -1.
          1    1    5    5  503    0 -0.17363444388E+02 -0.83256938759E+01  0.30425260831E+02  0.36006983714E+02  0.00000000000E+00 0. -1.
         -2    1    5    5    0  503 -0.15004779987E+03 -0.48481541626E+03  0.88541182572E+03  0.10205461436E+04  0.00000000000E+00 0.  1.
         -3    1    6    6    0  502  0.15119266181E+03  0.33426775099E+03  0.62509638221E+03  0.72480317148E+03  0.00000000000E+00 0.  1.
<mgrwt>
<rscale>  0 0.13324558E+04</rscale>
<asrwt>0</asrwt>
<pdfrwt beam="1">  1        2 0.53246458E+00 0.13324558E+04</pdfrwt>
<pdfrwt beam="2">  1       -2 0.19730049E-01 0.13324558E+04</pdfrwt>
<totfact> 0.18881578E+01</totfact>
</mgrwt>
</event>
<event>
12    1  0.1397649E-007  0.2111381E+04  0.7818608E-02  0.8556246E-01
          3   -1    0    0  501    0  0.00000000000E+00  0.00000000000E+00  0.64710102402E+03  0.64710102402E+03  0.00000000000E+00 0. -1.
         -3   -1    0    0    0  501 -0.00000000000E+00 -0.00000000000E+00 -0.17222702509E+04  0.17222702509E+04  0.00000000000E+00 0.  1.
         23    2    1    2    0    0  0.52345923476E+03  0.13643859074E+02 -0.12378957298E+04  0.13471448472E+04  0.90651399961E+02 0.  0.
        254    2    1    2    0    0 -0.52345923476E+03 -0.13643859074E+02  0.16272650285E+03  0.10222264277E+04  0.86271155634E+03 0.  0.
        -24    2    4    4    0    0 -0.15166665295E+03 -0.39245703723E+03  0.22128560612E+03  0.48234954922E+03  0.81660691078E+02 0.  0.
         24    2    4    4    0    0 -0.37179258180E+03  0.37881317815E+03 -0.58559103268E+02  0.53987687850E+03  0.79427498609E+02 0.  0.
         11    1    3    3    0    0  0.38051611856E+03  0.50380163149E+02 -0.89514366047E+03  0.97396758170E+03  0.00000000000E+00 0.  1.
        -11    1    3    3    0    0  0.14294311620E+03 -0.36736304075E+02 -0.34275206930E+03  0.37317726553E+03  0.00000000000E+00 0. -1.
          4    1    6    6  502    0 -0.94073593537E+02  0.79815898656E+02  0.18008126740E+02  0.12467843161E+03  0.00000000000E+00 0. -1.
          1    1    5    5  503    0 -0.10740652213E+03 -0.17365037312E+03  0.12355850470E+03  0.23865732162E+03  0.00000000000E+00 0. -1.
         -2    1    5    5    0  503 -0.44260130824E+02 -0.21880666411E+03  0.97727101423E+02  0.24369222759E+03  0.00000000000E+00 0.  1.
         -3    1    6    6    0  502 -0.27771898827E+03  0.29899727950E+03 -0.76567230008E+02  0.41519844689E+03  0.00000000000E+00 0.  1.
<mgrwt>
<rscale>  0 0.21113814E+04</rscale>
<asrwt>0</asrwt>
<pdfrwt beam="1">  1        3 0.99554003E-01 0.21113814E+04</pdfrwt>
<pdfrwt beam="2">  1       -3 0.26496465E+00 0.21113814E+04</pdfrwt>
<totfact> 0.12748354E-01</totfact>
</mgrwt>
</event>
<event>
12    1  0.1397649E-007  0.1826611E+04  0.7818608E-02  0.8692275E-01
          2   -1    0    0  501    0  0.00000000000E+00  0.00000000000E+00  0.75241200504E+03  0.75241200504E+03  0.00000000000E+00 0. -1.
         -2   -1    0    0    0  501 -0.00000000000E+00 -0.00000000000E+00 -0.11086043632E+04  0.11086043632E+04  0.00000000000E+00 0.  1.
         23    2    1    2    0    0  0.31246874213E+03 -0.38796855272E+03 -0.61909497482E+03  0.80031457555E+03  0.95228773380E+02 0.  0.
        254    2    1    2    0    0 -0.31246874213E+03  0.38796855272E+03  0.26290261664E+03  0.10607017927E+04  0.89878484329E+03 0.  0.
        -24    2    4    4    0    0 -0.50070362520E+03  0.34874792542E+03 -0.11922839282E+03  0.62571156190E+03  0.70500448771E+02 0.  0.
         24    2    4    4    0    0  0.18823488306E+03  0.39220627296E+02  0.38213100946E+03  0.43499023081E+03  0.78878157334E+02 0.  0.
         13    1    3    3    0    0  0.29297751239E+03 -0.31652335863E+03 -0.55080801964E+03  0.69958011251E+03  0.00000000000E+00 0.  1.
        -13    1    3    3    0    0  0.19491229739E+02 -0.71445194085E+02 -0.68286955181E+02  0.10073446303E+03  0.00000000000E+00 0. -1.
          2    1    6    6  502    0  0.17380403450E+03  0.57394909598E+02  0.31974303735E+03  0.36842587855E+03  0.00000000000E+00 0. -1.
          1    1    5    5  503    0 -0.44826480021E+03  0.30968138646E+03 -0.83497010139E+02  0.55119474138E+03  0.00000000000E+00 0. -1.
         -2    1    5    5    0  503 -0.52438824987E+02  0.39066538962E+02 -0.35731382680E+02  0.74516820522E+02  0.00000000000E+00 0.  1.
         -1    1    6    6    0  502  0.14430848567E+02 -0.18174282302E+02  0.62387972111E+02  0.66564352260E+02  0.00000000000E+00 0.  1.
<mgrwt>
<rscale>  0 0.18266113E+04</rscale>
<asrwt>0</asrwt>
<pdfrwt beam="1">  1        2 0.11575569E+00 0.18266113E+04</pdfrwt>
<pdfrwt beam="2">  1       -2 0.17055452E+00 0.18266113E+04</pdfrwt>
<totfact> 0.74258834E+00</totfact>
</mgrwt>
</event>
<event>
12    1  0.1397649E-007  0.1805750E+04  0.7818608E-02  0.8703248E-01
          2   -1    0    0  501    0  0.00000000000E+00  0.00000000000E+00  0.63841515637E+03  0.63841515637E+03  0.00000000000E+00 0. -1.
         -2   -1    0    0    0  501 -0.00000000000E+00 -0.00000000000E+00 -0.12768857893E+04  0.12768857893E+04  0.00000000000E+00 0.  1.
         23    2    1    2    0    0  0.28079811532E+03  0.21754967199E+03  0.35994638298E+03  0.51379236289E+03  0.90806124212E+02 0.  0.
        254    2    1    2    0    0 -0.28079811532E+03 -0.21754967199E+03 -0.99841701588E+03  0.14015085827E+04  0.91717737027E+03 0.  0.
        -24    2    4    4    0    0  0.46722673246E+02 -0.49885928517E+03 -0.72268907439E+03  0.88307523838E+03  0.80615034591E+02 0.  0.
         24    2    4    4    0    0 -0.32752078857E+03  0.28130961318E+03 -0.27572794150E+03  0.51843334436E+03  0.79638366480E+02 0.  0.
         13    1    3    3    0    0  0.24480860383E+03  0.17246070921E+03  0.25192768540E+03  0.39133298788E+03  0.00000000000E+00 0. -1.
        -13    1    3    3    0    0  0.35989511489E+02  0.45088962787E+02  0.10801869758E+03  0.12245937501E+03  0.00000000000E+00 0.  1.
          2    1    6    6  502    0 -0.12739498491E+03  0.61629844697E+02 -0.98580839835E+02  0.17247000296E+03  0.00000000000E+00 0. -1.
          3    1    5    5  503    0 -0.18768903340E+02 -0.42612984442E+02 -0.66052960803E+02  0.80815418123E+02  0.00000000000E+00 0. -1.
         -4    1    5    5    0  503  0.65491576586E+02 -0.45624630073E+03 -0.65663611358E+03  0.80225982025E+03  0.00000000000E+00 0.  1.
         -1    1    6    6    0  502 -0.20012580366E+03  0.21967976848E+03 -0.17714710166E+03  0.34596334141E+03  0.00000000000E+00 0.  1.
<mgrwt>
<rscale>  0 0.18057500E+04</rscale>
<asrwt>0</asrwt>
<pdfrwt beam="1">  1        2 0.98217718E-01 0.18057500E+04</pdfrwt>
<pdfrwt beam="2">  1       -2 0.19644397E+00 0.18057500E+04</pdfrwt>
<totfact> 0.60852541E+00</totfact>
</mgrwt>
</event>
<event>
12    1  0.1397649E-007  0.3539371E+04  0.7818608E-02  0.8104522E-01
         -2   -1    0    0    0  501 -0.00000000000E+00  0.00000000000E+00  0.10160486718E+04  0.10160486718E+04  0.00000000000E+00 0.  1.
          2   -1    0    0  501    0  0.00000000000E+00 -0.00000000000E+00 -0.30823191389E+04  0.30823191389E+04  0.00000000000E+00 0. -1.
         23    2    1    2    0    0 -0.16453666797E+04 -0.24502568881E+02 -0.11658121814E+04  0.20184098851E+04  0.83836360773E+02 0.  0.
        254    2    1    2    0    0  0.16453666797E+04  0.24502568881E+02 -0.90045828575E+03  0.20799579256E+04  0.89864785161E+03 0.  0.
        -24    2    4    4    0    0  0.99683854911E+03 -0.24810372921E+03 -0.13796438811E+03  0.10394863968E+04  0.79090096474E+02 0.  0.
         24    2    4    4    0    0  0.64852813058E+03  0.27260629809E+03 -0.76249389765E+03  0.10404715287E+04  0.79253569321E+02 0.  0.
         11    1    3    3    0    0 -0.66530032536E+03 -0.37511028899E+02 -0.43458420592E+03  0.79554700191E+03  0.00000000000E+00 0.  1.
        -11    1    3    3    0    0 -0.98006635433E+03  0.13008460018E+02 -0.73122797543E+03  0.12228628831E+04  0.00000000000E+00 0. -1.
          4    1    6    6  502    0  0.17202432643E+03  0.96506305024E+02 -0.17378578550E+03  0.26288274009E+03  0.00000000000E+00 0. -1.
          1    1    5    5  503    0  0.12737192427E+01 -0.39421903685E+01  0.25010222334E+01  0.48392497169E+01  0.00000000000E+00 0. -1.
         -2    1    5    5    0  503  0.99556482986E+03 -0.24416153884E+03 -0.14046541034E+03  0.10346471471E+04  0.00000000000E+00 0.  1.
         -3    1    6    6    0  502  0.47650380414E+03  0.17609999307E+03 -0.58870811215E+03  0.77758878865E+03  0.00000000000E+00 0.  1.
<mgrwt>
<rscale>  0 0.35393707E+04</rscale>
<asrwt>0</asrwt>
<pdfrwt beam="1">  1        2 0.47420294E+00 0.35393707E+04</pdfrwt>
<pdfrwt beam="2">  1       -2 0.15631518E+00 0.35393707E+04</pdfrwt>
<totfact> 0.33917637E-01</totfact>
</mgrwt>
</event>
<event>
12    1  0.1397649E-007  0.1186536E+04  0.7818608E-02  0.9124724E-01
         -2   -1    0    0    0  501 -0.00000000000E+00  0.00000000000E+00  0.39540664558E+03  0.39540664558E+03  0.00000000000E+00 0.  1.
          2   -1    0    0  501    0  0.00000000000E+00 -0.00000000000E+00 -0.89013845133E+03  0.89013845133E+03  0.00000000000E+00 0. -1.
         23    2    1    2    0    0 -0.22323849600E+03  0.41438096219E+02 -0.16964856697E+03  0.29805596770E+03  0.92218120184E+02 0.  0.
        254    2    1    2    0    0  0.22323849600E+03 -0.41438096219E+02 -0.32508323878E+03  0.98748912921E+03  0.90437996785E+03 0.  0.
        -24    2    4    4    0    0 -0.25792278244E+01 -0.43129700944E+03 -0.29504241545E+03  0.52900390124E+03  0.82288139157E+02 0.  0.
         24    2    4    4    0    0  0.22581772382E+03  0.38985891322E+03 -0.30040823330E+02  0.45848522797E+03  0.79515008547E+02 0.  0.
         13    1    3    3    0    0 -0.15606194879E+03  0.64699671578E+02 -0.90450126699E+02  0.19163142953E+03  0.00000000000E+00 0.  1.
        -13    1    3    3    0    0 -0.67176547207E+02 -0.23261575359E+02 -0.79198440275E+02  0.10642453817E+03  0.00000000000E+00 0. -1.
          2    1    6    6  502    0  0.66254873116E+02  0.73577988462E+02  0.19112907957E+02  0.10084013015E+03  0.00000000000E+00 0. -1.
          1    1    5    5  503    0 -0.30688621770E+02 -0.69353295619E+02 -0.44875468965E+02  0.88121954326E+02  0.00000000000E+00 0. -1.
         -2    1    5    5    0  503  0.28109393945E+02 -0.36194371382E+03 -0.25016694649E+03  0.44088194692E+03  0.00000000000E+00 0.  1.
         -1    1    6    6    0  502  0.15956285071E+03  0.31628092476E+03 -0.49153731287E+02  0.35764509782E+03  0.00000000000E+00 0.  1.
<mgrwt>
<rscale>  0 0.11865356E+04</rscale>
<asrwt>0</asrwt>
<pdfrwt beam="1">  1        2 0.13694437E+00 0.11865356E+04</pdfrwt>
<pdfrwt beam="2">  1       -2 0.60831793E-01 0.11865356E+04</pdfrwt>
<totfact> 0.73992547E+01</totfact>
</mgrwt>
</event>
<event>
12    1  0.1397649E-007  0.2058647E+04  0.7818608E-02  0.8579682E-01
          3   -1    0    0  501    0  0.00000000000E+00  0.00000000000E+00  0.13457084985E+04  0.13457084985E+04  0.00000000000E+00 0. -1.
         -3   -1    0    0    0  501 -0.00000000000E+00 -0.00000000000E+00 -0.78732250141E+03  0.78732250141E+03  0.00000000000E+00 0.  1.
         23    2    1    2    0    0  0.53653810031E+03 -0.43086087233E+03 -0.24044248204E+03  0.73528095255E+03  0.96494909865E+02 0.  0.
        254    2    1    2    0    0 -0.53653810031E+03  0.43086087233E+03  0.79882847916E+03  0.13977500474E+04  0.91764046962E+03 0.  0.
        -24    2    4    4    0    0 -0.33606442318E+03 -0.16996012405E+03  0.62851934985E+03  0.73684690570E+03  0.77981081112E+02 0.  0.
         24    2    4    4    0    0 -0.20047367713E+03  0.60082099639E+03  0.17030912931E+03  0.66090314169E+03  0.81315424445E+02 0.  0.
         11    1    3    3    0    0  0.36954586341E+03 -0.35119757241E+03 -0.17348971483E+03  0.53851885871E+03  0.00000000000E+00 0. -1.
        -11    1    3    3    0    0  0.16699223690E+03 -0.79663299924E+02 -0.66952767209E+02  0.19676209385E+03  0.00000000000E+00 0.  1.
          2    1    6    6  502    0 -0.11928601778E+02  0.90675084239E+01  0.13917992060E+02  0.20450470713E+02  0.00000000000E+00 0. -1.
          1    1    5    5  503    0 -0.63118595138E+02 -0.30931567617E+01  0.12933383496E+03  0.14394709284E+03  0.00000000000E+00 0. -1.
         -2    1    5    5    0  503 -0.27294582804E+03 -0.16686696729E+03  0.49918551488E+03  0.59289981286E+03  0.00000000000E+00 0.  1.
         -1    1    6    6    0  502 -0.18854507536E+03  0.59175348796E+03  0.15639113725E+03  0.64045267098E+03  0.00000000000E+00 0.  1.
<mgrwt>
<rscale>  0 0.20586467E+04</rscale>
<asrwt>0</asrwt>
<pdfrwt beam="1">  1        3 0.20703208E+00 0.20586467E+04</pdfrwt>
<pdfrwt beam="2">  1       -3 0.12112654E+00 0.20586467E+04</pdfrwt>
<totfact> 0.17767845E-01</totfact>
</mgrwt>
</event>
<event>
12    1  0.1397649E-007  0.1718867E+04  0.7818608E-02  0.8750676E-01
          1   -1    0    0  501    0  0.00000000000E+00  0.00000000000E+00  0.19607397354E+04  0.19607397354E+04  0.00000000000E+00 0. -1.
         -1   -1    0    0    0  501 -0.00000000000E+00 -0.00000000000E+00 -0.37670797281E+03  0.37670797281E+03  0.00000000000E+00 0.  1.
         23    2    1    2    0    0 -0.13076071272E+03 -0.54167276108E+03  0.19635711353E+03  0.59767503737E+03  0.90286157157E+02 0.  0.
        254    2    1    2    0    0  0.13076071272E+03  0.54167276108E+03  0.13876746491E+04  0.17397726708E+04  0.88919079531E+03 0.  0.
        -24    2    4    4    0    0  0.25158144579E+03  0.13156623175E+03  0.99884892930E+01  0.29503781618E+03  0.79653285263E+02 0.  0.
         24    2    4    4    0    0 -0.12082073307E+03  0.41010652933E+03  0.13776861598E+04  0.14447348547E+04  0.80340715198E+02 0.  0.
         11    1    3    3    0    0 -0.33038283160E+02 -0.20825621403E+03  0.31841227337E+02  0.21325112566E+03  0.00000000000E+00 0.  1.
        -11    1    3    3    0    0 -0.97722429561E+02 -0.33341654705E+03  0.16451588619E+03  0.38442391171E+03  0.00000000000E+00 0. -1.
          2    1    6    6  502    0 -0.13065622591E+03  0.39985106021E+03  0.13390005681E+04  0.14035221555E+04  0.00000000000E+00 0. -1.
          3    1    5    5  503    0  0.14601426258E+03  0.11837692641E+03 -0.19549076254E+01  0.18798160348E+03  0.00000000000E+00 0. -1.
         -2    1    5    5    0  503  0.10556718321E+03  0.13189305332E+02  0.11943396918E+02  0.10705621269E+03  0.00000000000E+00 0.  1.
         -1    1    6    6    0  502  0.98354928376E+01  0.10255469120E+02  0.38685591717E+02  0.41212699168E+02  0.00000000000E+00 0.  1.
<mgrwt>
<rscale>  0 0.17188674E+04</rscale>
<asrwt>0</asrwt>
<pdfrwt beam="1">  1        1 0.30165226E+00 0.17188674E+04</pdfrwt>
<pdfrwt beam="2">  1       -1 0.57955074E-01 0.17188674E+04</pdfrwt>
<totfact> 0.90818193E+00</totfact>
</mgrwt>
</event>
<event>
12    1  0.1397649E-007  0.1550198E+04  0.7818608E-02  0.8851741E-01
          1   -1    0    0  501    0  0.00000000000E+00  0.00000000000E+00  0.15449835268E+04  0.15449835268E+04  0.00000000000E+00 0. -1.
         -1   -1    0    0    0  501 -0.00000000000E+00 -0.00000000000E+00 -0.38885737471E+03  0.38885737471E+03  0.00000000000E+00 0.  1.
         23    2    1    2    0    0  0.19641349246E+03  0.13688431089E+03  0.94679497146E+03  0.98099867979E+03  0.92855356179E+02 0.  0.
        254    2    1    2    0    0 -0.19641349246E+03 -0.13688431089E+03  0.20933118059E+03  0.95284222168E+03  0.89820553420E+03 0.  0.
        -24    2    4    4    0    0  0.21285459688E+03 -0.49090216887E+02  0.41680040466E+03  0.47850331088E+03  0.86752016656E+02 0.  0.
         24    2    4    4    0    0 -0.40926808934E+03 -0.87794093999E+02 -0.20746922407E+03  0.47433891080E+03  0.82132523797E+02 0.  0.
         11    1    3    3    0    0  0.17313135730E+03  0.11274744154E+03  0.90010785464E+03  0.92351535040E+03  0.00000000000E+00 0. -1.
        -11    1    3    3    0    0  0.23282135158E+02  0.24136869349E+02  0.46687116828E+02  0.57483329385E+02  0.00000000000E+00 0.  1.
          4    1    6    6  502    0 -0.31915456555E+03 -0.71627443786E+02 -0.12203840233E+03  0.34911817349E+03  0.00000000000E+00 0. -1.
          3    1    5    5  503    0  0.18879181627E+03 -0.64791098658E+02  0.39454277506E+03  0.44215861148E+03  0.00000000000E+00 0. -1.
         -4    1    5    5    0  503  0.24062780615E+02  0.15700881771E+02  0.22257629603E+02  0.36344699405E+02  0.00000000000E+00 0.  1.
         -3    1    6    6    0  502 -0.90113523787E+02 -0.16166650213E+02 -0.85430821742E+02  0.12522073731E+03  0.00000000000E+00 0.  1.
<mgrwt>
<rscale>  0 0.15501977E+04</rscale>
<asrwt>0</asrwt>
<pdfrwt beam="1">  1        1 0.23768977E+00 0.15501977E+04</pdfrwt>
<pdfrwt beam="2">  1       -1 0.59824212E-01 0.15501977E+04</pdfrwt>
<totfact> 0.16618303E+01</totfact>
</mgrwt>
</event>
<event>
12    1  0.1397649E-007  0.2020183E+04  0.7818608E-02  0.8597242E-01
          2   -1    0    0  501    0  0.00000000000E+00  0.00000000000E+00  0.14316467868E+04  0.14316467868E+04  0.00000000000E+00 0. -1.
         -2   -1    0    0    0  501 -0.00000000000E+00 -0.00000000000E+00 -0.71266540988E+03  0.71266540988E+03  0.00000000000E+00 0.  1.
         23    2    1    2    0    0 -0.58146902057E+02  0.80065811433E+03  0.24690477467E+03  0.84469489075E+03  0.90072262398E+02 0.  0.
        254    2    1    2    0    0  0.58146902057E+02 -0.80065811433E+03  0.47207660220E+03  0.12996173059E+04  0.90648460834E+03 0.  0.
        -24    2    4    4    0    0 -0.23342124814E+03  0.27424972153E+02  0.31751780770E+03  0.40449875722E+03  0.86971709232E+02 0.  0.
         24    2    4    4    0    0  0.29156815020E+03 -0.82808308648E+03  0.15455879450E+03  0.89511854867E+03  0.81333946701E+02 0.  0.
         11    1    3    3    0    0  0.24226424349E+01  0.21270551669E+03  0.28735472389E+02  0.21465142301E+03  0.00000000000E+00 0.  1.
        -11    1    3    3    0    0 -0.60569544492E+02  0.58795259763E+03  0.21816930228E+03  0.63004346774E+03  0.00000000000E+00 0. -1.
          2    1    6    6  502    0  0.24370185775E+02 -0.45856993823E+02 -0.84006673538E+01  0.52605522991E+02  0.00000000000E+00 0. -1.
          1    1    5    5  503    0 -0.70172925736E+02  0.48044996528E+02  0.91371802146E+02  0.12482534769E+03  0.00000000000E+00 0. -1.
         -2    1    5    5    0  503 -0.16324832240E+03 -0.20620024375E+02  0.22614600556E+03  0.27967340954E+03  0.00000000000E+00 0.  1.
         -1    1    6    6    0  502  0.26719796442E+03 -0.78222609266E+03  0.16295946186E+03  0.84251302568E+03  0.00000000000E+00 0.  1.
<mgrwt>
<rscale>  0 0.20201833E+04</rscale>
<asrwt>0</asrwt>
<pdfrwt beam="1">  1        2 0.22025335E+00 0.20201833E+04</pdfrwt>
<pdfrwt beam="2">  1       -2 0.10964083E+00 0.20201833E+04</pdfrwt>
<totfact> 0.85274491E+00</totfact>
</mgrwt>
</event>
<event>
12    1  0.1397649E-007  0.1515344E+04  0.7818608E-02  0.8874313E-01
          2   -1    0    0  501    0  0.00000000000E+00  0.00000000000E+00  0.13906057872E+04  0.13906057872E+04  0.00000000000E+00 0. -1.
         -2   -1    0    0    0  501 -0.00000000000E+00 -0.00000000000E+00 -0.41281781763E+03  0.41281781763E+03  0.00000000000E+00 0.  1.
         23    2    1    2    0    0  0.16116162693E+02 -0.30085510139E+03 -0.12994558519E+03  0.34026867895E+03  0.90129884239E+02 0.  0.
        254    2    1    2    0    0 -0.16116162693E+02  0.30085510139E+03  0.11077335547E+04  0.14631549258E+04  0.90717979809E+03 0.  0.
        -24    2    4    4    0    0 -0.43793759609E+03  0.12392482455E+03  0.37320684047E+03  0.59404078475E+03  0.80339330086E+02 0.  0.
         24    2    4    4    0    0  0.42182143340E+03  0.17693027684E+03  0.73452671424E+03  0.86911414110E+03  0.81192683096E+02 0.  0.
         13    1    3    3    0    0  0.39777693245E+02 -0.15512267088E+03 -0.32605240299E+02  0.16342707731E+03  0.00000000000E+00 0. -1.
        -13    1    3    3    0    0 -0.23661530552E+02 -0.14573243051E+03 -0.97340344887E+02  0.17684160164E+03  0.00000000000E+00 0.  1.
          4    1    6    6  502    0  0.37397192075E+03  0.17978261392E+03  0.67909840181E+03  0.79583379240E+03  0.00000000000E+00 0. -1.
          3    1    5    5  503    0 -0.40276417471E+03  0.98407507185E+02  0.35866199445E+03  0.54821660332E+03  0.00000000000E+00 0. -1.
         -4    1    5    5    0  503 -0.35173421385E+02  0.25517317363E+02  0.14544846023E+02  0.45824181424E+02  0.00000000000E+00 0.  1.
         -3    1    6    6    0  502  0.47849512643E+02 -0.28523370779E+01  0.55428312434E+02  0.73280348705E+02  0.00000000000E+00 0.  1.
<mgrwt>
<rscale>  0 0.15153440E+04</rscale>
<asrwt>0</asrwt>
<pdfrwt beam="1">  1        2 0.21393935E+00 0.15153440E+04</pdfrwt>
<pdfrwt beam="2">  1       -2 0.63510434E-01 0.15153440E+04</pdfrwt>
<totfact> 0.32442261E+01</totfact>
</mgrwt>
</event>
<event>
12    1  0.1397649E-007  0.1514995E+04  0.7818608E-02  0.8874543E-01
          1   -1    0    0  501    0  0.00000000000E+00  0.00000000000E+00  0.36683704733E+03  0.36683704733E+03  0.00000000000E+00 0. -1.
         -1   -1    0    0    0  501 -0.00000000000E+00 -0.00000000000E+00 -0.15641880632E+04  0.15641880632E+04  0.00000000000E+00 0.  1.
         23    2    1    2    0    0  0.37823816466E+03 -0.39733367726E+02 -0.75052277660E+03  0.84637652713E+03  0.91792907007E+02 0.  0.
        254    2    1    2    0    0 -0.37823816466E+03  0.39733367726E+02 -0.44682823929E+03  0.10846485834E+04  0.91223035707E+03 0.  0.
        -24    2    4    4    0    0  0.29054901466E+03  0.84301965232E+02 -0.15440174478E+03  0.34903570208E+03  0.80377056879E+02 0.  0.
         24    2    4    4    0    0 -0.66878717932E+03 -0.44568597506E+02 -0.29242649451E+03  0.73561288133E+03  0.79689430798E+02 0.  0.
         11    1    3    3    0    0  0.45573619792E+02 -0.52258252679E+01 -0.39157654145E+02  0.60312402944E+02  0.00000000000E+00 0. -1.
        -11    1    3    3    0    0  0.33266454487E+03 -0.34507542458E+02 -0.71136512245E+03  0.78606412419E+03  0.00000000000E+00 0.  1.
          2    1    6    6  502    0 -0.52673244503E+03 -0.28905393689E+02 -0.26400189460E+03  0.58989794947E+03  0.00000000000E+00 0. -1.
          1    1    5    5  503    0  0.16428562953E+03  0.17903611110E+02 -0.51357083112E+02  0.17305449242E+03  0.00000000000E+00 0. -1.
         -2    1    5    5    0  503  0.12626338513E+03  0.66398354122E+02 -0.10304466167E+03  0.17598120966E+03  0.00000000000E+00 0.  1.
         -1    1    6    6    0  502 -0.14205473429E+03 -0.15663203817E+02 -0.28424599908E+02  0.14571493186E+03  0.00000000000E+00 0.  1.
<mgrwt>
<rscale>  0 0.15149946E+04</rscale>
<asrwt>0</asrwt>
<pdfrwt beam="1">  1        1 0.56436469E-01 0.15149946E+04</pdfrwt>
<pdfrwt beam="2">  1       -1 0.24064432E+00 0.15149946E+04</pdfrwt>
<totfact> 0.52231415E+00</totfact>
</mgrwt>
</event>
<event>
12    1  0.1397649E-007  0.2009931E+04  0.7818608E-02  0.8601992E-01
         -2   -1    0    0    0  501 -0.00000000000E+00  0.00000000000E+00  0.70434893793E+03  0.70434893793E+03  0.00000000000E+00 0.  1.
          2   -1    0    0  501    0  0.00000000000E+00 -0.00000000000E+00 -0.14338848682E+04  0.14338848682E+04  0.00000000000E+00 0. -1.
         23    2    1    2    0    0  0.41392322747E+03  0.27743899489E+03  0.38242468301E+03  0.63486030437E+03  0.92163624906E+02 0.  0.
        254    2    1    2    0    0 -0.41392322747E+03 -0.27743899489E+03 -0.11119606133E+04  0.15033735018E+04  0.88055133080E+03 0.  0.
        -24    2    4    4    0    0  0.40593324163E+02  0.25416350011E+03 -0.50938163092E+03  0.57606385245E+03  0.78313558412E+02 0.  0.
         24    2    4    4    0    0 -0.45451655163E+03 -0.53160249501E+03 -0.60257898236E+03  0.92730964931E+03  0.87265384341E+02 0.  0.
         11    1    3    3    0    0  0.20633385547E+03  0.19260564519E+03  0.22277580073E+03  0.35958260784E+03  0.00000000000E+00 0.  1.
        -11    1    3    3    0    0  0.20758937200E+03  0.84833349707E+02  0.15964888228E+03  0.27527769652E+03  0.00000000000E+00 0. -1.
          2    1    6    6  502    0 -0.91262942168E+02 -0.62667266776E+02 -0.11299156028E+03  0.15818724232E+03  0.00000000000E+00 0. -1.
          3    1    5    5  503    0  0.54766192248E+02  0.98521639708E+02 -0.20927156219E+03  0.23769820371E+03  0.00000000000E+00 0. -1.
         -4    1    5    5    0  503 -0.14172868085E+02  0.15564186040E+03 -0.30011006873E+03  0.33836564875E+03  0.00000000000E+00 0.  1.
         -1    1    6    6    0  502 -0.36325360947E+03 -0.46893522823E+03 -0.48958742208E+03  0.76912240698E+03  0.00000000000E+00 0.  1.
<mgrwt>
<rscale>  0 0.20099306E+04</rscale>
<asrwt>0</asrwt>
<pdfrwt beam="1">  1        2 0.22059767E+00 0.20099306E+04</pdfrwt>
<pdfrwt beam="2">  1       -2 0.10836138E+00 0.20099306E+04</pdfrwt>
<totfact> 0.87546239E+00</totfact>
</mgrwt>
</event>
<event>
12    1  0.1397649E-007  0.1264926E+04  0.7818608E-02  0.9057851E-01
          2   -1    0    0  501    0  0.00000000000E+00  0.00000000000E+00  0.34830904113E+04  0.34830904113E+04  0.00000000000E+00 0. -1.
         -2   -1    0    0    0  501 -0.00000000000E+00 -0.00000000000E+00 -0.11484324365E+03  0.11484324365E+03  0.00000000000E+00 0.  1.
         23    2    1    2    0    0 -0.10870975218E+02 -0.91082007570E+02  0.16730008022E+04  0.16779816176E+04  0.90975352335E+02 0.  0.
        254    2    1    2    0    0  0.10870975218E+02  0.91082007570E+02  0.16952463655E+04  0.19199520374E+04  0.89662783577E+03 0.  0.
        -24    2    4    4    0    0  0.28723510870E+03 -0.20439667773E+03  0.12980049780E+04  0.13473743123E+04  0.79489653448E+02 0.  0.
         24    2    4    4    0    0 -0.27636413348E+03  0.29547868530E+03  0.39724138754E+03  0.57257772511E+03  0.79748000428E+02 0.  0.
         13    1    3    3    0    0 -0.45558469971E+02 -0.71780693990E+02  0.13248516327E+04  0.13275766987E+04  0.00000000000E+00 0. -1.
        -13    1    3    3    0    0  0.34687494753E+02 -0.19301313580E+02  0.34814916943E+03  0.35040491888E+03  0.00000000000E+00 0.  1.
          2    1    6    6  502    0 -0.20156242230E+02 -0.13317225183E+01  0.21782460702E+02  0.29707291696E+02  0.00000000000E+00 0. -1.
          3    1    5    5  503    0  0.30246679970E+02 -0.57009205746E+02  0.26327260933E+03  0.27106710980E+03  0.00000000000E+00 0. -1.
         -4    1    5    5    0  503  0.25698842873E+03 -0.14738747199E+03  0.10347323687E+04  0.10763072025E+04  0.00000000000E+00 0.  1.
         -1    1    6    6    0  502 -0.25620789125E+03  0.29681040782E+03  0.37545892684E+03  0.54287043341E+03  0.00000000000E+00 0.  1.
<mgrwt>
<rscale>  0 0.12649259E+04</rscale>
<asrwt>0</asrwt>
<pdfrwt beam="1">  1        2 0.53585998E+00 0.12649259E+04</pdfrwt>
<pdfrwt beam="2">  1       -2 0.17668194E-01 0.12649259E+04</pdfrwt>
<totfact> 0.22263940E+01</totfact>
</mgrwt>
</event>
<event>
12    1  0.1397649E-007  0.1138403E+04  0.7818608E-02  0.9168550E-01
          4   -1    0    0  501    0  0.00000000000E+00  0.00000000000E+00  0.53916530008E+03  0.53916530008E+03  0.00000000000E+00 0. -1.
         -4   -1    0    0    0  501 -0.00000000000E+00 -0.00000000000E+00 -0.60091086982E+03  0.60091086982E+03  0.00000000000E+00 0.  1.
         23    2    1    2    0    0  0.55994616970E+02  0.13088849443E+03  0.11694313107E+03  0.20896701179E+03  0.98611971943E+02 0.  0.
        254    2    1    2    0    0 -0.55994616970E+02 -0.13088849443E+03 -0.17868870081E+03  0.93110915811E+03  0.90264467950E+03 0.  0.
        -24    2    4    4    0    0 -0.40246395012E+03  0.58148035534E+01 -0.32382994366E+03  0.52229775737E+03  0.76929005257E+02 0.  0.
         24    2    4    4    0    0  0.34646933315E+03 -0.13670329798E+03  0.14514124285E+03  0.40881140074E+03  0.85627043082E+02 0.  0.
         11    1    3    3    0    0  0.33220438524E+02 -0.26870434120E+00  0.23263127608E+01  0.33302874783E+02  0.00000000000E+00 0.  1.
        -11    1    3    3    0    0  0.22774178447E+02  0.13115719877E+03  0.11461681831E+03  0.17566413701E+03  0.00000000000E+00 0. -1.
          2    1    6    6  502    0  0.11571617413E+03 -0.81621857829E+01  0.25170053290E+02  0.11870293095E+03  0.00000000000E+00 0. -1.
          1    1    5    5  503    0 -0.34222512045E+03 -0.14931925860E+02 -0.24607736646E+03  0.42177608486E+03  0.00000000000E+00 0. -1.
         -2    1    5    5    0  503 -0.60238829673E+02  0.20746729413E+02 -0.77752577207E+02  0.10052167251E+03  0.00000000000E+00 0.  1.
         -1    1    6    6    0  502  0.23075315902E+03 -0.12854111220E+03  0.11997118956E+03  0.29010846980E+03  0.00000000000E+00 0.  1.
<mgrwt>
<rscale>  0 0.11384029E+04</rscale>
<asrwt>0</asrwt>
<pdfrwt beam="1">  1        4 0.82948508E-01 0.11384029E+04</pdfrwt>
<pdfrwt beam="2">  1       -4 0.92447826E-01 0.11384029E+04</pdfrwt>
<totfact> 0.25063900E+00</totfact>
</mgrwt>
</event>
<event>
12    1  0.1397649E-007  0.1316551E+04  0.7818608E-02  0.9016542E-01
         -2   -1    0    0    0  501 -0.00000000000E+00  0.00000000000E+00  0.13340297736E+03  0.13340297736E+03  0.00000000000E+00 0.  1.
          2   -1    0    0  501    0  0.00000000000E+00 -0.00000000000E+00 -0.32482518731E+04  0.32482518731E+04  0.00000000000E+00 0. -1.
         23    2    1    2    0    0  0.20728917724E+03 -0.97090457246E+02 -0.19170492634E+03  0.31279539657E+03  0.93246026419E+02 0.  0.
        254    2    1    2    0    0 -0.20728917724E+03  0.97090457246E+02 -0.29231439694E+04  0.30688594538E+04  0.90594278076E+03 0.  0.
        -24    2    4    4    0    0 -0.27579586845E+03 -0.92417566673E+02 -0.28069971270E+04  0.28234292504E+04  0.88969059840E+02 0.  0.
         24    2    4    4    0    0  0.68506691203E+02  0.18950802392E+03 -0.11614684238E+03  0.24543020343E+03  0.78354565222E+02 0.  0.
         11    1    3    3    0    0  0.86084944548E+02 -0.47425618974E+02 -0.14200214752E+03  0.17269747222E+03  0.00000000000E+00 0. -1.
        -11    1    3    3    0    0  0.12120423270E+03 -0.49664838272E+02 -0.49702778821E+02  0.14009792435E+03  0.00000000000E+00 0.  1.
          2    1    6    6  502    0  0.33665880451E+02  0.13541730407E+03 -0.38824616072E+02  0.14483987214E+03  0.00000000000E+00 0. -1.
          1    1    5    5  503    0 -0.27849457849E+03 -0.81394554935E+02 -0.27533196782E+04  0.27685652520E+04  0.00000000000E+00 0. -1.
         -2    1    5    5    0  503  0.26987100387E+01 -0.11023011738E+02 -0.53677448723E+02  0.54863998442E+02  0.00000000000E+00 0.  1.
         -1    1    6    6    0  502  0.34840810752E+02  0.54090719850E+02 -0.77322226313E+02  0.10059033129E+03  0.00000000000E+00 0.  1.
<mgrwt>
<rscale>  0 0.13165508E+04</rscale>
<asrwt>0</asrwt>
<pdfrwt beam="1">  1        2 0.49973106E+00 0.13165508E+04</pdfrwt>
<pdfrwt beam="2">  1       -2 0.20523535E-01 0.13165508E+04</pdfrwt>
<totfact> 0.24475662E+01</totfact>
</mgrwt>
</event>
<event>
12    1  0.1397649E-007  0.2694313E+04  0.7818608E-02  0.8336852E-01
         -2   -1    0    0    0  501 -0.00000000000E+00  0.00000000000E+00  0.14846975325E+04  0.14846975325E+04  0.00000000000E+00 0.  1.
          2   -1    0    0  501    0  0.00000000000E+00 -0.00000000000E+00 -0.12223575044E+04  0.12223575044E+04  0.00000000000E+00 0. -1.
         23    2    1    2    0    0  0.88129069454E+03  0.30092788487E+03  0.87335068089E+03  0.12800205339E+04  0.92088409417E+02 0.  0.
        254    2    1    2    0    0 -0.88129069454E+03 -0.30092788487E+03 -0.61101065277E+03  0.14270345030E+04  0.89211130181E+03 0.  0.
        -24    2    4    4    0    0 -0.49517318665E+03 -0.28942146765E+03  0.12464391216E+03  0.59231465735E+03  0.79619581490E+02 0.  0.
         24    2    4    4    0    0 -0.38611750789E+03 -0.11506417214E+02 -0.73565456493E+03  0.83471984566E+03  0.79689737753E+02 0.  0.
         13    1    3    3    0    0  0.45940989944E+03  0.16417102021E+03  0.39508476175E+03  0.62777507799E+03  0.00000000000E+00 0.  1.
        -13    1    3    3    0    0  0.42188079510E+03  0.13675686466E+03  0.47826591915E+03  0.65224545588E+03  0.00000000000E+00 0. -1.
          4    1    6    6  502    0 -0.87020189787E+01 -0.55052436438E+01 -0.32992998061E+01  0.10812872934E+02  0.00000000000E+00 0. -1.
          1    1    5    5  503    0 -0.33018128176E+03 -0.22846002379E+03  0.66001300499E+02  0.40690273158E+03  0.00000000000E+00 0. -1.
         -2    1    5    5    0  503 -0.16499190489E+03 -0.60961443861E+02  0.58642611662E+02  0.18541192577E+03  0.00000000000E+00 0.  1.
         -3    1    6    6    0  502 -0.37741548891E+03 -0.60011735701E+01 -0.73235526512E+03  0.82390697273E+03  0.00000000000E+00 0.  1.
<mgrwt>
<rscale>  0 0.26943134E+04</rscale>
<asrwt>0</asrwt>
<pdfrwt beam="1">  1        2 0.18805500E+00 0.26943134E+04</pdfrwt>
<pdfrwt beam="2">  1       -2 0.22841501E+00 0.26943134E+04</pdfrwt>
<totfact> 0.14102480E+00</totfact>
</mgrwt>
</event>
<event>
12    1  0.1397649E-007  0.1521976E+04  0.7818608E-02  0.8869969E-01
         -1   -1    0    0    0  501 -0.00000000000E+00  0.00000000000E+00  0.37983712205E+03  0.37983712205E+03  0.00000000000E+00 0.  1.
          1   -1    0    0  501    0  0.00000000000E+00 -0.00000000000E+00 -0.15246089371E+04  0.15246089371E+04  0.00000000000E+00 0. -1.
         23    2    1    2    0    0  0.42345501069E+02 -0.99006525399E+02 -0.96763379543E+03  0.98089067391E+03  0.11931436869E+03 0.  0.
        254    2    1    2    0    0 -0.42345501069E+02  0.99006525399E+02 -0.17713801964E+03  0.92355538527E+03  0.89998957667E+03 0.  0.
        -24    2    4    4    0    0 -0.20629304916E+03  0.74028999850E+02  0.31934838050E+03  0.39392097454E+03  0.71786009116E+02 0.  0.
         24    2    4    4    0    0  0.16394754809E+03  0.24977525549E+02 -0.49648640014E+03  0.52963441073E+03  0.80691933854E+02 0.  0.
         11    1    3    3    0    0 -0.21198240953E+02  0.11104686070E+02 -0.32020736451E+03  0.32110035154E+03  0.00000000000E+00 0. -1.
        -11    1    3    3    0    0  0.63543742022E+02 -0.11011121147E+03 -0.64742643092E+03  0.65979032237E+03  0.00000000000E+00 0.  1.
          4    1    6    6  502    0  0.63414626894E+02  0.49483415683E+02 -0.19768802079E+03  0.21342581122E+03  0.00000000000E+00 0. -1.
          1    1    5    5  503    0 -0.12097055639E+03  0.68162232900E+01  0.15144246972E+03  0.19394627620E+03  0.00000000000E+00 0. -1.
         -2    1    5    5    0  503 -0.85322492768E+02  0.67212776560E+02  0.16790591078E+03  0.19997469835E+03  0.00000000000E+00 0.  1.
         -3    1    6    6    0  502  0.10053292120E+03 -0.24505890134E+02 -0.29879837936E+03  0.31620859951E+03  0.00000000000E+00 0.  1.
<mgrwt>
<rscale>  0 0.15219764E+04</rscale>
<asrwt>0</asrwt>
<pdfrwt beam="1">  1        1 0.23455522E+00 0.15219764E+04</pdfrwt>
<pdfrwt beam="2">  1       -1 0.58436480E-01 0.15219764E+04</pdfrwt>
<totfact> 0.18021960E+01</totfact>
</mgrwt>
</event>
<event>
12    1  0.1397649E-007  0.1462627E+04  0.7818608E-02  0.8909693E-01
          2   -1    0    0  501    0  0.00000000000E+00  0.00000000000E+00  0.73101310178E+03  0.73101310178E+03  0.00000000000E+00 0. -1.
         -2   -1    0    0    0  501 -0.00000000000E+00 -0.00000000000E+00 -0.73161384182E+03  0.73161384182E+03  0.00000000000E+00 0.  1.
         23    2    1    2    0    0  0.96338476729E+02  0.29463425027E+03 -0.32240874993E+03  0.45621860674E+03  0.89986507733E+02 0.  0.
        254    2    1    2    0    0 -0.96338476729E+02 -0.29463425027E+03  0.32180800989E+03  0.10064083369E+04  0.90177985215E+03 0.  0.
        -24    2    4    4    0    0  0.24941639685E+03 -0.79270445232E+02  0.48764165559E+03  0.55913780771E+03  0.79676604089E+02 0.  0.
         24    2    4    4    0    0 -0.34575487357E+03 -0.21536380504E+03 -0.16583364570E+03  0.44727052915E+03  0.81376452860E+02 0.  0.
         11    1    3    3    0    0  0.26704576910E+02  0.46812562235E+02 -0.16394885562E+02  0.56332430122E+02  0.00000000000E+00 0.  1.
        -11    1    3    3    0    0  0.69633899819E+02  0.24782168803E+03 -0.30601386436E+03  0.39988617661E+03  0.00000000000E+00 0. -1.
          2    1    6    6  502    0 -0.89262807415E+02 -0.44442880997E+02 -0.55683774604E+01  0.99870041987E+02  0.00000000000E+00 0. -1.
          3    1    5    5  503    0 -0.27199217005E+01  0.20256980940E+01  0.31225991030E+02  0.31409615448E+02  0.00000000000E+00 0. -1.
         -4    1    5    5    0  503  0.25213631855E+03 -0.81296143326E+02  0.45641566456E+03  0.52772819226E+03  0.00000000000E+00 0.  1.
         -1    1    6    6    0  502 -0.25649206616E+03 -0.17092092404E+03 -0.16026526824E+03  0.34740048717E+03  0.00000000000E+00 0.  1.
<mgrwt>
<rscale>  0 0.14626268E+04</rscale>
<asrwt>0</asrwt>
<pdfrwt beam="1">  1        2 0.11246355E+00 0.14626268E+04</pdfrwt>
<pdfrwt beam="2">  1       -2 0.11255597E+00 0.14626268E+04</pdfrwt>
<totfact> 0.23338005E+01</totfact>
</mgrwt>
</event>
<event>
12    1  0.1397649E-007  0.1733268E+04  0.7818608E-02  0.8742614E-01
          1   -1    0    0  501    0  0.00000000000E+00  0.00000000000E+00  0.27470262122E+04  0.27470262122E+04  0.00000000000E+00 0. -1.
         -1   -1    0    0    0  501 -0.00000000000E+00 -0.00000000000E+00 -0.27340651571E+03  0.27340651571E+03  0.00000000000E+00 0.  1.
         23    2    1    2    0    0  0.45802148653E+02  0.30097704801E+03  0.19356698548E+04  0.19616352436E+04  0.92249778569E+02 0.  0.
        254    2    1    2    0    0 -0.45802148653E+02 -0.30097704801E+03  0.53794984161E+03  0.10587974843E+04  0.85963774953E+03 0.  0.
        -24    2    4    4    0    0 -0.27713163956E+03 -0.50693246986E+03  0.27716440653E+03  0.64592736427E+03  0.81360783053E+02 0.  0.
         24    2    4    4    0    0  0.23132949091E+03  0.20595542185E+03  0.26078543509E+03  0.41287012003E+03  0.80757189804E+02 0.  0.
         11    1    3    3    0    0 -0.27062448710E+02  0.10258559382E+03  0.58835030353E+03  0.59783966066E+03  0.00000000000E+00 0.  1.
        -11    1    3    3    0    0  0.72864597364E+02  0.19839145419E+03  0.13473195513E+04  0.13637955829E+04  0.00000000000E+00 0. -1.
          4    1    6    6  502    0  0.18278418496E+03  0.16368794563E+03  0.15879472597E+03  0.29226626013E+03  0.00000000000E+00 0. -1.
          1    1    5    5  503    0 -0.26588169412E+03 -0.43796120479E+03  0.22993109627E+03  0.56157938103E+03  0.00000000000E+00 0. -1.
         -2    1    5    5    0  503 -0.11249945439E+02 -0.68971265070E+02  0.47233310254E+02  0.84347983232E+02  0.00000000000E+00 0.  1.
         -3    1    6    6    0  502  0.48545305949E+02  0.42267476225E+02  0.10199070912E+03  0.12060385990E+03  0.00000000000E+00 0.  1.
<mgrwt>
<rscale>  0 0.17332684E+04</rscale>
<asrwt>0</asrwt>
<pdfrwt beam="1">  1        1 0.42261940E+00 0.17332684E+04</pdfrwt>
<pdfrwt beam="2">  1       -1 0.42062543E-01 0.17332684E+04</pdfrwt>
<totfact> 0.48006791E+00</totfact>
</mgrwt>
</event>
<event>
12    1  0.1397649E-007  0.3373742E+04  0.7818608E-02  0.8144381E-01
          2   -1    0    0  501    0  0.00000000000E+00  0.00000000000E+00  0.23588184047E+04  0.23588184047E+04  0.00000000000E+00 0.  1.
         -2   -1    0    0    0  501 -0.00000000000E+00 -0.00000000000E+00 -0.12063383242E+04  0.12063383242E+04  0.00000000000E+00 0. -1.
         23    2    1    2    0    0 -0.14071577041E+04 -0.39969502422E+03 -0.52598177301E+02  0.14667866510E+04  0.94061653253E+02 0.  0.
        254    2    1    2    0    0  0.14071577041E+04  0.39969502422E+03  0.12050782578E+04  0.20983700778E+04  0.90060782775E+03 0.  0.
        -24    2    4    4    0    0  0.14723150908E+04  0.43826228579E+03  0.12476215194E+04  0.19805994423E+04  0.80181902926E+02 0.  0.
         24    2    4    4    0    0 -0.65157386704E+02 -0.38567261569E+02 -0.42543261524E+02  0.11777063551E+03  0.79542911570E+02 0.  0.
         13    1    3    3    0    0 -0.71748335370E+03 -0.22345710711E+03  0.16060696427E+02  0.75164711636E+03  0.00000000000E+00 0. -1.
        -13    1    3    3    0    0 -0.68967435043E+03 -0.17623791711E+03 -0.68658873729E+02  0.71513953464E+03  0.00000000000E+00 0.  1.
          2    1    6    6  502    0 -0.58814721704E+02 -0.62046151284E+02 -0.32635010382E+02  0.91509236041E+02  0.00000000000E+00 0. -1.
          3    1    5    5  503    0  0.13114943343E+04  0.36412012063E+03  0.10984064210E+04  0.17490275918E+04  0.00000000000E+00 0. -1.
         -4    1    5    5    0  503  0.16082075657E+03  0.74142165154E+02  0.14921509834E+03  0.23157185056E+03  0.00000000000E+00 0.  1.
         -1    1    6    6    0  502 -0.63426650005E+01  0.23478889715E+02 -0.99082511419E+01  0.26261399472E+02  0.00000000000E+00 0.  1.
<mgrwt>
<rscale>  0 0.33737416E+04</rscale>
<asrwt>0</asrwt>
<pdfrwt beam="1">  1        2 0.36289514E+00 0.33737416E+04</pdfrwt>
<pdfrwt beam="2">  1       -2 0.18559051E+00 0.33737416E+04</pdfrwt>
<totfact> 0.57843083E-01</totfact>
</mgrwt>
</event>
<event>
12    1  0.1397649E-007  0.2711891E+04  0.7818608E-02  0.8331157E-01
         -2   -1    0    0    0  501 -0.00000000000E+00  0.00000000000E+00  0.57694401719E+03  0.57694401719E+03  0.00000000000E+00 0.  1.
          2   -1    0    0  501    0  0.00000000000E+00 -0.00000000000E+00 -0.31867712702E+04  0.31867712702E+04  0.00000000000E+00 0. -1.
         23    2    1    2    0    0  0.26717388951E+03  0.25653736173E+03 -0.27508524176E+04  0.27771463721E+04  0.90330746014E+02 0.  0.
        254    2    1    2    0    0 -0.26717388951E+03 -0.25653736173E+03  0.14102516456E+03  0.98656891528E+03  0.90345825712E+03 0.  0.
        -24    2    4    4    0    0 -0.37197215948E+03  0.14868796706E+03 -0.18653067994E+03  0.44904258166E+03  0.79838252796E+02 0.  0.
         24    2    4    4    0    0  0.10479826996E+03 -0.40522532879E+03  0.32755584450E+03  0.53752633362E+03  0.80321127882E+02 0.  0.
         13    1    3    3    0    0  0.21245643519E+03  0.20767951088E+03 -0.18941043895E+04  0.19172636633E+04  0.00000000000E+00 0.  1.
        -13    1    3    3    0    0  0.54717454328E+02  0.48857850841E+02 -0.85674802801E+03  0.85988270880E+03  0.00000000000E+00 0. -1.
          2    1    6    6  502    0  0.26489285237E+02 -0.24170054186E+03  0.21143905282E+03  0.32222244991E+03  0.00000000000E+00 0. -1.
          3    1    5    5  503    0 -0.11549919174E+03  0.67298741745E+02 -0.98089877778E+02  0.16580352245E+03  0.00000000000E+00 0. -1.
         -4    1    5    5    0  503 -0.25647296773E+03  0.81389225319E+02 -0.88440802164E+02  0.28323905921E+03  0.00000000000E+00 0.  1.
         -1    1    6    6    0  502  0.78308984727E+02 -0.16352478693E+03  0.11611679168E+03  0.21530388371E+03  0.00000000000E+00 0.  1.
<mgrwt>
<rscale>  0 0.27118913E+04</rscale>
<asrwt>0</asrwt>
<pdfrwt beam="1">  1        2 0.49027251E+00 0.27118913E+04</pdfrwt>
<pdfrwt beam="2">  1       -2 0.88760617E-01 0.27118913E+04</pdfrwt>
<totfact> 0.12647632E+00</totfact>
</mgrwt>
</event>
<event>
12    1  0.1397649E-007  0.2089430E+04  0.7818608E-02  0.8565914E-01
          1   -1    0    0  501    0  0.00000000000E+00  0.00000000000E+00  0.62833947933E+03  0.62833947933E+03  0.00000000000E+00 0. -1.
         -1   -1    0    0    0  501 -0.00000000000E+00 -0.00000000000E+00 -0.17370059189E+04  0.17370059189E+04  0.00000000000E+00 0.  1.
         23    2    1    2    0    0 -0.77625617161E+03 -0.31812783076E+03 -0.30328186771E+03  0.89742098595E+03  0.98008030662E+02 0.  0.
        254    2    1    2    0    0  0.77625617161E+03  0.31812783076E+03 -0.80538457185E+03  0.14679244123E+04  0.89575599964E+03 0.  0.
        -24    2    4    4    0    0  0.50605817761E+03  0.56907246548E+03 -0.77471414833E+03  0.10892018622E+04  0.78995790962E+02 0.  0.
         24    2    4    4    0    0  0.27019799399E+03 -0.25094463473E+03 -0.30670423523E+02  0.37872255003E+03  0.80684133291E+02 0.  0.
         13    1    3    3    0    0 -0.22995714418E+03 -0.12735638478E+03 -0.13078835081E+03  0.29360778193E+03  0.00000000000E+00 0. -1.
        -13    1    3    3    0    0 -0.54629902743E+03 -0.19077144598E+03 -0.17249351690E+03  0.60381320402E+03  0.00000000000E+00 0.  1.
          2    1    6    6  502    0  0.20914303428E+03 -0.21823916437E+03 -0.50982668282E+02  0.30654261387E+03  0.00000000000E+00 0. -1.
          3    1    5    5  503    0  0.42055900186E+03  0.42386832924E+03 -0.60672003075E+03  0.85125990760E+03  0.00000000000E+00 0. -1.
         -4    1    5    5    0  503  0.85499175756E+02  0.14520413624E+03 -0.16799411758E+03  0.23794195464E+03  0.00000000000E+00 0.  1.
         -1    1    6    6    0  502  0.61054959714E+02 -0.32705470358E+02  0.20312244759E+02  0.72179936160E+02  0.00000000000E+00 0.  1.
<mgrwt>
<rscale>  0 0.20894300E+04</rscale>
<asrwt>0</asrwt>
<pdfrwt beam="1">  1        1 0.96667613E-01 0.20894300E+04</pdfrwt>
<pdfrwt beam="2">  1       -1 0.26723168E+00 0.20894300E+04</pdfrwt>
<totfact> 0.15874112E+00</totfact>
</mgrwt>
</event>
<event>
12    1  0.1397649E-007  0.2035412E+04  0.7818608E-02  0.8590241E-01
          1   -1    0    0  501    0  0.00000000000E+00  0.00000000000E+00  0.20815068300E+04  0.20815068300E+04  0.00000000000E+00 0. -1.
         -1   -1    0    0    0  501 -0.00000000000E+00 -0.00000000000E+00 -0.49758451955E+03  0.49758451955E+03  0.00000000000E+00 0.  1.
         23    2    1    2    0    0  0.25328593279E+03 -0.66001423886E+02 -0.34218836653E+03  0.44043541650E+03  0.91545214060E+02 0.  0.
        254    2    1    2    0    0 -0.25328593279E+03  0.66001423886E+02  0.19261106770E+04  0.21386559331E+04  0.89187269737E+03 0.  0.
        -24    2    4    4    0    0  0.77912802520E+02 -0.22175136043E+03  0.15060043181E+04  0.15261292557E+04  0.76009396675E+02 0.  0.
         24    2    4    4    0    0 -0.33119873531E+03  0.28775278432E+03  0.42010635895E+03  0.61252667740E+03  0.78773793495E+02 0.  0.
         11    1    3    3    0    0  0.38042275369E+01 -0.13229603566E+02 -0.53538812533E+02  0.55280186370E+02  0.00000000000E+00 0. -1.
        -11    1    3    3    0    0  0.24948170525E+03 -0.52771820320E+02 -0.28864955399E+03  0.38515523013E+03  0.00000000000E+00 0.  1.
          2    1    6    6  502    0 -0.23699780263E+03  0.21455624970E+03  0.35054915080E+03  0.47443339877E+03  0.00000000000E+00 0. -1.
          1    1    5    5  503    0  0.64446014231E+02 -0.22249148312E+03  0.13685365284E+04  0.13880014332E+04  0.00000000000E+00 0. -1.
         -2    1    5    5    0  503  0.13466788289E+02  0.74012268954E+00  0.13746778962E+03  0.13812782251E+03  0.00000000000E+00 0.  1.
         -1    1    6    6    0  502 -0.94200932681E+02  0.73196534620E+02  0.69557208144E+02  0.13809327863E+03  0.00000000000E+00 0.  1.
<mgrwt>
<rscale>  0 0.20354121E+04</rscale>
<asrwt>0</asrwt>
<pdfrwt beam="1">  1        1 0.32023182E+00 0.20354121E+04</pdfrwt>
<pdfrwt beam="2">  1       -1 0.76551466E-01 0.20354121E+04</pdfrwt>
<totfact> 0.41547768E+00</totfact>
</mgrwt>
</event>
<event>
12    1  0.1397649E-007  0.1740728E+04  0.7818608E-02  0.8738471E-01
          2   -1    0    0  501    0  0.00000000000E+00  0.00000000000E+00  0.10377073030E+04  0.10377073030E+04  0.00000000000E+00 0. -1.
         -2   -1    0    0    0  501 -0.00000000000E+00 -0.00000000000E+00 -0.73000674306E+03  0.73000674306E+03  0.00000000000E+00 0.  1.
         23    2    1    2    0    0  0.53064314183E+03  0.15490439336E+03  0.38880787824E+03  0.68238277905E+03  0.94324842519E+02 0.  0.
        254    2    1    2    0    0 -0.53064314183E+03 -0.15490439336E+03 -0.81107318322E+02  0.10853312670E+04  0.93047732210E+03 0.  0.
        -24    2    4    4    0    0  0.16417750206E+03  0.10513879683E+03  0.19824401105E+03  0.28920978478E+03  0.79581360329E+02 0.  0.
         24    2    4    4    0    0 -0.69482064389E+03 -0.26004319018E+03 -0.27935132937E+03  0.79612148220E+03  0.73307989089E+02 0.  0.
         11    1    3    3    0    0  0.49244444348E+03  0.15222266250E+03  0.32939199856E+03  0.61169629524E+03  0.00000000000E+00 0. -1.
        -11    1    3    3    0    0  0.38198698349E+02  0.26817308558E+01  0.59415879682E+02  0.70686483816E+02  0.00000000000E+00 0.  1.
          2    1    6    6  502    0 -0.26289146864E+03 -0.75772290625E+02 -0.13330286853E+03  0.30434030142E+03  0.00000000000E+00 0. -1.
          3    1    5    5  503    0  0.16844248662E+03  0.97021256511E+02  0.16578769231E+03  0.25548298267E+03  0.00000000000E+00 0. -1.
         -4    1    5    5    0  503 -0.42649845568E+01  0.81175403141E+01  0.32456318741E+02  0.33726802105E+02  0.00000000000E+00 0.  1.
         -1    1    6    6    0  502 -0.43192917525E+03 -0.18427089956E+03 -0.14604846084E+03  0.49178118078E+03  0.00000000000E+00 0.  1.
<mgrwt>
<rscale>  0 0.17407278E+04</rscale>
<asrwt>0</asrwt>
<pdfrwt beam="1">  1        2 0.15964728E+00 0.17407278E+04</pdfrwt>
<pdfrwt beam="2">  1       -2 0.11230873E+00 0.17407278E+04</pdfrwt>
<totfact> 0.14122295E+01</totfact>
</mgrwt>
</event>
<event>
12    1  0.1397649E-007  0.1209754E+04  0.7818608E-02  0.9104361E-01
          1   -1    0    0  501    0  0.00000000000E+00  0.00000000000E+00  0.10750771891E+04  0.10750771891E+04  0.00000000000E+00 0. -1.
         -1   -1    0    0    0  501 -0.00000000000E+00 -0.00000000000E+00 -0.34032565741E+03  0.34032565741E+03  0.00000000000E+00 0.  1.
         23    2    1    2    0    0 -0.11231650419E+03 -0.60995002169E+02  0.40775399686E+03  0.43677226446E+03  0.90395252322E+02 0.  0.
        254    2    1    2    0    0  0.11231650419E+03  0.60995002169E+02  0.32699753487E+03  0.97863058210E+03  0.91348510716E+03 0.  0.
        -24    2    4    4    0    0  0.26495760754E+03 -0.28630255687E+03  0.42193897229E+03  0.57999916924E+03  0.78707382875E+02 0.  0.
         24    2    4    4    0    0 -0.15264110335E+03  0.34729755904E+03 -0.94941437423E+02  0.39863141285E+03  0.77318987480E+02 0.  0.
         11    1    3    3    0    0 -0.11615671525E+03 -0.75170292673E+02  0.38949899544E+03  0.41334298452E+03  0.00000000000E+00 0. -1.
        -11    1    3    3    0    0  0.38402110623E+01  0.14175290504E+02  0.18255001421E+02  0.23429279946E+02  0.00000000000E+00 0.  1.
          2    1    6    6  502    0  0.68871759126E+01  0.10427023407E+02 -0.10802916779E+02  0.16518444846E+02  0.00000000000E+00 0. -1.
          3    1    5    5  503    0  0.11169747953E+03 -0.15699128678E+03  0.25154961102E+03  0.31685927139E+03  0.00000000000E+00 0. -1.
         -4    1    5    5    0  503  0.15326012801E+03 -0.12931127009E+03  0.17038936127E+03  0.26313989785E+03  0.00000000000E+00 0.  1.
         -1    1    6    6    0  502 -0.15952827926E+03  0.33687053564E+03 -0.84138520644E+02  0.38211296801E+03  0.00000000000E+00 0.  1.
<mgrwt>
<rscale>  0 0.12097543E+04</rscale>
<asrwt>0</asrwt>
<pdfrwt beam="1">  1        1 0.16539649E+00 0.12097543E+04</pdfrwt>
<pdfrwt beam="2">  1       -1 0.52357794E-01 0.12097543E+04</pdfrwt>
<totfact> 0.48117334E+01</totfact>
</mgrwt>
</event>
<event>
12    1  0.1397649E-007  0.1428954E+04  0.7818608E-02  0.8933123E-01
          1   -1    0    0  501    0  0.00000000000E+00  0.00000000000E+00  0.10944619076E+04  0.10944619076E+04  0.00000000000E+00 0. -1.
         -1   -1    0    0    0  501 -0.00000000000E+00 -0.00000000000E+00 -0.46641856033E+03  0.46641856033E+03  0.00000000000E+00 0.  1.
         23    2    1    2    0    0 -0.81377842612E+02  0.26736642765E+03 -0.14933312203E+03  0.32942758928E+03  0.90083268923E+02 0.  0.
        254    2    1    2    0    0  0.81377842612E+02 -0.26736642765E+03  0.77737646930E+03  0.12314528786E+04  0.91326603867E+03 0.  0.
        -24    2    4    4    0    0  0.29930756371E+02  0.14113530382E+03  0.79482232260E+03  0.81165155706E+03  0.78871423327E+02 0.  0.
         24    2    4    4    0    0  0.51447086241E+02 -0.40850173147E+03 -0.17445853301E+02  0.41980132158E+03  0.80052011245E+02 0.  0.
         13    1    3    3    0    0 -0.51566285492E+02  0.83384860278E+02 -0.13867384265E+02  0.99017276621E+02  0.00000000000E+00 0. -1.
        -13    1    3    3    0    0 -0.29811557121E+02  0.18398156737E+03 -0.13546573777E+03  0.23041031266E+03  0.00000000000E+00 0.  1.
          4    1    6    6  502    0  0.17361067567E+02 -0.30141586924E+03  0.16617484288E+02  0.30237240892E+03  0.00000000000E+00 0. -1.
          3    1    5    5  503    0  0.32245761150E+02  0.10994162548E+03  0.73753385086E+03  0.74638001801E+03  0.00000000000E+00 0. -1.
         -4    1    5    5    0  503 -0.23150047790E+01  0.31193678341E+02  0.57288471739E+02  0.65271539048E+02  0.00000000000E+00 0.  1.
         -3    1    6    6    0  502  0.34086018674E+02 -0.10708586223E+03 -0.34063337589E+02  0.11742891265E+03  0.00000000000E+00 0.  1.
<mgrwt>
<rscale>  0 0.14289539E+04</rscale>
<asrwt>0</asrwt>
<pdfrwt beam="1">  1        1 0.16837875E+00 0.14289539E+04</pdfrwt>
<pdfrwt beam="2">  1       -1 0.71756702E-01 0.14289539E+04</pdfrwt>
<totfact> 0.24416640E+01</totfact>
</mgrwt>
</event>
<event>
12    1  0.1397649E-007  0.1670885E+04  0.7818608E-02  0.8778146E-01
         -1   -1    0    0    0  501 -0.00000000000E+00  0.00000000000E+00  0.11911782015E+04  0.11911782015E+04  0.00000000000E+00 0.  1.
          1   -1    0    0  501    0  0.00000000000E+00 -0.00000000000E+00 -0.58594440646E+03  0.58594440646E+03  0.00000000000E+00 0. -1.
         23    2    1    2    0    0  0.90557251947E+02  0.29661002626E+03 -0.31232498397E+03  0.44966590829E+03  0.92056558226E+02 0.  0.
        254    2    1    2    0    0 -0.90557251947E+02 -0.29661002626E+03  0.91755877903E+03  0.13274566997E+04  0.90777147621E+03 0.  0.
        -24    2    4    4    0    0 -0.27821730895E+03  0.99764536890E+02  0.81491254873E+03  0.87013022509E+03  0.75407643738E+02 0.  0.
         24    2    4    4    0    0  0.18766005700E+03 -0.39637456315E+03  0.10264623030E+03  0.45732647460E+03  0.79260106421E+02 0.  0.
         11    1    3    3    0    0  0.50813732692E+02  0.25305366607E+03 -0.28553841546E+03  0.38490307876E+03  0.00000000000E+00 0. -1.
        -11    1    3    3    0    0  0.39743519256E+02  0.43556360191E+02 -0.26786568511E+02  0.64762829528E+02  0.00000000000E+00 0.  1.
          2    1    6    6  502    0  0.10297454098E+03 -0.15459841741E+03  0.72417546971E+02  0.19937083002E+03  0.00000000000E+00 0. -1.
          1    1    5    5  503    0 -0.19186938367E+03  0.48985944664E+02  0.62198284650E+03  0.65274508386E+03  0.00000000000E+00 0. -1.
         -2    1    5    5    0  503 -0.86347925278E+02  0.50778592225E+02  0.19292970222E+03  0.21738514123E+03  0.00000000000E+00 0.  1.
         -1    1    6    6    0  502  0.84685516020E+02 -0.24177614574E+03  0.30228683334E+02  0.25795564458E+03  0.00000000000E+00 0.  1.
<mgrwt>
<rscale>  0 0.16708850E+04</rscale>
<asrwt>0</asrwt>
<pdfrwt beam="1">  1        1 0.90145293E-01 0.16708850E+04</pdfrwt>
<pdfrwt beam="2">  1       -1 0.18325818E+00 0.16708850E+04</pdfrwt>
<totfact> 0.66667541E+00</totfact>
</mgrwt>
</event>
<event>
12    1  0.1397649E-007  0.1794988E+04  0.7818608E-02  0.8708969E-01
          2   -1    0    0  501    0  0.00000000000E+00  0.00000000000E+00  0.41564533235E+03  0.41564533235E+03  0.00000000000E+00 0. -1.
         -2   -1    0    0    0  501 -0.00000000000E+00 -0.00000000000E+00 -0.19379397230E+04  0.19379397230E+04  0.00000000000E+00 0.  1.
         23    2    1    2    0    0 -0.17269865932E+03 -0.41882454936E+03  0.72612380387E+02  0.46786444664E+03  0.91573754801E+02 0.  0.
        254    2    1    2    0    0  0.17269865932E+03  0.41882454936E+03 -0.15949067711E+04  0.18857206087E+04  0.89831830423E+03 0.  0.
        -24    2    4    4    0    0  0.43839067982E+03  0.47801925581E+03 -0.75429889075E+03  0.99866984101E+03  0.87668909423E+02 0.  0.
         24    2    4    4    0    0 -0.26569202050E+03 -0.59194706445E+02 -0.84060788033E+03  0.88705076773E+03  0.78365764377E+02 0.  0.
         13    1    3    3    0    0 -0.80295003612E+02 -0.19865750667E+03 -0.11838749463E+02  0.21459787639E+03  0.00000000000E+00 0.  1.
        -13    1    3    3    0    0 -0.92403655707E+02 -0.22016704269E+03  0.84451129850E+02  0.25326657025E+03  0.00000000000E+00 0. -1.
          4    1    6    6  502    0 -0.29827732210E+02  0.85744835150E+01 -0.46646897499E+02  0.56028103864E+02  0.00000000000E+00 0. -1.
          3    1    5    5  503    0  0.19676610076E+02  0.43865947873E+01 -0.11264263461E+02  0.23093177114E+02  0.00000000000E+00 0. -1.
         -4    1    5    5    0  503  0.41871406975E+03  0.47363266102E+03 -0.74303462729E+03  0.97557666390E+03  0.00000000000E+00 0.  1.
         -3    1    6    6    0  502 -0.23586428829E+03 -0.67769189960E+02 -0.79396098284E+03  0.83102266387E+03  0.00000000000E+00 0.  1.
<mgrwt>
<rscale>  0 0.17949881E+04</rscale>
<asrwt>0</asrwt>
<pdfrwt beam="1">  1        2 0.63945438E-01 0.17949881E+04</pdfrwt>
<pdfrwt beam="2">  1       -2 0.29814456E+00 0.17949881E+04</pdfrwt>
<totfact> 0.23499809E+00</totfact>
</mgrwt>
</event>
<event>
12    1  0.1397649E-007  0.1249174E+04  0.7818608E-02  0.9070871E-01
          2   -1    0    0  501    0  0.00000000000E+00  0.00000000000E+00  0.18053578341E+04  0.18053578341E+04  0.00000000000E+00 0. -1.
         -2   -1    0    0    0  501 -0.00000000000E+00 -0.00000000000E+00 -0.21608392552E+03  0.21608392552E+03  0.00000000000E+00 0.  1.
         23    2    1    2    0    0  0.21103283225E+03 -0.78501492241E+02  0.71821188038E+03  0.75842233866E+03  0.93160066988E+02 0.  0.
        254    2    1    2    0    0 -0.21103283225E+03  0.78501492241E+02  0.87106202821E+03  0.12630194210E+04  0.88643762340E+03 0.  0.
        -24    2    4    4    0    0 -0.27370909090E+03  0.42366561021E+03  0.31392985111E+03  0.59957301555E+03  0.80787584696E+02 0.  0.
         24    2    4    4    0    0  0.62676258654E+02 -0.34516411797E+03  0.55713217710E+03  0.66344640541E+03  0.81843071591E+02 0.  0.
         11    1    3    3    0    0  0.16950408278E+02 -0.42023405452E+02  0.11053646034E+03  0.11946376861E+03  0.00000000000E+00 0.  1.
        -11    1    3    3    0    0  0.19408242397E+03 -0.36478086788E+02  0.60767542004E+03  0.63895857004E+03  0.00000000000E+00 0. -1.
          2    1    6    6  502    0  0.10212187625E+02 -0.21299440346E+03  0.38561699037E+03  0.44064880340E+03  0.00000000000E+00 0. -1.
          1    1    5    5  503    0 -0.19240666256E+03  0.32359830689E+03  0.27028218923E+03  0.46345296400E+03  0.00000000000E+00 0. -1.
         -2    1    5    5    0  503 -0.81302428341E+02  0.10006730332E+03  0.43647661878E+02  0.13612005156E+03  0.00000000000E+00 0.  1.
         -1    1    6    6    0  502  0.52464071030E+02 -0.13216971451E+03  0.17151518673E+03  0.22279760201E+03  0.00000000000E+00 0.  1.
<mgrwt>
<rscale>  0 0.12491738E+04</rscale>
<asrwt>0</asrwt>
<pdfrwt beam="1">  1        2 0.27774735E+00 0.12491738E+04</pdfrwt>
<pdfrwt beam="2">  1       -2 0.33243682E-01 0.12491738E+04</pdfrwt>
<totfact> 0.71247225E+01</totfact>
</mgrwt>
</event>
<event>
12    1  0.1397649E-007  0.3060263E+04  0.7818608E-02  0.8226729E-01
         -2   -1    0    0    0  501 -0.00000000000E+00  0.00000000000E+00  0.25892636870E+04  0.25892636870E+04  0.00000000000E+00 0. -1.
          2   -1    0    0  501    0  0.00000000000E+00 -0.00000000000E+00 -0.90423503335E+03  0.90423503335E+03  0.00000000000E+00 0.  1.
         23    2    1    2    0    0  0.40485323134E+03 -0.12972683865E+04  0.33878092825E+03  0.14036591028E+04  0.93139432753E+02 0.  0.
        254    2    1    2    0    0 -0.40485323134E+03  0.12972683865E+04  0.13462477254E+04  0.20898396176E+04  0.84156715929E+03 0.  0.
        -24    2    4    4    0    0  0.87675514514E+02  0.23146779066E+03  0.70210288417E+03  0.74840103827E+03  0.76754935841E+02 0.  0.
         24    2    4    4    0    0 -0.49252874586E+03  0.10658005958E+04  0.64414484120E+03  0.13414385793E+04  0.77584856862E+02 0.  0.
         11    1    3    3    0    0  0.24621465387E+03 -0.76483479773E+03  0.24675320766E+03  0.84052428227E+03  0.00000000000E+00 0.  1.
        -11    1    3    3    0    0  0.15863857747E+03 -0.53243358874E+03  0.92027720592E+02  0.56313482049E+03  0.00000000000E+00 0. -1.
          2    1    6    6  502    0 -0.19705312073E+03  0.49332583218E+03  0.32139928766E+03  0.62088470040E+03  0.00000000000E+00 0. -1.
          3    1    5    5  503    0 -0.84759942089E+01  0.49114715174E+02  0.18830350465E+03  0.19478785277E+03  0.00000000000E+00 0. -1.
         -4    1    5    5    0  503  0.96151508723E+02  0.18235307548E+03  0.51379937952E+03  0.55361318550E+03  0.00000000000E+00 0.  1.
         -1    1    6    6    0  502 -0.29547562513E+03  0.57247476364E+03  0.32274555354E+03  0.72055387889E+03  0.00000000000E+00 0.  1.
<mgrwt>
<rscale>  0 0.30602633E+04</rscale>
<asrwt>0</asrwt>
<pdfrwt beam="1">  1        2 0.13911308E+00 0.30602633E+04</pdfrwt>
<pdfrwt beam="2">  1       -2 0.39834826E+00 0.30602633E+04</pdfrwt>
<totfact> 0.18865617E-01</totfact>
</mgrwt>
</event>
<event>
12    1  0.1397649E-007  0.2043743E+04  0.7818608E-02  0.8586438E-01
          1   -1    0    0  501    0  0.00000000000E+00  0.00000000000E+00  0.10285956079E+04  0.10285956079E+04  0.00000000000E+00 0. -1.
         -1   -1    0    0    0  501 -0.00000000000E+00 -0.00000000000E+00 -0.10151916072E+04  0.10151916072E+04  0.00000000000E+00 0.  1.
         23    2    1    2    0    0  0.98317635705E+02  0.66061097991E+03 -0.47317022680E+03  0.82462832981E+03  0.10024267817E+03 0.  0.
        254    2    1    2    0    0 -0.98317635705E+02 -0.66061097991E+03  0.48657422748E+03  0.12191588853E+04  0.89639315285E+03 0.  0.
        -24    2    4    4    0    0 -0.38634227707E+03 -0.14417475048E+03 -0.41754775085E+02  0.42200767758E+03  0.79374460409E+02 0.  0.
         24    2    4    4    0    0  0.28802464136E+03 -0.51643622943E+03  0.52832900257E+03  0.79715120772E+03  0.81571685732E+02 0.  0.
         13    1    3    3    0    0  0.25364522564E+02  0.47869450479E+03 -0.33483187217E+03  0.58472572250E+03  0.00000000000E+00 0.  1.
        -13    1    3    3    0    0  0.72953113141E+02  0.18191647511E+03 -0.13833835463E+03  0.23990260731E+03  0.00000000000E+00 0. -1.
          4    1    6    6  502    0  0.23254326971E+03 -0.47000915768E+03  0.45758175333E+03  0.69596410940E+03  0.00000000000E+00 0. -1.
          3    1    5    5  503    0 -0.36593744052E+03 -0.14031703349E+03 -0.57278077602E+02  0.39608062113E+03  0.00000000000E+00 0. -1.
         -4    1    5    5    0  503 -0.20404836549E+02 -0.38577169907E+01  0.15523302517E+02  0.25927056447E+02  0.00000000000E+00 0.  1.
         -3    1    6    6    0  502  0.55481371651E+02 -0.46427071749E+02  0.70747249241E+02  0.10118709832E+03  0.00000000000E+00 0.  1.
<mgrwt>
<rscale>  0 0.20437433E+04</rscale>
<asrwt>0</asrwt>
<pdfrwt beam="1">  1        1 0.15824548E+00 0.20437433E+04</pdfrwt>
<pdfrwt beam="2">  1       -1 0.15618332E+00 0.20437433E+04</pdfrwt>
<totfact> 0.41519225E+00</totfact>
</mgrwt>
</event>
<event>
12    1  0.1397649E-007  0.1933936E+04  0.7818608E-02  0.8638146E-01
         -2   -1    0    0    0  501 -0.00000000000E+00  0.00000000000E+00  0.42217200135E+03  0.42217200135E+03  0.00000000000E+00 0.  1.
          2   -1    0    0  501    0  0.00000000000E+00 -0.00000000000E+00 -0.22148002767E+04  0.22148002767E+04  0.00000000000E+00 0. -1.
         23    2    1    2    0    0 -0.17954259615E+03  0.29706116622E+03  0.20735666935E+03  0.41494558182E+03  0.93285407429E+02 0.  0.
        254    2    1    2    0    0  0.17954259615E+03 -0.29706116622E+03 -0.19999849447E+04  0.22220266962E+04  0.90387055457E+03 0.  0.
        -24    2    4    4    0    0  0.32519217967E+03  0.22168562579E+03 -0.62385783414E+03  0.74200734759E+03  0.80509851908E+02 0.  0.
         24    2    4    4    0    0 -0.14564958352E+03 -0.51874679201E+03 -0.13761271105E+04  0.14800193486E+04  0.80121236439E+02 0.  0.
         13    1    3    3    0    0 -0.41151921308E+02  0.14059640273E+03  0.11643127466E+03  0.18712848743E+03  0.00000000000E+00 0. -1.
        -13    1    3    3    0    0 -0.13839067485E+03  0.15646476348E+03  0.90925394692E+02  0.22781709439E+03  0.00000000000E+00 0.  1.
          4    1    6    6  502    0 -0.15405143289E+03 -0.50653968460E+03 -0.13475647559E+04  0.14478415201E+04  0.00000000000E+00 0. -1.
          1    1    5    5  503    0  0.28160489879E+03  0.15717730287E+03 -0.52547403449E+03  0.61654601166E+03  0.00000000000E+00 0. -1.
         -2    1    5    5    0  503  0.43587280880E+02  0.64508322928E+02 -0.98383799642E+02  0.12546133593E+03  0.00000000000E+00 0.  1.
         -3    1    6    6    0  502  0.84018493702E+01 -0.12207107412E+02 -0.28562354623E+02  0.32177828482E+02  0.00000000000E+00 0.  1.
<mgrwt>
<rscale>  0 0.19339355E+04</rscale>
<asrwt>0</asrwt>
<pdfrwt beam="1">  1        2 0.34073851E+00 0.19339355E+04</pdfrwt>
<pdfrwt beam="2">  1       -2 0.64949538E-01 0.19339355E+04</pdfrwt>
<totfact> 0.10347849E+01</totfact>
</mgrwt>
</event>
<event>
12    1  0.1397649E-007  0.2182638E+04  0.7818608E-02  0.8525690E-01
          2   -1    0    0  501    0  0.00000000000E+00  0.00000000000E+00  0.26124457407E+04  0.26124457407E+04  0.00000000000E+00 0. -1.
         -2   -1    0    0    0  501 -0.00000000000E+00 -0.00000000000E+00 -0.45588570075E+03  0.45588570075E+03  0.00000000000E+00 0.  1.
         23    2    1    2    0    0 -0.71463787718E+03  0.51752980103E+03  0.62635130830E+03  0.10858666982E+04  0.90808228162E+02 0.  0.
        254    2    1    2    0    0  0.71463787718E+03 -0.51752980103E+03  0.15302087317E+04  0.19824647433E+04  0.90004627967E+03 0.  0.
        -24    2    4    4    0    0  0.17845084975E+02 -0.43898353492E+03  0.22769342759E+03  0.50107525950E+03  0.78785326844E+02 0.  0.
         24    2    4    4    0    0  0.69679279221E+03 -0.78546266109E+02  0.13025153041E+04  0.14813894838E+04  0.79239978593E+02 0.  0.
         11    1    3    3    0    0 -0.62029481773E+03  0.48303990392E+03  0.56517621195E+03  0.96825480129E+03  0.00000000000E+00 0. -1.
        -11    1    3    3    0    0 -0.94343059458E+02  0.34489897109E+02  0.61175096353E+02  0.11761189687E+03  0.00000000000E+00 0.  1.
          4    1    6    6  502    0  0.47710686796E+03 -0.28140882699E+02  0.93981561458E+03  0.10543605940E+04  0.00000000000E+00 0. -1.
          3    1    5    5  503    0  0.36402781664E+02 -0.19369980668E+03  0.13159614227E+03  0.23698591157E+03  0.00000000000E+00 0. -1.
         -4    1    5    5    0  503 -0.18557696689E+02 -0.24528372823E+03  0.96097285319E+02  0.26408934793E+03  0.00000000000E+00 0.  1.
         -3    1    6    6    0  502  0.21968592425E+03 -0.50405383410E+02  0.36269968948E+03  0.42702888982E+03  0.00000000000E+00 0.  1.
<mgrwt>
<rscale>  0 0.21826375E+04</rscale>
<asrwt>0</asrwt>
<pdfrwt beam="1">  1        2 0.40191472E+00 0.21826375E+04</pdfrwt>
<pdfrwt beam="2">  1       -2 0.70136263E-01 0.21826375E+04</pdfrwt>
<totfact> 0.50716280E+00</totfact>
</mgrwt>
</event>
<event>
12    1  0.1397649E-007  0.2390597E+04  0.7818608E-02  0.8443032E-01
          1   -1    0    0  501    0  0.00000000000E+00  0.00000000000E+00  0.33811885148E+04  0.33811885148E+04  0.00000000000E+00 0. -1.
         -1   -1    0    0    0  501 -0.00000000000E+00 -0.00000000000E+00 -0.42255509298E+03  0.42255509298E+03  0.00000000000E+00 0.  1.
         23    2    1    2    0    0 -0.22504351767E+03 -0.99813307287E+03  0.12202540711E+04  0.15950704574E+04  0.91189639194E+02 0.  0.
        254    2    1    2    0    0  0.22504351767E+03  0.99813307287E+03  0.17383793507E+04  0.22086731503E+04  0.89964443075E+03 0.  0.
        -24    2    4    4    0    0  0.23209095993E+02  0.10443881507E+03  0.10531721430E+04  0.10615046096E+04  0.78577001705E+02 0.  0.
         24    2    4    4    0    0  0.20183442168E+03  0.89369425780E+03  0.68520720770E+03  0.11471685407E+04  0.84024895004E+02 0.  0.
         13    1    3    3    0    0 -0.21347182547E+03 -0.97544459909E+03  0.11659480873E+04  0.15350887038E+04  0.00000000000E+00 0.  1.
        -13    1    3    3    0    0 -0.11571692203E+02 -0.22688473780E+02  0.54305983749E+02  0.59981753674E+02  0.00000000000E+00 0. -1.
          2    1    6    6  502    0  0.33714297117E+02  0.26116880503E+03  0.23338125350E+03  0.35187015792E+03  0.00000000000E+00 0. -1.
          1    1    5    5  503    0  0.49579880017E+02  0.48994828273E+02  0.47607274166E+03  0.48114853533E+03  0.00000000000E+00 0. -1.
         -2    1    5    5    0  503 -0.26370784025E+02  0.55443986798E+02  0.57709940138E+03  0.58035607431E+03  0.00000000000E+00 0.  1.
         -1    1    6    6    0  502  0.16812012456E+03  0.63252545277E+03  0.45182595420E+03  0.79529838273E+03  0.00000000000E+00 0.  1.
<mgrwt>
<rscale>  0 0.23905969E+04</rscale>
<asrwt>0</asrwt>
<pdfrwt beam="1">  1        1 0.52018283E+00 0.23905969E+04</pdfrwt>
<pdfrwt beam="2">  1       -1 0.65008478E-01 0.23905969E+04</pdfrwt>
<totfact> 0.66645755E-01</totfact>
</mgrwt>
</event>
<event>
12    1  0.1397649E-007  0.1517057E+04  0.7818608E-02  0.8873189E-01
          2   -1    0    0  501    0  0.00000000000E+00  0.00000000000E+00  0.12711038865E+04  0.12711038865E+04  0.00000000000E+00 0. -1.
         -2   -1    0    0    0  501 -0.00000000000E+00 -0.00000000000E+00 -0.45265007974E+03  0.45265007974E+03  0.00000000000E+00 0.  1.
         23    2    1    2    0    0  0.48753400369E+02 -0.16230359654E+03  0.74541796307E+03  0.76980421980E+03  0.90726212643E+02 0.  0.
        254    2    1    2    0    0 -0.48753400369E+02  0.16230359654E+03  0.73035843659E+02  0.95394974640E+03  0.93593083756E+03 0.  0.
        -24    2    4    4    0    0 -0.94622441717E+02  0.15671344246E+03  0.48877074633E+03  0.52818697335E+03  0.81068654971E+02 0.  0.
         24    2    4    4    0    0  0.45869041348E+02  0.55901540788E+01 -0.41573490267E+03  0.42576277306E+03  0.79392763178E+02 0.  0.
         13    1    3    3    0    0  0.55034542729E+02 -0.91841105420E+02  0.58146803800E+03  0.59124332449E+03  0.00000000000E+00 0. -1.
        -13    1    3    3    0    0 -0.62811423598E+01 -0.70462491123E+02  0.16394992507E+03  0.17856089532E+03  0.00000000000E+00 0.  1.
          2    1    6    6  502    0  0.22266202942E+02 -0.29264006725E+02 -0.88555206044E+02  0.95886341053E+02  0.00000000000E+00 0. -1.
          3    1    5    5  503    0 -0.57291422503E+02  0.95968509813E+02  0.39427186448E+03  0.40980796123E+03  0.00000000000E+00 0. -1.
         -4    1    5    5    0  503 -0.37331019214E+02  0.60744932651E+02  0.94498881851E+02  0.11837901212E+03  0.00000000000E+00 0.  1.
         -1    1    6    6    0  502  0.23602838406E+02  0.34854160804E+02 -0.32717969663E+03  0.32987643200E+03  0.00000000000E+00 0.  1.
<mgrwt>
<rscale>  0 0.15170567E+04</rscale>
<asrwt>0</asrwt>
<pdfrwt beam="1">  1        2 0.19555444E+00 0.15170567E+04</pdfrwt>
<pdfrwt beam="2">  1       -2 0.69638474E-01 0.15170567E+04</pdfrwt>
<totfact> 0.31184402E+01</totfact>
</mgrwt>
</event>
<event>
12    1  0.1397649E-007  0.1964536E+04  0.7818608E-02  0.8623383E-01
          2   -1    0    0  501    0  0.00000000000E+00  0.00000000000E+00  0.25388833196E+04  0.25388833196E+04  0.00000000000E+00 0. -1.
         -2   -1    0    0    0  501 -0.00000000000E+00 -0.00000000000E+00 -0.38002928403E+03  0.38002928403E+03  0.00000000000E+00 0.  1.
         23    2    1    2    0    0 -0.87192957074E+02  0.56524306248E+03  0.75829844702E+02  0.58386678963E+03  0.89710262735E+02 0.  0.
        254    2    1    2    0    0  0.87192957074E+02 -0.56524306248E+03  0.20830241909E+04  0.23350458140E+04  0.88676199867E+03 0.  0.
        -24    2    4    4    0    0 -0.34074088371E+03 -0.47001554002E+03  0.14241296162E+04  0.15396499785E+04  0.73197916812E+02 0.  0.
         24    2    4    4    0    0  0.42793384079E+03 -0.95227522463E+02  0.65889457467E+03  0.79539583545E+03  0.79478433490E+02 0.  0.
         13    1    3    3    0    0 -0.12188414367E+02  0.19982005974E+03  0.65670064744E+02  0.21068737770E+03  0.00000000000E+00 0.  1.
        -13    1    3    3    0    0 -0.75004542707E+02  0.36542300274E+03  0.10159779958E+02  0.37317941193E+03  0.00000000000E+00 0. -1.
          4    1    6    6  502    0  0.17014321849E+03 -0.74477614209E+02  0.24699972790E+03  0.30903801611E+03  0.00000000000E+00 0. -1.
          3    1    5    5  503    0 -0.17885072476E+03 -0.18684584638E+03  0.60538764648E+03  0.65832602452E+03  0.00000000000E+00 0. -1.
         -4    1    5    5    0  503 -0.16189015896E+03 -0.28316969364E+03  0.81874196972E+03  0.88132395402E+03  0.00000000000E+00 0.  1.
         -3    1    6    6    0  502  0.25779062229E+03 -0.20749908255E+02  0.41189484677E+03  0.48635781934E+03  0.00000000000E+00 0.  1.
<mgrwt>
<rscale>  0 0.19645356E+04</rscale>
<asrwt>0</asrwt>
<pdfrwt beam="1">  1        2 0.39059742E+00 0.19645356E+04</pdfrwt>
<pdfrwt beam="2">  1       -2 0.58466045E-01 0.19645356E+04</pdfrwt>
<totfact> 0.84287298E+00</totfact>
</mgrwt>
</event>
<event>
12    1  0.1620144E-007  0.2526558E+04  0.7818608E-02  0.8393585E-01
         -1   -1    0    0    0  501 -0.00000000000E+00  0.00000000000E+00  0.83184095718E+03  0.83184095718E+03  0.00000000000E+00 0.  1.
          1   -1    0    0  501    0  0.00000000000E+00 -0.00000000000E+00 -0.19184839190E+04  0.19184839190E+04  0.00000000000E+00 0. -1.
         23    2    1    2    0    0  0.63304069837E+03 -0.60664024915E+03  0.24641996008E+03  0.91535997917E+03  0.91696112549E+02 0.  0.
        254    2    1    2    0    0 -0.63304069837E+03  0.60664024915E+03 -0.13330629219E+04  0.18349648970E+04  0.90624858720E+03 0.  0.
        -24    2    4    4    0    0 -0.61422834860E+03 -0.10663893429E+02 -0.50767061407E+03  0.80113056892E+03  0.81795802014E+02 0.  0.
         24    2    4    4    0    0 -0.18812349774E+02  0.61730414258E+03 -0.82539230778E+03  0.10338343280E+04  0.78247345957E+02 0.  0.
         11    1    3    3    0    0  0.63083846067E+03 -0.60991929611E+03  0.24639274212E+03  0.91140994870E+03  0.00000000000E+00 0.  1.
        -11    1    3    3    0    0  0.22022377049E+01  0.32790469601E+01  0.27217958405E-01  0.39500304673E+01  0.00000000000E+00 0. -1.
          4    1    6    6  502    0  0.13427313151E+02  0.39877157564E+03 -0.48476351433E+03  0.62784928693E+03  0.00000000000E+00 0. -1.
          3    1    5    5  503    0 -0.29618030985E+03  0.11380964287E+02 -0.29304761229E+03  0.41680835567E+03  0.00000000000E+00 0. -1.
         -4    1    5    5    0  503 -0.31804803875E+03 -0.22044857715E+02 -0.21462300178E+03  0.38432221325E+03  0.00000000000E+00 0.  1.
         -3    1    6    6    0  502 -0.32239662925E+02  0.21853256695E+03 -0.34062879345E+03  0.40598504112E+03  0.00000000000E+00 0.  1.
<mgrwt>
<rscale>  0 0.25265577E+04</rscale>
<asrwt>0</asrwt>
<pdfrwt beam="1">  1        1 0.29515137E+00 0.25265577E+04</pdfrwt>
<pdfrwt beam="2">  1       -1 0.12797553E+00 0.25265577E+04</pdfrwt>
<totfact> 0.15827887E+00</totfact>
</mgrwt>
</event>
<event>
12    1  0.1397649E-007  0.1886729E+04  0.7818608E-02  0.8661490E-01
          1   -1    0    0  501    0  0.00000000000E+00  0.00000000000E+00  0.26566327886E+04  0.26566327886E+04  0.00000000000E+00 0. -1.
         -1   -1    0    0    0  501 -0.00000000000E+00 -0.00000000000E+00 -0.33498678572E+03  0.33498678572E+03  0.00000000000E+00 0.  1.
         23    2    1    2    0    0 -0.10025304579E+03  0.14316918579E+03  0.20161484839E+04  0.20258770122E+04  0.93674278751E+02 0.  0.
        254    2    1    2    0    0  0.10025304579E+03 -0.14316918579E+03  0.30549751898E+03  0.96574256212E+03  0.89932300828E+03 0.  0.
        -24    2    4    4    0    0 -0.65978819996E+02  0.27549445231E+03 -0.14048470542E+03  0.32634302977E+03  0.80705778488E+02 0.  0.
         24    2    4    4    0    0  0.16623186579E+03 -0.41866363810E+03  0.44598222440E+03  0.63939953235E+03  0.83781515954E+02 0.  0.
         11    1    3    3    0    0 -0.82395645974E+01  0.67612489078E+02  0.44029760956E+03  0.44553487416E+03  0.00000000000E+00 0.  1.
        -11    1    3    3    0    0 -0.92013481194E+02  0.75556696713E+02  0.15758508743E+04  0.15803421380E+04  0.00000000000E+00 0. -1.
          4    1    6    6  502    0  0.29386026287E+02 -0.18483960952E+03  0.18869386282E+03  0.26577169461E+03  0.00000000000E+00 0. -1.
          1    1    5    5  503    0 -0.19244868511E+02  0.22313590851E+03 -0.99514598949E+02  0.24507785300E+03  0.00000000000E+00 0. -1.
         -2    1    5    5    0  503 -0.46733951484E+02  0.52358543801E+02 -0.40970106473E+02  0.81265176765E+02  0.00000000000E+00 0.  1.
         -3    1    6    6    0  502  0.13684583950E+03 -0.23382402858E+03  0.25728836158E+03  0.37362783774E+03  0.00000000000E+00 0.  1.
<mgrwt>
<rscale>  0 0.18867293E+04</rscale>
<asrwt>0</asrwt>
<pdfrwt beam="1">  1        1 0.40871272E+00 0.18867293E+04</pdfrwt>
<pdfrwt beam="2">  1       -1 0.51536430E-01 0.18867293E+04</pdfrwt>
<totfact> 0.37407218E+00</totfact>
</mgrwt>
</event>
<event>
12    1  0.1397649E-007  0.1664298E+04  0.7818608E-02  0.8781992E-01
          2   -1    0    0  501    0  0.00000000000E+00  0.00000000000E+00  0.22856756810E+04  0.22856756810E+04  0.00000000000E+00 0. -1.
         -2   -1    0    0    0  501 -0.00000000000E+00 -0.00000000000E+00 -0.30296176630E+03  0.30296176630E+03  0.00000000000E+00 0.  1.
         23    2    1    2    0    0 -0.60920613850E+02  0.21794847502E+03 -0.11773028685E+03  0.27082848271E+03  0.90965859795E+02 0.  0.
        254    2    1    2    0    0  0.60920613850E+02 -0.21794847502E+03  0.21004442015E+04  0.23178089646E+04  0.95349865945E+03 0.  0.
        -24    2    4    4    0    0 -0.14156524266E+03  0.23677417231E+03  0.19635303418E+03  0.34811683949E+03  0.80796616930E+02 0.  0.
         24    2    4    4    0    0  0.20248585651E+03 -0.45472264733E+03  0.19040911673E+04  0.19696921251E+04  0.79691191307E+02 0.  0.
         13    1    3    3    0    0 -0.32843119760E+02  0.17271201577E+03 -0.46414762710E+02  0.18183080351E+03  0.00000000000E+00 0. -1.
        -13    1    3    3    0    0 -0.28077494090E+02  0.45236459255E+02 -0.71315524138E+02  0.88997679202E+02  0.00000000000E+00 0.  1.
          2    1    6    6  502    0  0.20281926098E+03 -0.43928370840E+03  0.17779824820E+04  0.18426414560E+04  0.00000000000E+00 0. -1.
          1    1    5    5  503    0 -0.14627107349E+03  0.18677164949E+03  0.16177505277E+03  0.28714115639E+03  0.00000000000E+00 0. -1.
         -2    1    5    5    0  503  0.47058308332E+01  0.50002522815E+02  0.34577981414E+02  0.60975683107E+02  0.00000000000E+00 0.  1.
         -1    1    6    6    0  502 -0.33340447030E+00 -0.15438938929E+02  0.12610868532E+03  0.12705066906E+03  0.00000000000E+00 0.  1.
<mgrwt>
<rscale>  0 0.16642985E+04</rscale>
<asrwt>0</asrwt>
<pdfrwt beam="1">  1        2 0.35164240E+00 0.16642985E+04</pdfrwt>
<pdfrwt beam="2">  1       -2 0.46609504E-01 0.16642985E+04</pdfrwt>
<totfact> 0.19251561E+01</totfact>
</mgrwt>
</event>
<event>
12    1  0.1397649E-007  0.1843929E+04  0.7818608E-02  0.8683281E-01
         -1   -1    0    0    0  501 -0.00000000000E+00  0.00000000000E+00  0.85486223622E+03  0.85486223622E+03  0.00000000000E+00 0.  1.
          1   -1    0    0  501    0  0.00000000000E+00 -0.00000000000E+00 -0.99433395415E+03  0.99433395415E+03  0.00000000000E+00 0. -1.
         23    2    1    2    0    0 -0.33977530135E+03  0.58966160388E+03  0.10411225978E+03  0.69454899186E+03  0.91710833378E+02 0.  0.
        254    2    1    2    0    0  0.33977530135E+03 -0.58966160388E+03 -0.24358397771E+03  0.11546471985E+04  0.90040487356E+03 0.  0.
        -24    2    4    4    0    0 -0.47912890520E+02 -0.79783654209E+02  0.29158027700E+03  0.31612021802E+03  0.79068690058E+02 0.  0.
         24    2    4    4    0    0  0.38768819187E+03 -0.50987794967E+03 -0.53516425472E+03  0.83852698049E+03  0.80306038460E+02 0.  0.
         13    1    3    3    0    0 -0.22349456533E+03  0.42606121981E+03  0.11083110608E+03  0.49372210588E+03  0.00000000000E+00 0.  1.
        -13    1    3    3    0    0 -0.11628073602E+03  0.16360038406E+03 -0.67188463004E+01  0.20082688597E+03  0.00000000000E+00 0. -1.
          2    1    6    6  502    0  0.62785277234E+02 -0.12341923871E+03 -0.87843374752E+02  0.16398401754E+03  0.00000000000E+00 0. -1.
          1    1    5    5  503    0 -0.26960416168E+02  0.88804434538E+01  0.10050140059E+03  0.10443303039E+03  0.00000000000E+00 0. -1.
         -2    1    5    5    0  503 -0.20952474351E+02 -0.88664097663E+02  0.19107887641E+03  0.21168718763E+03  0.00000000000E+00 0.  1.
         -1    1    6    6    0  502  0.32490291463E+03 -0.38645871096E+03 -0.44732087996E+03  0.67454296295E+03  0.00000000000E+00 0.  1.
<mgrwt>
<rscale>  0 0.18439290E+04</rscale>
<asrwt>0</asrwt>
<pdfrwt beam="1">  1        1 0.15297445E+00 0.18439290E+04</pdfrwt>
<pdfrwt beam="2">  1       -1 0.13151727E+00 0.18439290E+04</pdfrwt>
<totfact> 0.70776593E+00</totfact>
</mgrwt>
</event>
<event>
12    1  0.1397649E-007  0.1777159E+04  0.7818608E-02  0.8718541E-01
          2   -1    0    0  501    0  0.00000000000E+00  0.00000000000E+00  0.10301694795E+04  0.10301694795E+04  0.00000000000E+00 0. -1.
         -2   -1    0    0    0  501 -0.00000000000E+00 -0.00000000000E+00 -0.76644986430E+03  0.76644986430E+03  0.00000000000E+00 0.  1.
         23    2    1    2    0    0 -0.60215838719E+03  0.13153543245E+03 -0.13377721610E+03  0.63878334023E+03  0.10124978495E+03 0.  0.
        254    2    1    2    0    0  0.60215838719E+03 -0.13153543245E+03  0.39749683131E+03  0.11578360036E+04  0.89592644064E+03 0.  0.
        -24    2    4    4    0    0 -0.22667532647E+03 -0.11530018218E+02  0.13663160289E+03  0.27682980670E+03  0.80323732608E+02 0.  0.
         24    2    4    4    0    0  0.82883371366E+03 -0.12000541423E+03  0.26086522841E+03  0.88100619688E+03  0.82186539132E+02 0.  0.
         11    1    3    3    0    0 -0.58963412836E+03  0.11016653187E+03 -0.12924039541E+03  0.61360259931E+03  0.00000000000E+00 0.  1.
        -11    1    3    3    0    0 -0.12524258826E+02  0.21368900579E+02 -0.45368206940E+01  0.25180740916E+02  0.00000000000E+00 0. -1.
          2    1    6    6  502    0  0.47483923609E+03 -0.85851088841E+02  0.11136112525E+03  0.49522117261E+03  0.00000000000E+00 0. -1.
          1    1    5    5  503    0 -0.15072339375E+03  0.17661201206E+02  0.12073357102E+03  0.19392280583E+03  0.00000000000E+00 0. -1.
         -2    1    5    5    0  503 -0.75951932722E+02 -0.29191219424E+02  0.15898031871E+02  0.82907000869E+02  0.00000000000E+00 0.  1.
         -1    1    6    6    0  502  0.35399447757E+03 -0.34154325387E+02  0.14950410316E+03  0.38578502427E+03  0.00000000000E+00 0.  1.
<mgrwt>
<rscale>  0 0.17771587E+04</rscale>
<asrwt>0</asrwt>
<pdfrwt beam="1">  1        2 0.15848761E+00 0.17771587E+04</pdfrwt>
<pdfrwt beam="2">  1       -2 0.11791536E+00 0.17771587E+04</pdfrwt>
<totfact> 0.12638701E+01</totfact>
</mgrwt>
</event>
<event>
12    1  0.1397649E-007  0.1023649E+04  0.7818608E-02  0.9282981E-01
          1   -1    0    0  501    0  0.00000000000E+00  0.00000000000E+00  0.13652580623E+04  0.13652580623E+04  0.00000000000E+00 0. -1.
         -1   -1    0    0    0  501 -0.00000000000E+00 -0.00000000000E+00 -0.19187888069E+03  0.19187888069E+03  0.00000000000E+00 0.  1.
         23    2    1    2    0    0 -0.39140130055E+02  0.93065236380E+02  0.25518714198E+03  0.28931146977E+03  0.91583629015E+02 0.  0.
        254    2    1    2    0    0  0.39140130055E+02 -0.93065236380E+02  0.91819203962E+03  0.12678254732E+04  0.86839606224E+03 0.  0.
        -24    2    4    4    0    0  0.13970609227E+03  0.26168171082E+03  0.82377754546E+03  0.87931230484E+03  0.81151555979E+02 0.  0.
         24    2    4    4    0    0 -0.10056596222E+03 -0.35474694720E+03  0.94414494164E+02  0.38851316839E+03  0.77906841808E+02 0.  0.
         13    1    3    3    0    0 -0.25595953358E+02  0.10403313598E+03  0.16009573250E+03  0.19263615906E+03  0.00000000000E+00 0.  1.
        -13    1    3    3    0    0 -0.13544176697E+02 -0.10967899604E+02  0.95091409485E+02  0.96675310716E+02  0.00000000000E+00 0. -1.
          4    1    6    6  502    0 -0.11321102311E+03 -0.31037763174E+03  0.88278298398E+02  0.34197085842E+03  0.00000000000E+00 0. -1.
          1    1    5    5  503    0  0.12661259576E+03  0.18663237710E+03  0.68259355551E+03  0.71888549548E+03  0.00000000000E+00 0. -1.
         -2    1    5    5    0  503  0.13093496515E+02  0.75049333715E+02  0.14118398995E+03  0.16042680936E+03  0.00000000000E+00 0.  1.
         -3    1    6    6    0  502  0.12645060891E+02 -0.44369315453E+02  0.61361957654E+01  0.46542309968E+02  0.00000000000E+00 0.  1.
<mgrwt>
<rscale>  0 0.10236487E+04</rscale>
<asrwt>0</asrwt>
<pdfrwt beam="1">  1        1 0.21003970E+00 0.10236487E+04</pdfrwt>
<pdfrwt beam="2">  1       -1 0.29519829E-01 0.10236487E+04</pdfrwt>
<totfact> 0.85375404E+01</totfact>
</mgrwt>
</event>
<event>
12    1  0.1397649E-007  0.2911197E+04  0.7818608E-02  0.8269554E-01
         -1   -1    0    0    0  501 -0.00000000000E+00  0.00000000000E+00  0.12320730724E+04  0.12320730724E+04  0.00000000000E+00 0.  1.
          1   -1    0    0  501    0  0.00000000000E+00 -0.00000000000E+00 -0.17196759772E+04  0.17196759772E+04  0.00000000000E+00 0. -1.
         23    2    1    2    0    0 -0.47873955601E+03 -0.69959838251E+03  0.82641270353E+03  0.11874420780E+04  0.91821961963E+02 0.  0.
        254    2    1    2    0    0  0.47873955601E+03  0.69959838251E+03 -0.13140156083E+04  0.17643069716E+04  0.81701445032E+03 0.  0.
        -24    2    4    4    0    0 -0.17122933941E+03  0.44272938212E+02 -0.47981438798E+03  0.51770779161E+03  0.80746088782E+02 0.  0.
         24    2    4    4    0    0  0.64996889542E+03  0.65532544430E+03 -0.83420122029E+03  0.12465991800E+04  0.78783479924E+02 0.  0.
         11    1    3    3    0    0 -0.43880455224E+03 -0.67102953496E+03  0.79534133588E+03  0.11293351639E+04  0.00000000000E+00 0.  1.
        -11    1    3    3    0    0 -0.39935003772E+02 -0.28568847559E+02  0.31071367650E+02  0.58106914088E+02  0.00000000000E+00 0. -1.
          2    1    6    6  502    0  0.50135103432E+03  0.51262096775E+03 -0.60267488039E+03  0.93666970040E+03  0.00000000000E+00 0. -1.
          3    1    5    5  503    0 -0.13736522972E+03  0.36959554848E+01 -0.29409674040E+03  0.32461632604E+03  0.00000000000E+00 0. -1.
         -4    1    5    5    0  503 -0.33864109690E+02  0.40576982728E+02 -0.18571764758E+03  0.19309146557E+03  0.00000000000E+00 0.  1.
         -1    1    6    6    0  502  0.14861786109E+03  0.14270447655E+03 -0.23152633989E+03  0.30992947960E+03  0.00000000000E+00 0.  1.
<mgrwt>
<rscale>  0 0.29111966E+04</rscale>
<asrwt>0</asrwt>
<pdfrwt beam="1">  1        1 0.26456554E+00 0.29111966E+04</pdfrwt>
<pdfrwt beam="2">  1       -1 0.18954970E+00 0.29111966E+04</pdfrwt>
<totfact> 0.70534230E-01</totfact>
</mgrwt>
</event>
<event>
12    1  0.1397649E-007  0.1597444E+04  0.7818608E-02  0.8822120E-01
         -1   -1    0    0    0  501 -0.00000000000E+00  0.00000000000E+00  0.59581837239E+03  0.59581837239E+03  0.00000000000E+00 0.  1.
          1   -1    0    0  501    0  0.00000000000E+00 -0.00000000000E+00 -0.10707232780E+04  0.10707232780E+04  0.00000000000E+00 0. -1.
         23    2    1    2    0    0 -0.41292072215E+03 -0.16733248894E+03  0.15434552720E+03  0.47956703914E+03  0.87511819920E+02 0.  0.
        254    2    1    2    0    0  0.41292072215E+03  0.16733248894E+03 -0.62925043277E+03  0.11869746112E+04  0.90246824647E+03 0.  0.
        -24    2    4    4    0    0  0.39113609273E+03  0.46561312265E+03 -0.17548050391E+03  0.63767334427E+03  0.77787297911E+02 0.  0.
         24    2    4    4    0    0  0.21784629416E+02 -0.29828063371E+03 -0.45376992886E+03  0.54930126694E+03  0.79867559123E+02 0.  0.
         11    1    3    3    0    0 -0.20466459177E+03 -0.11734323853E+03  0.11240568153E+03  0.26132751098E+03  0.00000000000E+00 0.  1.
        -11    1    3    3    0    0 -0.20825613038E+03 -0.49989250406E+02  0.41939845668E+02  0.21823952816E+03  0.00000000000E+00 0. -1.
          2    1    6    6  502    0 -0.28480415292E+02 -0.15578873560E+03 -0.22569182128E+03  0.27571373268E+03  0.00000000000E+00 0. -1.
          3    1    5    5  503    0  0.31923159252E+03  0.34158568911E+03 -0.11130835578E+03  0.48060289505E+03  0.00000000000E+00 0. -1.
         -4    1    5    5    0  503  0.71904500219E+02  0.12402743354E+03 -0.64172148131E+02  0.15707044922E+03  0.00000000000E+00 0.  1.
         -3    1    6    6    0  502  0.50265044707E+02 -0.14249189811E+03 -0.22807810758E+03  0.27358753426E+03  0.00000000000E+00 0.  1.
<mgrwt>
<rscale>  0 0.15974437E+04</rscale>
<asrwt>0</asrwt>
<pdfrwt beam="1">  1        1 0.16472666E+00 0.15974437E+04</pdfrwt>
<pdfrwt beam="2">  1       -1 0.91664365E-01 0.15974437E+04</pdfrwt>
<totfact> 0.14856046E+01</totfact>
</mgrwt>
</event>
<event>
12    1  0.1397649E-007  0.1759366E+04  0.7818608E-02  0.8728212E-01
          2   -1    0    0  501    0  0.00000000000E+00  0.00000000000E+00  0.84071795115E+03  0.84071795115E+03  0.00000000000E+00 0. -1.
         -2   -1    0    0    0  501 -0.00000000000E+00 -0.00000000000E+00 -0.92045426542E+03  0.92045426542E+03  0.00000000000E+00 0.  1.
         23    2    1    2    0    0 -0.32680795633E+03 -0.43239590093E+03  0.32322240784E+03  0.63761537702E+03  0.91164623695E+02 0.  0.
        254    2    1    2    0    0  0.32680795633E+03  0.43239590093E+03 -0.40295872211E+03  0.11235568396E+04  0.89790566571E+03 0.  0.
        -24    2    4    4    0    0 -0.25240351154E+03  0.34042626395E+03 -0.29463919499E+03  0.52241380954E+03  0.80662006885E+02 0.  0.
         24    2    4    4    0    0  0.57921146787E+03  0.91969636983E+02 -0.10831952711E+03  0.60114303001E+03  0.75468430020E+02 0.  0.
         13    1    3    3    0    0 -0.43748913188E+02 -0.10020234978E+03  0.96366473609E+02  0.14574284045E+03  0.00000000000E+00 0. -1.
        -13    1    3    3    0    0 -0.28305904315E+03 -0.33219355115E+03  0.22685593423E+03  0.49187253657E+03  0.00000000000E+00 0.  1.
          2    1    6    6  502    0  0.25980139632E+02 -0.93761747632E+01 -0.13594651823E+02  0.30784653103E+02  0.00000000000E+00 0. -1.
          1    1    5    5  503    0 -0.19675616492E+02  0.76753197200E+02 -0.63858980555E+02  0.10176518345E+03  0.00000000000E+00 0. -1.
         -4    1    5    5    0  503 -0.23272789505E+03  0.26367306675E+03 -0.23078021444E+03  0.42064862610E+03  0.00000000000E+00 0.  1.
         -1    1    6    6    0  502  0.55323132824E+03  0.10134581175E+03 -0.94724875289E+02  0.57035837690E+03  0.00000000000E+00 0.  1.
<mgrwt>
<rscale>  0 0.17593663E+04</rscale>
<asrwt>0</asrwt>
<pdfrwt beam="1">  1        2 0.12934122E+00 0.17593663E+04</pdfrwt>
<pdfrwt beam="2">  1       -2 0.14160835E+00 0.17593663E+04</pdfrwt>
<totfact> 0.10635364E+01</totfact>
</mgrwt>
</event>
<event>
12    1  0.1397649E-007  0.1814030E+04  0.7818608E-02  0.8698874E-01
         -2   -1    0    0    0  501 -0.00000000000E+00  0.00000000000E+00  0.51715120551E+03  0.51715120551E+03  0.00000000000E+00 0. -1.
          2   -1    0    0  501    0  0.00000000000E+00 -0.00000000000E+00 -0.15907853355E+04  0.15907853355E+04  0.00000000000E+00 0.  1.
         23    2    1    2    0    0  0.62826384237E+03 -0.23855438160E+02 -0.10387964445E+03  0.64373304911E+03  0.91196054895E+02 0.  0.
        254    2    1    2    0    0 -0.62826384237E+03  0.23855438160E+02 -0.96975448550E+03  0.14642034919E+04  0.89899030353E+03 0.  0.
        -24    2    4    4    0    0 -0.25379537457E+03  0.42194972624E+03 -0.25325574748E+03  0.55952299565E+03  0.80460210072E+02 0.  0.
         24    2    4    4    0    0 -0.37446846781E+03 -0.39809428808E+03 -0.71649873802E+03  0.90468049621E+03  0.79816433452E+02 0.  0.
         13    1    3    3    0    0  0.49417582857E+03 -0.43158264655E+02 -0.11006843564E+03  0.50812148732E+03  0.00000000000E+00 0. -1.
        -13    1    3    3    0    0  0.13408801380E+03  0.19302826495E+02  0.61887911902E+01  0.13561156179E+03  0.00000000000E+00 0.  1.
          4    1    6    6  502    0 -0.11750761202E+03 -0.10634892094E+03 -0.26587809762E+03  0.30953076529E+03  0.00000000000E+00 0. -1.
          1    1    5    5  503    0 -0.14257980752E+01 -0.36097248656E+01 -0.37919558839E+01  0.54260430502E+01  0.00000000000E+00 0. -1.
         -2    1    5    5    0  503 -0.25236957649E+03  0.42555945110E+03 -0.24946379160E+03  0.55409695260E+03  0.00000000000E+00 0.  1.
         -3    1    6    6    0  502 -0.25696085578E+03 -0.29174536714E+03 -0.45062064040E+03  0.59514973091E+03  0.00000000000E+00 0.  1.
<mgrwt>
<rscale>  0 0.18140304E+04</rscale>
<asrwt>0</asrwt>
<pdfrwt beam="1">  1        2 0.24473620E+00 0.18140304E+04</pdfrwt>
<pdfrwt beam="2">  1       -2 0.79561726E-01 0.18140304E+04</pdfrwt>
<totfact> 0.14892869E+01</totfact>
</mgrwt>
</event>
<event>
12    1  0.1397649E-007  0.1774466E+04  0.7818608E-02  0.8719997E-01
          1   -1    0    0  501    0  0.00000000000E+00  0.00000000000E+00  0.33835743363E+03  0.33835743363E+03  0.00000000000E+00 0. -1.
         -1   -1    0    0    0  501 -0.00000000000E+00 -0.00000000000E+00 -0.23264821798E+04  0.23264821798E+04  0.00000000000E+00 0.  1.
         23    2    1    2    0    0 -0.91799690332E+02  0.47235501924E+03 -0.14541628885E+04  0.15347798166E+04  0.97020264671E+02 0.  0.
        254    2    1    2    0    0  0.91799690332E+02 -0.47235501924E+03 -0.53396185763E+03  0.11300597968E+04  0.87199394011E+03 0.  0.
        -24    2    4    4    0    0 -0.20070560460E+02  0.65608392068E+02 -0.56436748625E+03  0.57422643906E+03  0.80734473862E+02 0.  0.
         24    2    4    4    0    0  0.11187025079E+03 -0.53796341131E+03  0.30405628629E+02  0.55583335774E+03  0.78144957605E+02 0.  0.
         13    1    3    3    0    0 -0.52952583043E+02  0.83137552429E+02 -0.33699319787E+03  0.35111286517E+03  0.00000000000E+00 0. -1.
        -13    1    3    3    0    0 -0.38847107288E+02  0.38921746682E+03 -0.11171696907E+04  0.11836669514E+04  0.00000000000E+00 0.  1.
          4    1    6    6  502    0  0.10820517234E+03 -0.35964968626E+03  0.44328809830E+01  0.37560072761E+03  0.00000000000E+00 0. -1.
          1    1    5    5  503    0 -0.49493201996E+02  0.36438340435E+02 -0.26673838614E+03  0.27372741247E+03  0.00000000000E+00 0. -1.
         -2    1    5    5    0  503  0.29422641536E+02  0.29170051633E+02 -0.29762910011E+03  0.30049902659E+03  0.00000000000E+00 0.  1.
         -3    1    6    6    0  502  0.36650784501E+01 -0.17831372505E+03  0.25972747646E+02  0.18023263013E+03  0.00000000000E+00 0.  1.
<mgrwt>
<rscale>  0 0.17744662E+04</rscale>
<asrwt>0</asrwt>
<pdfrwt beam="1">  1        1 0.52054990E-01 0.17744662E+04</pdfrwt>
<pdfrwt beam="2">  1       -1 0.35792034E+00 0.17744662E+04</pdfrwt>
<totfact> 0.97742270E-01</totfact>
</mgrwt>
</event>
<event>
12    1  0.1397649E-007  0.1178834E+04  0.7818608E-02  0.9131587E-01
          2   -1    0    0  501    0  0.00000000000E+00  0.00000000000E+00  0.21058908536E+04  0.21058908536E+04  0.00000000000E+00 0. -1.
         -2   -1    0    0    0  501 -0.00000000000E+00 -0.00000000000E+00 -0.16497181920E+03  0.16497181920E+03  0.00000000000E+00 0.  1.
         23    2    1    2    0    0 -0.21847582340E+02  0.17683995559E+03  0.12126958675E+03  0.23533479927E+03  0.94479989035E+02 0.  0.
        254    2    1    2    0    0  0.21847582340E+02 -0.17683995559E+03  0.18196494476E+04  0.20355278735E+04  0.89470661383E+03 0.  0.
        -24    2    4    4    0    0 -0.33388589205E+03 -0.53365056948E+02  0.27389780786E+03  0.44238589941E+03  0.79734914783E+02 0.  0.
         24    2    4    4    0    0  0.35573347439E+03 -0.12347489864E+03  0.15457516398E+04  0.15931419741E+04  0.83431782770E+02 0.  0.
         13    1    3    3    0    0 -0.33501452018E+02  0.16247275346E+03  0.68607748673E+02  0.17951814973E+03  0.00000000000E+00 0.  1.
        -13    1    3    3    0    0  0.11653869677E+02  0.14367202126E+02  0.52661838081E+02  0.55816649536E+02  0.00000000000E+00 0. -1.
          4    1    6    6  502    0  0.33628752280E+03 -0.93760320744E+02  0.14339279899E+04  0.14758149531E+04  0.00000000000E+00 0. -1.
          3    1    5    5  503    0 -0.17219853043E+03 -0.41696306886E-01  0.10051337568E+03  0.19938724711E+03  0.00000000000E+00 0. -1.
         -4    1    5    5    0  503 -0.16168736162E+03 -0.53323360641E+02  0.17338443217E+03  0.24299865230E+03  0.00000000000E+00 0.  1.
         -3    1    6    6    0  502  0.19445951591E+02 -0.29714577894E+02  0.11182364993E+03  0.11732702099E+03  0.00000000000E+00 0.  1.
<mgrwt>
<rscale>  0 0.11788344E+04</rscale>
<asrwt>0</asrwt>
<pdfrwt beam="1">  1        2 0.32398319E+00 0.11788344E+04</pdfrwt>
<pdfrwt beam="2">  1       -2 0.25380281E-01 0.11788344E+04</pdfrwt>
<totfact> 0.80613630E+01</totfact>
</mgrwt>
</event>
<event>
12    1  0.1397649E-007  0.1364159E+04  0.7818608E-02  0.8980179E-01
          1   -1    0    0  501    0  0.00000000000E+00  0.00000000000E+00  0.21864671741E+03  0.21864671741E+03  0.00000000000E+00 0. -1.
         -1   -1    0    0    0  501 -0.00000000000E+00 -0.00000000000E+00 -0.21277816669E+04  0.21277816669E+04  0.00000000000E+00 0.  1.
         23    2    1    2    0    0 -0.27902723326E+03  0.86495580842E+02 -0.13587483251E+03  0.33517024471E+03  0.92409092772E+02 0.  0.
        254    2    1    2    0    0  0.27902723326E+03 -0.86495580842E+02 -0.17732601169E+04  0.20112581396E+04  0.90297850430E+03 0.  0.
        -24    2    4    4    0    0 -0.23941582747E+03  0.12469357823E+03 -0.21739982952E+03  0.35584583297E+03  0.80592456640E+02 0.  0.
         24    2    4    4    0    0  0.51844306073E+03 -0.21118915907E+03 -0.15558602874E+04  0.16554123066E+04  0.79401528505E+02 0.  0.
         11    1    3    3    0    0 -0.10518528070E+03  0.76459369891E+02 -0.78176756988E+02  0.15172865205E+03  0.00000000000E+00 0.  1.
        -11    1    3    3    0    0 -0.17384195256E+03  0.10036210952E+02 -0.57698075523E+02  0.18344159267E+03  0.00000000000E+00 0. -1.
          2    1    6    6  502    0  0.14989792099E+03 -0.32998648340E+02 -0.49764419545E+03  0.52077638462E+03  0.00000000000E+00 0. -1.
          3    1    5    5  503    0 -0.96270141465E+02  0.87853456687E+02 -0.73843864436E+02  0.14979681674E+03  0.00000000000E+00 0. -1.
         -4    1    5    5    0  503 -0.14314568601E+03  0.36840121545E+02 -0.14355596508E+03  0.20604901623E+03  0.00000000000E+00 0.  1.
         -1    1    6    6    0  502  0.36854513974E+03 -0.17819051073E+03 -0.10582160920E+04  0.11346359220E+04  0.00000000000E+00 0.  1.
<mgrwt>
<rscale>  0 0.13641590E+04</rscale>
<asrwt>0</asrwt>
<pdfrwt beam="1">  1        1 0.33637957E-01 0.13641590E+04</pdfrwt>
<pdfrwt beam="2">  1       -1 0.32735102E+00 0.13641590E+04</pdfrwt>
<totfact> 0.28535416E+00</totfact>
</mgrwt>
</event>
<event>
12    1  0.1397649E-007  0.1566427E+04  0.7818608E-02  0.8841443E-01
         -2   -1    0    0    0  501 -0.00000000000E+00  0.00000000000E+00  0.54162667347E+03  0.54162667347E+03  0.00000000000E+00 0.  1.
          2   -1    0    0  501    0  0.00000000000E+00 -0.00000000000E+00 -0.11325577808E+04  0.11325577808E+04  0.00000000000E+00 0. -1.
         23    2    1    2    0    0  0.40956461065E+03 -0.29141179333E+03 -0.32474104913E+03  0.60506910213E+03  0.89374860952E+02 0.  0.
        254    2    1    2    0    0 -0.40956461065E+03  0.29141179333E+03 -0.26619005821E+03  0.10691153521E+04  0.90525492847E+03 0.  0.
        -24    2    4    4    0    0 -0.20759171845E+03  0.58681601271E+03 -0.23862161079E+02  0.62910143821E+03  0.88044661922E+02 0.  0.
         24    2    4    4    0    0 -0.20197289220E+03 -0.29540421938E+03 -0.24232789713E+03  0.44001391393E+03  0.82660345462E+02 0.  0.
         13    1    3    3    0    0  0.75279725195E+02 -0.45249123561E+02 -0.19990618648E+02  0.90078549291E+02  0.00000000000E+00 0.  1.
        -13    1    3    3    0    0  0.33428488546E+03 -0.24616266976E+03 -0.30475043048E+03  0.51499055283E+03  0.00000000000E+00 0. -1.
          2    1    6    6  502    0 -0.64987278089E+02 -0.10318332047E+03 -0.37734439535E+02  0.12764807818E+03  0.00000000000E+00 0. -1.
          1    1    5    5  503    0 -0.76653999883E+02  0.29181769852E+03  0.24656429479E+02  0.30272321414E+03  0.00000000000E+00 0. -1.
         -2    1    5    5    0  503 -0.13093771857E+03  0.29499831419E+03 -0.48518590558E+02  0.32637822407E+03  0.00000000000E+00 0.  1.
         -1    1    6    6    0  502 -0.13698561411E+03 -0.19222089892E+03 -0.20459345759E+03  0.31236583575E+03  0.00000000000E+00 0.  1.
<mgrwt>
<rscale>  0 0.15664271E+04</rscale>
<asrwt>0</asrwt>
<pdfrwt beam="1">  1        2 0.17423966E+00 0.15664271E+04</pdfrwt>
<pdfrwt beam="2">  1       -2 0.83327181E-01 0.15664271E+04</pdfrwt>
<totfact> 0.25219419E+01</totfact>
</mgrwt>
</event>
<event>
12    1  0.1397649E-007  0.1631173E+04  0.7818608E-02  0.8801623E-01
         -1   -1    0    0    0  501 -0.00000000000E+00  0.00000000000E+00  0.77936148475E+03  0.77936148475E+03  0.00000000000E+00 0.  1.
          1   -1    0    0  501    0  0.00000000000E+00 -0.00000000000E+00 -0.85349527759E+03  0.85349527759E+03  0.00000000000E+00 0. -1.
         23    2    1    2    0    0 -0.23113232926E+03 -0.35172568941E+03 -0.40147777982E+03  0.58846002641E+03  0.89261866337E+02 0.  0.
        254    2    1    2    0    0  0.23113232926E+03  0.35172568941E+03  0.32734398697E+03  0.10443967359E+04  0.89804083537E+03 0.  0.
        -24    2    4    4    0    0 -0.33838682508E+03  0.14301458110E+03  0.81333486543E+02  0.38489829896E+03  0.81072502783E+02 0.  0.
         24    2    4    4    0    0  0.56951915434E+03  0.20871110830E+03  0.24601050043E+03  0.65949843697E+03  0.80651274945E+02 0.  0.
         11    1    3    3    0    0 -0.20200774766E+03 -0.30575818050E+03 -0.30116199866E+03  0.47433505510E+03  0.00000000000E+00 0. -1.
        -11    1    3    3    0    0 -0.29124581597E+02 -0.45967508906E+02 -0.10031578116E+03  0.11412497132E+03  0.00000000000E+00 0.  1.
          2    1    6    6  502    0  0.31771114364E+03  0.98660458040E+02  0.95201946704E+02  0.34603130990E+03  0.00000000000E+00 0. -1.
          3    1    5    5  503    0 -0.23622750028E+03  0.93505594133E+02  0.93511006271E+02  0.27072317285E+03  0.00000000000E+00 0. -1.
         -4    1    5    5    0  503 -0.10215932480E+03  0.49508986972E+02 -0.12177519728E+02  0.11417512611E+03  0.00000000000E+00 0.  1.
         -1    1    6    6    0  502  0.25180801071E+03  0.11005065026E+03  0.15080855372E+03  0.31346712707E+03  0.00000000000E+00 0.  1.
<mgrwt>
<rscale>  0 0.16311730E+04</rscale>
<asrwt>0</asrwt>
<pdfrwt beam="1">  1        1 0.13130697E+00 0.16311730E+04</pdfrwt>
<pdfrwt beam="2">  1       -1 0.11990177E+00 0.16311730E+04</pdfrwt>
<totfact> 0.11812871E+01</totfact>
</mgrwt>
</event>
<event>
12    1  0.1397649E-007  0.2758423E+04  0.7818608E-02  0.8316294E-01
          2   -1    0    0  501    0  0.00000000000E+00  0.00000000000E+00  0.26271970275E+04  0.26271970275E+04  0.00000000000E+00 0. -1.
         -2   -1    0    0    0  501 -0.00000000000E+00 -0.00000000000E+00 -0.72405089146E+03  0.72405089146E+03  0.00000000000E+00 0.  1.
         23    2    1    2    0    0 -0.86597646534E+03  0.90754244679E+03  0.96032423109E+03  0.15820500686E+04  0.84328284423E+02 0.  0.
        254    2    1    2    0    0  0.86597646534E+03 -0.90754244679E+03  0.94282190493E+03  0.17691978503E+04  0.81706753570E+03 0.  0.
        -24    2    4    4    0    0  0.42532468529E+03 -0.88746638806E+03  0.86731327372E+03  0.13140251769E+04  0.77020601433E+02 0.  0.
         24    2    4    4    0    0  0.44065178005E+03 -0.20076058735E+02  0.75508631217E+02  0.45517267337E+03  0.83087723526E+02 0.  0.
         11    1    3    3    0    0 -0.82616281795E+03  0.88267287837E+03  0.93728671062E+03  0.15297590627E+04  0.00000000000E+00 0. -1.
        -11    1    3    3    0    0 -0.39813647393E+02  0.24869568418E+02  0.23037520473E+02  0.52291005934E+02  0.00000000000E+00 0.  1.
          4    1    6    6  502    0  0.42826075423E+03 -0.56311087756E+01  0.79787507508E+02  0.43566619028E+03  0.00000000000E+00 0. -1.
          1    1    5    5  503    0  0.36520336734E+03 -0.77903794206E+03  0.78895688622E+03  0.11673588064E+04  0.00000000000E+00 0. -1.
         -2    1    5    5    0  503  0.60121317957E+02 -0.10842844600E+03  0.78356387495E+02  0.14666637050E+03  0.00000000000E+00 0.  1.
         -3    1    6    6    0  502  0.12391025816E+02 -0.14444949960E+02 -0.42788762909E+01  0.19506483087E+02  0.00000000000E+00 0.  1.
<mgrwt>
<rscale>  0 0.27584230E+04</rscale>
<asrwt>0</asrwt>
<pdfrwt beam="1">  1        2 0.40418415E+00 0.27584230E+04</pdfrwt>
<pdfrwt beam="2">  1       -2 0.11139245E+00 0.27584230E+04</pdfrwt>
<totfact> 0.16314956E+00</totfact>
</mgrwt>
</event>
<event>
12    1  0.1730475E-007  0.1538610E+04  0.7818608E-02  0.8859176E-01
          1   -1    0    0  501    0  0.00000000000E+00  0.00000000000E+00  0.18622208592E+04  0.18622208592E+04  0.00000000000E+00 0. -1.
         -1   -1    0    0    0  501 -0.00000000000E+00 -0.00000000000E+00 -0.31780896916E+03  0.31780896916E+03  0.00000000000E+00 0.  1.
         23    2    1    2    0    0  0.14573026797E+02 -0.46209775093E+03  0.66902072183E+03  0.81799079485E+03  0.88167509347E+02 0.  0.
        254    2    1    2    0    0 -0.14573026797E+02  0.46209775093E+03  0.87539116823E+03  0.13620390335E+04  0.93546455139E+03 0.  0.
        -24    2    4    4    0    0 -0.43250429764E+03  0.19280028890E+03  0.65500525298E+03  0.81222672439E+03  0.80302250951E+02 0.  0.
         24    2    4    4    0    0  0.41793127085E+03  0.26929746202E+03  0.22038591525E+03  0.54981230913E+03  0.80845243694E+02 0.  0.
         13    1    3    3    0    0  0.21384074249E+02 -0.46307167651E+03  0.65595942558E+03  0.80322812713E+03  0.00000000000E+00 0.  1.
        -13    1    3    3    0    0 -0.68110474519E+01  0.97392557829E+00  0.13061296254E+02  0.14762667721E+02  0.00000000000E+00 0. -1.
          2    1    6    6  502    0  0.34784144738E+03  0.22756635682E+03  0.14947543146E+03  0.44172731847E+03  0.00000000000E+00 0. -1.
          1    1    5    5  503    0 -0.41415130898E+03  0.16276954216E+03  0.60237787687E+03  0.74891544057E+03  0.00000000000E+00 0. -1.
         -2    1    5    5    0  503 -0.18352988660E+02  0.30030746745E+02  0.52627376110E+02  0.63311283821E+02  0.00000000000E+00 0.  1.
         -1    1    6    6    0  502  0.70089823466E+02  0.41731105202E+02  0.70910483789E+02  0.10808499066E+03  0.00000000000E+00 0.  1.
<mgrwt>
<rscale>  0 0.15386104E+04</rscale>
<asrwt>0</asrwt>
<pdfrwt beam="1">  1        1 0.28649551E+00 0.15386104E+04</pdfrwt>
<pdfrwt beam="2">  1       -1 0.48893689E-01 0.15386104E+04</pdfrwt>
<totfact> 0.14932568E+01</totfact>
</mgrwt>
</event>
<event>
12    1  0.1397649E-007  0.1424886E+04  0.7818608E-02  0.8935999E-01
          2   -1    0    0  501    0  0.00000000000E+00  0.00000000000E+00  0.63509942727E+03  0.63509942727E+03  0.00000000000E+00 0. -1.
         -2   -1    0    0    0  501 -0.00000000000E+00 -0.00000000000E+00 -0.79920595055E+03  0.79920595055E+03  0.00000000000E+00 0.  1.
         23    2    1    2    0    0 -0.34609537608E+03 -0.15411168057E+03  0.88022343299E+02  0.39932180043E+03  0.90429795715E+02 0.  0.
        254    2    1    2    0    0  0.34609537608E+03  0.15411168057E+03 -0.25212886658E+03  0.10349835774E+04  0.92956421008E+03 0.  0.
        -24    2    4    4    0    0  0.49785862748E+03  0.43552581245E+03 -0.22788466489E+03  0.70422405337E+03  0.80337728321E+02 0.  0.
         24    2    4    4    0    0 -0.15176325140E+03 -0.28141413188E+03 -0.24244201682E+02  0.33075952401E+03  0.81167008740E+02 0.  0.
         11    1    3    3    0    0 -0.19135849632E+02 -0.31728488050E+02  0.24651064695E+02  0.44503400833E+02  0.00000000000E+00 0. -1.
        -11    1    3    3    0    0 -0.32695952645E+03 -0.12238319252E+03  0.63371278604E+02  0.35481839960E+03  0.00000000000E+00 0.  1.
          2    1    6    6  502    0 -0.12050586944E+03 -0.16030502463E+03 -0.40602725535E+02  0.20461658489E+03  0.00000000000E+00 0. -1.
          1    1    5    5  503    0  0.38749959958E+03  0.30100068477E+03 -0.14608533163E+03  0.51195534573E+03  0.00000000000E+00 0. -1.
         -2    1    5    5    0  503  0.11035902790E+03  0.13452512768E+03 -0.81799333264E+02  0.19226870764E+03  0.00000000000E+00 0.  1.
         -1    1    6    6    0  502 -0.31257381958E+02 -0.12110910725E+03  0.16358523853E+02  0.12614293911E+03  0.00000000000E+00 0.  1.
<mgrwt>
<rscale>  0 0.14248863E+04</rscale>
<asrwt>0</asrwt>
<pdfrwt beam="1">  1        2 0.97707604E-01 0.14248863E+04</pdfrwt>
<pdfrwt beam="2">  1       -2 0.12295476E+00 0.14248863E+04</pdfrwt>
<totfact> 0.22459078E+01</totfact>
</mgrwt>
</event>
<event>
12    1  0.1397649E-007  0.2147356E+04  0.7818608E-02  0.8540665E-01
          1   -1    0    0  501    0  0.00000000000E+00  0.00000000000E+00  0.63808957677E+03  0.63808957677E+03  0.00000000000E+00 0. -1.
         -1   -1    0    0    0  501 -0.00000000000E+00 -0.00000000000E+00 -0.18066187292E+04  0.18066187292E+04  0.00000000000E+00 0.  1.
         23    2    1    2    0    0 -0.27372700990E+03 -0.58852152313E+03  0.19519149508E+03  0.68530199539E+03  0.10126720099E+03 0.  0.
        254    2    1    2    0    0  0.27372700990E+03  0.58852152313E+03 -0.13637206475E+04  0.17594063106E+04  0.90249238344E+03 0.  0.
        -24    2    4    4    0    0  0.44011092917E+03  0.57949023240E+03 -0.52469567117E+03  0.90041356485E+03  0.77022600548E+02 0.  0.
         24    2    4    4    0    0 -0.16638391927E+03  0.90312907236E+01 -0.83902497633E+03  0.85899274573E+03  0.78361045849E+02 0.  0.
         11    1    3    3    0    0  0.22583056346E+01 -0.55350755051E+01 -0.71282788349E+01  0.93031910834E+01  0.00000000000E+00 0.  1.
        -11    1    3    3    0    0 -0.27598531553E+03 -0.58298644762E+03  0.20231977392E+03  0.67599880430E+03  0.00000000000E+00 0. -1.
          2    1    6    6  502    0 -0.22296167307E+02  0.26048825526E+02 -0.25107234207E+03  0.25340280452E+03  0.00000000000E+00 0. -1.
          1    1    5    5  503    0  0.33568870360E+02  0.76686429303E+02 -0.42970307246E+02  0.94096359129E+02  0.00000000000E+00 0. -1.
         -2    1    5    5    0  503  0.40654205881E+03  0.50280380310E+03 -0.48172536393E+03  0.80631720572E+03  0.00000000000E+00 0.  1.
         -1    1    6    6    0  502 -0.14408775197E+03 -0.17017534803E+02 -0.58795263427E+03  0.60558994121E+03  0.00000000000E+00 0.  1.
<mgrwt>
<rscale>  0 0.21473561E+04</rscale>
<asrwt>0</asrwt>
<pdfrwt beam="1">  1        1 0.98167629E-01 0.21473561E+04</pdfrwt>
<pdfrwt beam="2">  1       -1 0.27794134E+00 0.21473561E+04</pdfrwt>
<totfact> 0.13160001E+00</totfact>
</mgrwt>
</event>
<event>
12    1  0.1397649E-007  0.1975517E+04  0.7818608E-02  0.8618154E-01
         -2   -1    0    0    0  501 -0.00000000000E+00  0.00000000000E+00  0.28578384320E+04  0.28578384320E+04  0.00000000000E+00 0.  1.
          2   -1    0    0  501    0  0.00000000000E+00 -0.00000000000E+00 -0.34140015014E+03  0.34140015014E+03  0.00000000000E+00 0. -1.
         23    2    1    2    0    0  0.58250522372E+03 -0.39195056338E+03  0.45414069428E+03  0.84065283928E+03  0.86693980121E+02 0.  0.
        254    2    1    2    0    0 -0.58250522372E+03  0.39195056338E+03  0.20622975875E+04  0.23585857428E+04  0.90383504406E+03 0.  0.
        -24    2    4    4    0    0 -0.16121273366E+03 -0.18178303674E+02  0.15898168269E+04  0.16000389419E+04  0.79291086126E+02 0.  0.
         24    2    4    4    0    0 -0.42129249006E+03  0.41012886706E+03  0.47248076062E+03  0.75854680088E+03  0.80387375853E+02 0.  0.
         13    1    3    3    0    0  0.27455492444E+03 -0.22442917851E+03  0.19486741595E+03  0.40462596617E+03  0.00000000000E+00 0.  1.
        -13    1    3    3    0    0  0.30795029928E+03 -0.16752138487E+03  0.25927327833E+03  0.43602687311E+03  0.00000000000E+00 0. -1.
          2    1    6    6  502    0 -0.42042740368E+03  0.39747861620E+03  0.47045696053E+03  0.74570651319E+03  0.00000000000E+00 0. -1.
          1    1    5    5  503    0 -0.16653583953E+03 -0.18128443423E+02  0.15801357057E+04  0.15889907724E+04  0.00000000000E+00 0. -1.
         -2    1    5    5    0  503  0.53231058768E+01 -0.49860251539E-01  0.96811211983E+01  0.11048169526E+02  0.00000000000E+00 0.  1.
         -1    1    6    6    0  502 -0.86508638147E+00  0.12650250860E+02  0.20238000896E+01  0.12840287694E+02  0.00000000000E+00 0.  1.
<mgrwt>
<rscale>  0 0.19755166E+04</rscale>
<asrwt>0</asrwt>
<pdfrwt beam="1">  1        2 0.52523102E-01 0.19755166E+04</pdfrwt>
<pdfrwt beam="2">  1       -2 0.43966744E+00 0.19755166E+04</pdfrwt>
<totfact> 0.36021063E-01</totfact>
</mgrwt>
</event>
<event>
12    1  0.1397649E-007  0.2146770E+04  0.7818608E-02  0.8540916E-01
          2   -1    0    0  501    0  0.00000000000E+00  0.00000000000E+00  0.20687990938E+04  0.20687990938E+04  0.00000000000E+00 0. -1.
         -2   -1    0    0    0  501 -0.00000000000E+00 -0.00000000000E+00 -0.55691965243E+03  0.55691965243E+03  0.00000000000E+00 0.  1.
         23    2    1    2    0    0  0.12934193937E+03  0.78473129134E+03  0.10826073470E+04  0.13470931300E+04  0.10044250218E+03 0.  0.
        254    2    1    2    0    0 -0.12934193937E+03 -0.78473129134E+03  0.42927209435E+03  0.12786256162E+04  0.90447575893E+03 0.  0.
        -24    2    4    4    0    0  0.35688944091E+03 -0.30167833676E+03  0.33812340187E+03  0.58240829089E+03  0.80573509899E+02 0.  0.
         24    2    4    4    0    0 -0.48623138029E+03 -0.48305295458E+03  0.91148692473E+02  0.69621732530E+03  0.81543655809E+02 0.  0.
         13    1    3    3    0    0  0.10948290549E+02  0.92499247307E+02  0.78782335484E+02  0.12199439414E+03  0.00000000000E+00 0.  1.
        -13    1    3    3    0    0  0.11839364882E+03  0.69223204403E+03  0.10038250115E+04  0.12250987359E+04  0.00000000000E+00 0. -1.
          4    1    6    6  502    0 -0.34300058819E+03 -0.38511669831E+03  0.51908121751E+02  0.51832299575E+03  0.00000000000E+00 0. -1.
          3    1    5    5  503    0  0.30560386529E+03 -0.29063851319E+03  0.29975473064E+03  0.51741411497E+03  0.00000000000E+00 0. -1.
         -4    1    5    5    0  503  0.51285575619E+02 -0.11039823572E+02  0.38368671236E+02  0.64994175920E+02  0.00000000000E+00 0.  1.
         -3    1    6    6    0  502 -0.14323079209E+03 -0.97936256275E+02  0.39240570722E+02  0.17789432955E+03  0.00000000000E+00 0.  1.
<mgrwt>
<rscale>  0 0.21467695E+04</rscale>
<asrwt>0</asrwt>
<pdfrwt beam="1">  1        2 0.31827678E+00 0.21467695E+04</pdfrwt>
<pdfrwt beam="2">  1       -2 0.85679948E-01 0.21467695E+04</pdfrwt>
<totfact> 0.66432446E+00</totfact>
</mgrwt>
</event>
<event>
12    1  0.1397649E-007  0.1420020E+04  0.7818608E-02  0.8939453E-01
         -2   -1    0    0    0  501 -0.00000000000E+00  0.00000000000E+00  0.47724155905E+03  0.47724155905E+03  0.00000000000E+00 0.  1.
          2   -1    0    0  501    0  0.00000000000E+00 -0.00000000000E+00 -0.10563079094E+04  0.10563079094E+04  0.00000000000E+00 0. -1.
         23    2    1    2    0    0  0.24471718573E+02  0.39985685989E+03 -0.56714852168E+02  0.41502238469E+03  0.92426359496E+02 0.  0.
        254    2    1    2    0    0 -0.24471718573E+02 -0.39985685989E+03 -0.52235149821E+03  0.11185270838E+04  0.90430491321E+03 0.  0.
        -24    2    4    4    0    0 -0.33170108950E+03 -0.96533237163E+02  0.88544877906E+02  0.36611253616E+03  0.82788375268E+02 0.  0.
         24    2    4    4    0    0  0.30722937092E+03 -0.30332362272E+03 -0.61089637612E+03  0.75241454762E+03  0.80858905891E+02 0.  0.
         11    1    3    3    0    0  0.24657181344E+02  0.12116978171E+03  0.21633954503E+02  0.12553135297E+03  0.00000000000E+00 0.  1.
        -11    1    3    3    0    0 -0.18546277070E+00  0.27868707818E+03 -0.78348806671E+02  0.28949103172E+03  0.00000000000E+00 0. -1.
          2    1    6    6  502    0  0.26270380350E+03 -0.21372273034E+03 -0.45570241169E+03  0.56776349113E+03  0.00000000000E+00 0. -1.
          3    1    5    5  503    0 -0.33105270162E+03 -0.84861687776E+02  0.92000350350E+02  0.35392296021E+03  0.00000000000E+00 0. -1.
         -4    1    5    5    0  503 -0.64838787609E+00 -0.11671549386E+02 -0.34554724438E+01  0.12189575945E+02  0.00000000000E+00 0.  1.
         -3    1    6    6    0  502  0.44525567421E+02 -0.89600892380E+02 -0.15519396443E+03  0.18465105649E+03  0.00000000000E+00 0.  1.
<mgrwt>
<rscale>  0 0.14200198E+04</rscale>
<asrwt>0</asrwt>
<pdfrwt beam="1">  1        2 0.16250891E+00 0.14200198E+04</pdfrwt>
<pdfrwt beam="2">  1       -2 0.73421779E-01 0.14200198E+04</pdfrwt>
<totfact> 0.37741573E+01</totfact>
</mgrwt>
</event>
<event>
12    1  0.1397649E-007  0.1914632E+04  0.7818608E-02  0.8647607E-01
         -1   -1    0    0    0  501 -0.00000000000E+00  0.00000000000E+00  0.82676538211E+03  0.82676538211E+03  0.00000000000E+00 0.  1.
          1   -1    0    0  501    0  0.00000000000E+00 -0.00000000000E+00 -0.11084811223E+04  0.11084811223E+04  0.00000000000E+00 0. -1.
         23    2    1    2    0    0  0.87381972594E+02  0.26744880188E+03 -0.80132372954E+03  0.85450808161E+03  0.94339128906E+02 0.  0.
        254    2    1    2    0    0 -0.87381972594E+02 -0.26744880188E+03  0.51960798938E+03  0.10807384228E+04  0.90489701352E+03 0.  0.
        -24    2    4    4    0    0  0.16819209803E+03 -0.52139216030E+03  0.18793739141E+03  0.58469531668E+03  0.80061124136E+02 0.  0.
         24    2    4    4    0    0 -0.25557407062E+03  0.25394335842E+03  0.33167059797E+03  0.49604310610E+03  0.79044561435E+02 0.  0.
         13    1    3    3    0    0  0.71899731955E+02  0.11788530777E+03 -0.28421709247E+03  0.31598397569E+03  0.00000000000E+00 0. -1.
        -13    1    3    3    0    0  0.15482240640E+02  0.14956349412E+03 -0.51710663707E+03  0.53852410592E+03  0.00000000000E+00 0.  1.
          2    1    6    6  502    0 -0.14460835465E+03  0.11529833639E+03  0.12336749931E+03  0.22231694154E+03  0.00000000000E+00 0. -1.
          1    1    5    5  503    0 -0.79630942235E+01 -0.17612585438E+02  0.15357364785E+01  0.19390010880E+02  0.00000000000E+00 0. -1.
         -2    1    5    5    0  503  0.17615519225E+03 -0.50377957486E+03  0.18640165493E+03  0.56530530580E+03  0.00000000000E+00 0.  1.
         -1    1    6    6    0  502 -0.11096571597E+03  0.13864502202E+03  0.20830309866E+03  0.27372616456E+03  0.00000000000E+00 0.  1.
<mgrwt>
<rscale>  0 0.19146319E+04</rscale>
<asrwt>0</asrwt>
<pdfrwt beam="1">  1        1 0.17053556E+00 0.19146319E+04</pdfrwt>
<pdfrwt beam="2">  1       -1 0.12719468E+00 0.19146319E+04</pdfrwt>
<totfact> 0.62560058E+00</totfact>
</mgrwt>
</event>
<event>
12    1  0.1397649E-007  0.2638506E+04  0.7818608E-02  0.8355238E-01
          1   -1    0    0  501    0  0.00000000000E+00  0.00000000000E+00  0.46622489632E+04  0.46622489632E+04  0.00000000000E+00 0. -1.
         -1   -1    0    0    0  501 -0.00000000000E+00 -0.00000000000E+00 -0.37330224158E+03  0.37330224158E+03  0.00000000000E+00 0.  1.
         23    2    1    2    0    0  0.94571324169E+03  0.50007196194E+03  0.10153875016E+04  0.14778875869E+04  0.93243973236E+02 0.  0.
        254    2    1    2    0    0 -0.94571324169E+03 -0.50007196194E+03  0.32735592200E+04  0.35576636178E+04  0.89237601287E+03 0.  0.
        -24    2    4    4    0    0 -0.74816156357E+03 -0.68834214598E+03  0.19149416189E+04  0.21696072304E+04  0.81446271099E+02 0.  0.
         24    2    4    4    0    0 -0.19755167812E+03  0.18827018404E+03  0.13586176010E+04  0.13880563874E+04  0.79915087125E+02 0.  0.
         11    1    3    3    0    0  0.57792013325E+03  0.33351553178E+03  0.57984395100E+03  0.88399281550E+03  0.00000000000E+00 0. -1.
        -11    1    3    3    0    0  0.36779310844E+03  0.16655643015E+03  0.43554355062E+03  0.59389477143E+03  0.00000000000E+00 0.  1.
          2    1    6    6  502    0 -0.19499443288E+03  0.15612737267E+03  0.12517105594E+04  0.12763925375E+04  0.00000000000E+00 0. -1.
          1    1    5    5  503    0 -0.53710779535E+03 -0.51092317699E+03  0.13208554808E+04  0.15146572146E+04  0.00000000000E+00 0. -1.
         -2    1    5    5    0  503 -0.21105376822E+03 -0.17741896899E+03  0.59408613818E+03  0.65495001581E+03  0.00000000000E+00 0.  1.
         -1    1    6    6    0  502 -0.25572452416E+01  0.32142811374E+02  0.10690704168E+03  0.11166384995E+03  0.00000000000E+00 0.  1.
<mgrwt>
<rscale>  0 0.26385056E+04</rscale>
<asrwt>0</asrwt>
<pdfrwt beam="1">  1        1 0.71726903E+00 0.26385056E+04</pdfrwt>
<pdfrwt beam="2">  1       -1 0.57431117E-01 0.26385056E+04</pdfrwt>
<totfact> 0.58661102E-02</totfact>
</mgrwt>
</event>
<event>
12    1  0.1397649E-007  0.2048973E+04  0.7818608E-02  0.8584060E-01
          2   -1    0    0  501    0  0.00000000000E+00  0.00000000000E+00  0.25062660775E+04  0.25062660775E+04  0.00000000000E+00 0. -1.
         -2   -1    0    0    0  501 -0.00000000000E+00 -0.00000000000E+00 -0.41877942097E+03  0.41877942097E+03  0.00000000000E+00 0.  1.
         23    2    1    2    0    0 -0.56609604611E+03 -0.40103323919E+03  0.20500445790E+03  0.72941723117E+03  0.93435951404E+02 0.  0.
        254    2    1    2    0    0  0.56609604611E+03  0.40103323919E+03  0.18824821986E+04  0.21956282673E+04  0.89204925181E+03 0.  0.
        -24    2    4    4    0    0  0.29961116864E+03  0.44730140366E+03  0.37320057766E+03  0.66000917954E+03  0.80548419137E+02 0.  0.
         24    2    4    4    0    0  0.26648487747E+03 -0.46268164468E+02  0.15092816209E+04  0.15356190877E+04  0.83904936325E+02 0.  0.
         13    1    3    3    0    0 -0.27380956948E+02 -0.42061640305E+02 -0.59736593186E+00  0.50192183003E+02  0.00000000000E+00 0. -1.
        -13    1    3    3    0    0 -0.53871508916E+03 -0.35897159888E+03  0.20560182383E+03  0.67922504817E+03  0.00000000000E+00 0.  1.
          4    1    6    6  502    0  0.26076904054E+03 -0.25991268714E+02  0.14049358513E+04  0.14291678644E+04  0.00000000000E+00 0. -1.
          3    1    5    5  503    0  0.21116740891E+03  0.34728973227E+03  0.31565728639E+03  0.51462739451E+03  0.00000000000E+00 0. -1.
         -4    1    5    5    0  503  0.88443759737E+02  0.10001167139E+03  0.57543291263E+02  0.14538178503E+03  0.00000000000E+00 0.  1.
         -3    1    6    6    0  502  0.57158369235E+01 -0.20276895753E+02  0.10434576967E+03  0.10645122329E+03  0.00000000000E+00 0.  1.
<mgrwt>
<rscale>  0 0.20489731E+04</rscale>
<asrwt>0</asrwt>
<pdfrwt beam="1">  1        2 0.38557939E+00 0.20489731E+04</pdfrwt>
<pdfrwt beam="2">  1       -2 0.64427605E-01 0.20489731E+04</pdfrwt>
<totfact> 0.71111377E+00</totfact>
</mgrwt>
</event>
<event>
12    1  0.1397649E-007  0.1680702E+04  0.7818608E-02  0.8772448E-01
          2   -1    0    0  501    0  0.00000000000E+00  0.00000000000E+00  0.89431689481E+03  0.89431689481E+03  0.00000000000E+00 0. -1.
         -2   -1    0    0    0  501 -0.00000000000E+00 -0.00000000000E+00 -0.78964134528E+03  0.78964134528E+03  0.00000000000E+00 0.  1.
         23    2    1    2    0    0 -0.32959681468E+03 -0.12830147494E+03  0.51520855550E+03  0.63149648105E+03  0.90843938707E+02 0.  0.
        254    2    1    2    0    0  0.32959681468E+03  0.12830147494E+03 -0.41053300597E+03  0.10524617590E+04  0.90224335771E+03 0.  0.
        -24    2    4    4    0    0 -0.18844100934E+03 -0.11518882219E+03  0.12376228500E+03  0.26540892516E+03  0.79663765973E+02 0.  0.
         24    2    4    4    0    0  0.51803782402E+03  0.24349029712E+03 -0.53429529097E+03  0.78705283388E+03  0.79561256041E+02 0.  0.
         11    1    3    3    0    0 -0.98098220957E+02 -0.60508277503E+01  0.96897897515E+02  0.13801839013E+03  0.00000000000E+00 0. -1.
        -11    1    3    3    0    0 -0.23149859372E+03 -0.12225064719E+03  0.41831065799E+03  0.49347809092E+03  0.00000000000E+00 0.  1.
          4    1    6    6  502    0  0.25555872561E+03  0.10756848999E+03 -0.20686447975E+03  0.34593952543E+03  0.00000000000E+00 0. -1.
          1    1    5    5  503    0 -0.85342479997E+02 -0.44466023666E+02  0.10665700421E+02  0.96821089223E+02  0.00000000000E+00 0. -1.
         -2    1    5    5    0  503 -0.10309852934E+03 -0.70722798519E+02  0.11309658458E+03  0.16858783594E+03  0.00000000000E+00 0.  1.
         -3    1    6    6    0  502  0.26247909841E+03  0.13592180713E+03 -0.32743081122E+03  0.44111330845E+03  0.00000000000E+00 0.  1.
<mgrwt>
<rscale>  0 0.16807018E+04</rscale>
<asrwt>0</asrwt>
<pdfrwt beam="1">  1        2 0.13758721E+00 0.16807018E+04</pdfrwt>
<pdfrwt beam="2">  1       -2 0.12148328E+00 0.16807018E+04</pdfrwt>
<totfact> 0.14518656E+01</totfact>
</mgrwt>
</event>
<event>
12    1  0.1397649E-007  0.1330095E+04  0.7818608E-02  0.9006034E-01
         -1   -1    0    0    0  501 -0.00000000000E+00  0.00000000000E+00  0.24550608509E+03  0.24550608509E+03  0.00000000000E+00 0.  1.
          1   -1    0    0  501    0  0.00000000000E+00 -0.00000000000E+00 -0.18015371426E+04  0.18015371426E+04  0.00000000000E+00 0. -1.
         23    2    1    2    0    0 -0.71952609116E+02 -0.34074019599E+03 -0.34258265055E+03  0.49765328228E+03  0.94946604918E+02 0.  0.
        254    2    1    2    0    0  0.71952609116E+02  0.34074019599E+03 -0.12134484070E+04  0.15493899454E+04  0.89826004446E+03 0.  0.
        -24    2    4    4    0    0 -0.28810202210E+02 -0.13241274147E+03 -0.10043172006E+04  0.10167543708E+04  0.82299752089E+02 0.  0.
         24    2    4    4    0    0  0.10076281133E+03  0.47315293746E+03 -0.20913120636E+03  0.53263557464E+03  0.77058078931E+02 0.  0.
         13    1    3    3    0    0 -0.78030052663E+02 -0.23583037163E+03 -0.19165657157E+03  0.31374654537E+03  0.00000000000E+00 0.  1.
        -13    1    3    3    0    0  0.60774435473E+01 -0.10490982436E+03 -0.15092607898E+03  0.18390673691E+03  0.00000000000E+00 0. -1.
          4    1    6    6  502    0  0.11001782466E+03  0.44147319591E+03 -0.20614122173E+03  0.49949645419E+03  0.00000000000E+00 0. -1.
          1    1    5    5  503    0 -0.15748089282E+02 -0.13578047413E+03 -0.97434653757E+03  0.98388795843E+03  0.00000000000E+00 0. -1.
         -2    1    5    5    0  503 -0.13062112928E+02  0.33677326625E+01 -0.29970663069E+02  0.32866412372E+02  0.00000000000E+00 0.  1.
         -3    1    6    6    0  502 -0.92550133378E+01  0.31679741548E+02 -0.29899846366E+01  0.33139120455E+02  0.00000000000E+00 0.  1.
<mgrwt>
<rscale>  0 0.13300952E+04</rscale>
<asrwt>0</asrwt>
<pdfrwt beam="1">  1        1 0.27715956E+00 0.13300952E+04</pdfrwt>
<pdfrwt beam="2">  1       -1 0.37770167E-01 0.13300952E+04</pdfrwt>
<totfact> 0.26956195E+01</totfact>
</mgrwt>
</event>
<event>
12    1  0.1397649E-007  0.1660267E+04  0.7818608E-02  0.8784356E-01
         -2   -1    0    0    0  501 -0.00000000000E+00  0.00000000000E+00  0.51160310491E+03  0.51160310491E+03  0.00000000000E+00 0.  1.
          2   -1    0    0  501    0  0.00000000000E+00 -0.00000000000E+00 -0.13469848904E+04  0.13469848904E+04  0.00000000000E+00 0. -1.
         23    2    1    2    0    0  0.40923185339E+03  0.41891884688E+03 -0.25697528011E+03  0.64686255034E+03  0.97114130527E+02 0.  0.
        254    2    1    2    0    0 -0.40923185339E+03 -0.41891884688E+03 -0.57840650540E+03  0.12117254450E+04  0.88924729881E+03 0.  0.
        -24    2    4    4    0    0 -0.40361009161E+03 -0.66805690930E+03 -0.52230812239E+03  0.94247086263E+03  0.79021592483E+02 0.  0.
         24    2    4    4    0    0 -0.56217617777E+01  0.24913806242E+03 -0.56098383008E+02  0.26925458236E+03  0.85144719100E+02 0.  0.
         13    1    3    3    0    0  0.18040024904E+03  0.13003319507E+03 -0.67064810162E+02  0.23227262094E+03  0.00000000000E+00 0.  1.
        -13    1    3    3    0    0  0.22883160435E+03  0.28888565181E+03 -0.18991046995E+03  0.41458992941E+03  0.00000000000E+00 0. -1.
          2    1    6    6  502    0 -0.43302463159E+02  0.11913422545E+03 -0.14140831815E+02  0.12754618816E+03  0.00000000000E+00 0. -1.
          1    1    5    5  503    0 -0.96254374288E+02 -0.23040021755E+03 -0.16786782549E+03  0.30087999543E+03  0.00000000000E+00 0. -1.
         -2    1    5    5    0  503 -0.30735571733E+03 -0.43765669175E+03 -0.35444029690E+03  0.64159086720E+03  0.00000000000E+00 0.  1.
         -1    1    6    6    0  502  0.37680701381E+02  0.13000383697E+03 -0.41957551193E+02  0.14170839420E+03  0.00000000000E+00 0.  1.
<mgrwt>
<rscale>  0 0.16602670E+04</rscale>
<asrwt>0</asrwt>
<pdfrwt beam="1">  1        2 0.20722845E+00 0.16602670E+04</pdfrwt>
<pdfrwt beam="2">  1       -2 0.78708170E-01 0.16602670E+04</pdfrwt>
<totfact> 0.21246684E+01</totfact>
</mgrwt>
</event>
<event>
12    1  0.1397649E-007  0.1479112E+04  0.7818608E-02  0.8898463E-01
         -2   -1    0    0    0  501 -0.00000000000E+00  0.00000000000E+00  0.93027228855E+03  0.93027228855E+03  0.00000000000E+00 0.  1.
          2   -1    0    0  501    0  0.00000000000E+00 -0.00000000000E+00 -0.58793887854E+03  0.58793887854E+03  0.00000000000E+00 0. -1.
         23    2    1    2    0    0 -0.39914791526E+03  0.22083960894E+03  0.70617835938E+02  0.47054862533E+03  0.91323265997E+02 0.  0.
        254    2    1    2    0    0  0.39914791526E+03 -0.22083960894E+03  0.27171557407E+03  0.10476625418E+04  0.90314907799E+03 0.  0.
        -24    2    4    4    0    0  0.17873019457E+02 -0.48638411567E+03  0.29639631085E+03  0.57524559799E+03  0.78535164830E+02 0.  0.
         24    2    4    4    0    0  0.38127489581E+03  0.26554450673E+03 -0.24680736781E+02  0.47241694377E+03  0.81756949342E+02 0.  0.
         11    1    3    3    0    0 -0.13098567598E+03  0.46080475398E+02 -0.13754486322E+02  0.13953438078E+03  0.00000000000E+00 0. -1.
        -11    1    3    3    0    0 -0.26816223928E+03  0.17475913354E+03  0.84372322260E+02  0.33101424455E+03  0.00000000000E+00 0.  1.
          2    1    6    6  502    0  0.34219069573E+03  0.22245419354E+03  0.26278804190E+01  0.40815100910E+03  0.00000000000E+00 0. -1.
          1    1    5    5  503    0  0.21543485757E+02 -0.48774516638E+03  0.29032364615E+03  0.56802050017E+03  0.00000000000E+00 0. -1.
         -2    1    5    5    0  503 -0.36704663008E+01  0.13610507049E+01  0.60726646947E+01  0.72250978112E+01  0.00000000000E+00 0.  1.
         -1    1    6    6    0  502  0.39084200073E+02  0.43090313190E+02 -0.27308617200E+02  0.64265934674E+02  0.00000000000E+00 0.  1.
<mgrwt>
<rscale>  0 0.14791122E+04</rscale>
<asrwt>0</asrwt>
<pdfrwt beam="1">  1        2 0.90452135E-01 0.14791122E+04</pdfrwt>
<pdfrwt beam="2">  1       -2 0.14311881E+00 0.14791122E+04</pdfrwt>
<totfact> 0.16668161E+01</totfact>
</mgrwt>
</event>
<event>
12    1  0.1397649E-007  0.1145530E+04  0.7818608E-02  0.9161917E-01
          2   -1    0    0  501    0  0.00000000000E+00  0.00000000000E+00  0.29445669588E+04  0.29445669588E+04  0.00000000000E+00 0. -1.
         -2   -1    0    0    0  501 -0.00000000000E+00 -0.00000000000E+00 -0.11141192703E+03  0.11141192703E+03  0.00000000000E+00 0.  1.
         23    2    1    2    0    0  0.18878501760E+02 -0.17884757803E+03  0.84000298293E+03  0.86423157612E+03  0.94595728376E+02 0.  0.
        254    2    1    2    0    0 -0.18878501760E+02  0.17884757803E+03  0.19931520488E+04  0.21917473097E+04  0.89373280451E+03 0.  0.
        -24    2    4    4    0    0 -0.41470434521E+02 -0.99729715983E+02 -0.38116435870E+02  0.13982391584E+03  0.80200072113E+02 0.  0.
         24    2    4    4    0    0  0.22591932761E+02  0.27857729401E+03  0.20312684847E+04  0.20519233938E+04  0.78881260334E+02 0.  0.
         11    1    3    3    0    0  0.15175752908E+02  0.18843688702E+01  0.15588930137E+03  0.15663757086E+03  0.00000000000E+00 0.  1.
        -11    1    3    3    0    0  0.37027488518E+01 -0.18073194690E+03  0.68411368157E+03  0.70759400526E+03  0.00000000000E+00 0. -1.
          4    1    6    6  502    0  0.11963627144E+02  0.22219961475E+03  0.17973495893E+04  0.18110718769E+04  0.00000000000E+00 0. -1.
          3    1    5    5  503    0 -0.39557472226E+02 -0.98366527810E+02 -0.57287245248E+02  0.12050973351E+03  0.00000000000E+00 0. -1.
         -2    1    5    5    0  503 -0.19129622953E+01 -0.13631881731E+01  0.19170809379E+02  0.19314182327E+02  0.00000000000E+00 0.  1.
         -3    1    6    6    0  502  0.10628305618E+02  0.56377679269E+02  0.23391889532E+03  0.24085151689E+03  0.00000000000E+00 0.  1.
<mgrwt>
<rscale>  0 0.11455302E+04</rscale>
<asrwt>0</asrwt>
<pdfrwt beam="1">  1        2 0.45301024E+00 0.11455302E+04</pdfrwt>
<pdfrwt beam="2">  1       -2 0.17140299E-01 0.11455302E+04</pdfrwt>
<totfact> 0.53017001E+01</totfact>
</mgrwt>
</event>
<event>
12    1  0.1397649E-007  0.1718308E+04  0.7818608E-02  0.8750991E-01
         -1   -1    0    0    0  501 -0.00000000000E+00  0.00000000000E+00  0.32115552011E+03  0.32115552011E+03  0.00000000000E+00 0.  1.
          1   -1    0    0  501    0  0.00000000000E+00 -0.00000000000E+00 -0.22984059911E+04  0.22984059911E+04  0.00000000000E+00 0. -1.
         23    2    1    2    0    0 -0.14429771634E+03  0.53150964815E+03 -0.26948165484E+03  0.62004639833E+03  0.92265035478E+02 0.  0.
        254    2    1    2    0    0  0.14429771634E+03 -0.53150964815E+03 -0.17077688161E+04  0.19995151128E+04  0.88219160060E+03 0.  0.
        -24    2    4    4    0    0 -0.26270929826E+03  0.26304145871E+02 -0.20553408663E+03  0.34423022333E+03  0.80883264064E+02 0.  0.
         24    2    4    4    0    0  0.40700701460E+03 -0.55781379402E+03 -0.15022347295E+04  0.16552848895E+04  0.80299092406E+02 0.  0.
         11    1    3    3    0    0 -0.69665595396E+02  0.33309833524E+03 -0.20996517110E+03  0.39986643920E+03  0.00000000000E+00 0. -1.
        -11    1    3    3    0    0 -0.74632120946E+02  0.19841131291E+03 -0.59516483739E+02  0.22017995913E+03  0.00000000000E+00 0.  1.
          4    1    6    6  502    0  0.11559035080E+03 -0.18493468141E+03 -0.55769185907E+03  0.59881731376E+03  0.00000000000E+00 0. -1.
          1    1    5    5  503    0 -0.20910633161E+02 -0.20904620412E+02 -0.18061592851E+02  0.34647927356E+02  0.00000000000E+00 0. -1.
         -2    1    5    5    0  503 -0.24179866510E+03  0.47208766283E+02 -0.18747249378E+03  0.30958229598E+03  0.00000000000E+00 0.  1.
         -3    1    6    6    0  502  0.29141666380E+03 -0.37287911261E+03 -0.94454287040E+03  0.10564675757E+04  0.00000000000E+00 0.  1.
<mgrwt>
<rscale>  0 0.17183082E+04</rscale>
<asrwt>0</asrwt>
<pdfrwt beam="1">  1        1 0.35360093E+00 0.17183082E+04</pdfrwt>
<pdfrwt beam="2">  1       -1 0.49408540E-01 0.17183082E+04</pdfrwt>
<totfact> 0.72851680E+00</totfact>
</mgrwt>
</event>
<event>
12    1  0.1397649E-007  0.3077652E+04  0.7818608E-02  0.8221898E-01
          1   -1    0    0  501    0  0.00000000000E+00  0.00000000000E+00  0.10556091601E+04  0.10556091601E+04  0.00000000000E+00 0. -1.
         -1   -1    0    0    0  501 -0.00000000000E+00 -0.00000000000E+00 -0.22432407441E+04  0.22432407441E+04  0.00000000000E+00 0.  1.
         23    2    1    2    0    0 -0.67994522453E+02  0.13936212208E+04 -0.65327554731E+03  0.15433605422E+04  0.91593997120E+02 0.  0.
        254    2    1    2    0    0  0.67994522453E+02 -0.13936212208E+04 -0.53435603670E+03  0.17554893619E+04  0.92163070898E+03 0.  0.
        -24    2    4    4    0    0 -0.18360160385E+03 -0.45817826994E+03 -0.60021381528E+03  0.78123620470E+03  0.80227847430E+02 0.  0.
         24    2    4    4    0    0  0.25159612630E+03 -0.93544295087E+03  0.65857778571E+02  0.97425315724E+03  0.80485043879E+02 0.  0.
         11    1    3    3    0    0 -0.12930203713E+02  0.10924992067E+03 -0.78610598625E+02  0.13521228328E+03  0.00000000000E+00 0.  1.
        -11    1    3    3    0    0 -0.55064318739E+02  0.12843713001E+04 -0.57466494868E+03  0.14081482589E+04  0.00000000000E+00 0. -1.
          4    1    6    6  502    0  0.69679548305E+02 -0.19862432525E+03  0.43733632500E+02  0.21498719182E+03  0.00000000000E+00 0. -1.
          3    1    5    5  503    0 -0.10478419977E+03 -0.25764354373E+03 -0.27509604845E+03  0.39120040902E+03  0.00000000000E+00 0. -1.
         -4    1    5    5    0  503 -0.78817404081E+02 -0.20053472620E+03 -0.32511776683E+03  0.39003579567E+03  0.00000000000E+00 0.  1.
         -3    1    6    6    0  502  0.18191657799E+03 -0.73681862562E+03  0.22124146071E+02  0.75926596542E+03  0.00000000000E+00 0.  1.
<mgrwt>
<rscale>  0 0.30776520E+04</rscale>
<asrwt>0</asrwt>
<pdfrwt beam="1">  1        1 0.16240141E+00 0.30776520E+04</pdfrwt>
<pdfrwt beam="2">  1       -1 0.34511396E+00 0.30776520E+04</pdfrwt>
<totfact> 0.19386758E-01</totfact>
</mgrwt>
</event>
<event>
12    1  0.1397649E-007  0.3149599E+04  0.7818608E-02  0.8202256E-01
          1   -1    0    0  501    0  0.00000000000E+00  0.00000000000E+00  0.22873370162E+04  0.22873370162E+04  0.00000000000E+00 0. -1.
         -1   -1    0    0    0  501 -0.00000000000E+00 -0.00000000000E+00 -0.10842276423E+04  0.10842276423E+04  0.00000000000E+00 0.  1.
         23    2    1    2    0    0 -0.12895791635E+04 -0.22507367599E+02 -0.14233660561E+03  0.13005907302E+04  0.88065531014E+02 0.  0.
        254    2    1    2    0    0  0.12895791635E+04  0.22507367599E+02  0.13454459796E+04  0.20709739283E+04  0.90287713848E+03 0.  0.
        -24    2    4    4    0    0  0.11482027360E+04  0.34756084005E+03  0.93827325307E+03  0.15251293036E+04  0.80589297659E+02 0.  0.
         24    2    4    4    0    0  0.14137642750E+03 -0.32505347245E+03  0.40717272650E+03  0.54584462465E+03  0.80682531263E+02 0.  0.
         11    1    3    3    0    0 -0.81394065568E+01 -0.69096488516E+01 -0.47693069356E+01  0.11693565538E+02  0.00000000000E+00 0. -1.
        -11    1    3    3    0    0 -0.12814397569E+04 -0.15597718747E+02 -0.13756729867E+03  0.12888971647E+04  0.00000000000E+00 0.  1.
          2    1    6    6  502    0  0.12848005938E+03 -0.30921180711E+03  0.34661604595E+03  0.48193542163E+03  0.00000000000E+00 0. -1.
          1    1    5    5  503    0  0.60751050975E+03  0.18729126746E+03  0.54793482489E+03  0.83927326340E+03  0.00000000000E+00 0. -1.
         -4    1    5    5    0  503  0.54069222622E+03  0.16026957259E+03  0.39033842818E+03  0.68585604022E+03  0.00000000000E+00 0.  1.
         -1    1    6    6    0  502  0.12896368116E+02 -0.15841665344E+02  0.60556680548E+02  0.63909203018E+02  0.00000000000E+00 0.  1.
<mgrwt>
<rscale>  0 0.31495994E+04</rscale>
<asrwt>0</asrwt>
<pdfrwt beam="1">  1        1 0.35189800E+00 0.31495994E+04</pdfrwt>
<pdfrwt beam="2">  1       -1 0.16680425E+00 0.31495994E+04</pdfrwt>
<totfact> 0.41445745E-01</totfact>
</mgrwt>
</event>
<event>
12    1  0.1397649E-007  0.1668201E+04  0.7818608E-02  0.8779711E-01
          2   -1    0    0  501    0  0.00000000000E+00  0.00000000000E+00  0.15733199992E+04  0.15733199992E+04  0.00000000000E+00 0.  1.
         -2   -1    0    0    0  501 -0.00000000000E+00 -0.00000000000E+00 -0.44220114138E+03  0.44220114138E+03  0.00000000000E+00 0. -1.
         23    2    1    2    0    0 -0.40007337587E+03 -0.39432418821E+03  0.38136149188E+03  0.68590839754E+03  0.97383113729E+02 0.  0.
        254    2    1    2    0    0  0.40007337587E+03  0.39432418821E+03  0.74975736596E+03  0.13296127431E+04  0.94349545162E+03 0.  0.
        -24    2    4    4    0    0 -0.11929714846E+03  0.52013229429E+03  0.49552605585E+03  0.73248060420E+03  0.78818464238E+02 0.  0.
         24    2    4    4    0    0  0.51937052432E+03 -0.12580810608E+03  0.25423131011E+03  0.59713213887E+03  0.79748424042E+02 0.  0.
         11    1    3    3    0    0 -0.11423270550E+03 -0.14838587906E+03  0.81934423959E+02  0.20440335110E+03  0.00000000000E+00 0. -1.
        -11    1    3    3    0    0 -0.28584067037E+03 -0.24593830915E+03  0.29942706792E+03  0.48150504644E+03  0.00000000000E+00 0.  1.
          4    1    6    6  502    0  0.34013287086E+03 -0.59578414544E+02  0.19751972438E+03  0.39781151169E+03  0.00000000000E+00 0. -1.
          3    1    5    5  503    0 -0.76199492524E+02  0.16566249613E+03  0.16771402305E+03  0.24774668275E+03  0.00000000000E+00 0. -1.
         -4    1    5    5    0  503 -0.43097655932E+02  0.35446979817E+03  0.32781203279E+03  0.48473392145E+03  0.00000000000E+00 0.  1.
         -1    1    6    6    0  502  0.17923765347E+03 -0.66229691538E+02  0.56711585733E+02  0.19932062718E+03  0.00000000000E+00 0.  1.
<mgrwt>
<rscale>  0 0.16682013E+04</rscale>
<asrwt>0</asrwt>
<pdfrwt beam="1">  1        2 0.24204923E+00 0.16682013E+04</pdfrwt>
<pdfrwt beam="2">  1       -2 0.68030945E-01 0.16682013E+04</pdfrwt>
<totfact> 0.21779349E+01</totfact>
</mgrwt>
</event>
<event>
12    1  0.1397649E-007  0.2197137E+04  0.7818608E-02  0.8519621E-01
          2   -1    0    0  501    0  0.00000000000E+00  0.00000000000E+00  0.22684820943E+04  0.22684820943E+04  0.00000000000E+00 0. -1.
         -2   -1    0    0    0  501 -0.00000000000E+00 -0.00000000000E+00 -0.53200904597E+03  0.53200904597E+03  0.00000000000E+00 0.  1.
         23    2    1    2    0    0 -0.68439035141E+03  0.45680049343E+03  0.23108217691E+03  0.85945018685E+03  0.90547265536E+02 0.  0.
        254    2    1    2    0    0  0.68439035141E+03 -0.45680049343E+03  0.15053908714E+04  0.19410409534E+04  0.90795454909E+03 0.  0.
        -24    2    4    4    0    0  0.80576063002E+03 -0.19140799699E+03  0.13840164519E+04  0.16148198970E+04  0.79085689646E+02 0.  0.
         24    2    4    4    0    0 -0.12137027862E+03 -0.26539249644E+03  0.12137441953E+03  0.32622105647E+03  0.80774415908E+02 0.  0.
         13    1    3    3    0    0 -0.12947632357E+03  0.88760422337E+02  0.81955139000E+02  0.17708522171E+03  0.00000000000E+00 0. -1.
        -13    1    3    3    0    0 -0.55491402783E+03  0.36804007109E+03  0.14912703791E+03  0.68236496514E+03  0.00000000000E+00 0.  1.
          2    1    6    6  502    0 -0.29095994836E+02 -0.67643782102E+02 -0.54293081430E+01  0.73835869057E+02  0.00000000000E+00 0. -1.
          3    1    5    5  503    0  0.60635312641E+02 -0.36220442420E+02  0.10777665825E+03  0.12885794369E+03  0.00000000000E+00 0. -1.
         -4    1    5    5    0  503  0.74512531738E+03 -0.15518755457E+03  0.12762397937E+04  0.14859619533E+04  0.00000000000E+00 0.  1.
         -1    1    6    6    0  502 -0.92274283780E+02 -0.19774871434E+03  0.12680372768E+03  0.25238518741E+03  0.00000000000E+00 0.  1.
<mgrwt>
<rscale>  0 0.21971372E+04</rscale>
<asrwt>0</asrwt>
<pdfrwt beam="1">  1        2 0.34899724E+00 0.21971372E+04</pdfrwt>
<pdfrwt beam="2">  1       -2 0.81847547E-01 0.21971372E+04</pdfrwt>
<totfact> 0.56697436E+00</totfact>
</mgrwt>
</event>
<event>
12    1  0.1397649E-007  0.1140781E+04  0.7818608E-02  0.9166331E-01
          2   -1    0    0  501    0  0.00000000000E+00  0.00000000000E+00  0.97665030963E+03  0.97665030963E+03  0.00000000000E+00 0.  1.
         -2   -1    0    0    0  501 -0.00000000000E+00 -0.00000000000E+00 -0.33312339026E+03  0.33312339026E+03  0.00000000000E+00 0. -1.
         23    2    1    2    0    0 -0.28033901409E+02  0.76687270779E+02  0.30870776406E+03  0.33114076589E+03  0.87674888722E+02 0.  0.
        254    2    1    2    0    0  0.28033901409E+02 -0.76687270779E+02  0.33481915531E+03  0.97863293400E+03  0.91594307444E+03 0.  0.
        -24    2    4    4    0    0 -0.14045460110E+03  0.29559933092E+03 -0.12517046196E+03  0.35822806575E+03  0.74520085455E+02 0.  0.
         24    2    4    4    0    0  0.16848850251E+03 -0.37228660170E+03  0.45998961727E+03  0.62040486824E+03  0.79536552996E+02 0.  0.
         13    1    3    3    0    0  0.31308076506E+02  0.30566470283E+02  0.94707083016E+02  0.10432610571E+03  0.00000000000E+00 0. -1.
        -13    1    3    3    0    0 -0.59341977915E+02  0.46120800497E+02  0.21400068105E+03  0.22681466017E+03  0.00000000000E+00 0.  1.
          4    1    6    6  502    0  0.15633227577E+03 -0.26110389521E+03  0.32929994065E+03  0.44838986993E+03  0.00000000000E+00 0. -1.
          1    1    5    5  503    0 -0.81635257096E+01 -0.26695146731E+01 -0.73918909495E+01  0.11331792109E+02  0.00000000000E+00 0. -1.
         -2    1    5    5    0  503 -0.13229107539E+03  0.29826884559E+03 -0.11777857101E+03  0.34689627364E+03  0.00000000000E+00 0.  1.
         -3    1    6    6    0  502  0.12156226739E+02 -0.11118270649E+03  0.13068967661E+03  0.17201499831E+03  0.00000000000E+00 0.  1.
<mgrwt>
<rscale>  0 0.11407805E+04</rscale>
<asrwt>0</asrwt>
<pdfrwt beam="1">  1        2 0.15025389E+00 0.11407805E+04</pdfrwt>
<pdfrwt beam="2">  1       -2 0.51249753E-01 0.11407805E+04</pdfrwt>
<totfact> 0.92918993E+01</totfact>
</mgrwt>
</event>
<event>
12    1  0.1397649E-007  0.1486261E+04  0.7818608E-02  0.8893641E-01
          2   -1    0    0  501    0  0.00000000000E+00  0.00000000000E+00  0.25119405174E+04  0.25119405174E+04  0.00000000000E+00 0. -1.
         -2   -1    0    0    0  501 -0.00000000000E+00 -0.00000000000E+00 -0.21984708594E+03  0.21984708594E+03  0.00000000000E+00 0.  1.
         23    2    1    2    0    0  0.20943986562E+03 -0.33659300312E+03  0.28581860727E+03  0.49755904549E+03  0.93342489921E+02 0.  0.
        254    2    1    2    0    0 -0.20943986562E+03  0.33659300312E+03  0.20062748242E+04  0.22342285578E+04  0.89971032643E+03 0.  0.
        -24    2    4    4    0    0 -0.11407494026E+03 -0.24461934930E+03  0.23684577926E+03  0.36765598779E+03  0.78887794740E+02 0.  0.
         24    2    4    4    0    0 -0.95364925365E+02  0.58121235241E+03  0.17694290449E+04  0.18665725700E+04  0.79446502035E+02 0.  0.
         11    1    3    3    0    0  0.18712936566E+03 -0.33609299654E+03  0.26574259542E+03  0.46754147285E+03  0.00000000000E+00 0.  1.
        -11    1    3    3    0    0  0.22310499963E+02 -0.50000657893E+00  0.20076011854E+02  0.30017572639E+02  0.00000000000E+00 0. -1.
          2    1    6    6  502    0 -0.16938472739E+02  0.32344724232E+03  0.91187219953E+03  0.96768586778E+03  0.00000000000E+00 0. -1.
          1    1    5    5  503    0  0.96056879416E+01 -0.42777351998E+02  0.28369721755E+02  0.52220802342E+02  0.00000000000E+00 0. -1.
         -2    1    5    5    0  503 -0.12368062820E+03 -0.20184199730E+03  0.20847605751E+03  0.31543518545E+03  0.00000000000E+00 0.  1.
         -1    1    6    6    0  502 -0.78426452626E+02  0.25776511009E+03  0.85755684538E+03  0.89888670227E+03  0.00000000000E+00 0.  1.
<mgrwt>
<rscale>  0 0.14862608E+04</rscale>
<asrwt>0</asrwt>
<pdfrwt beam="1">  1        2 0.38645237E+00 0.14862608E+04</pdfrwt>
<pdfrwt beam="2">  1       -2 0.33822630E-01 0.14862608E+04</pdfrwt>
<totfact> 0.27180495E+01</totfact>
</mgrwt>
</event>
<event>
12    1  0.1397649E-007  0.1825060E+04  0.7818608E-02  0.8693085E-01
         -2   -1    0    0    0  501 -0.00000000000E+00  0.00000000000E+00  0.79060915555E+03  0.79060915555E+03  0.00000000000E+00 0.  1.
          2   -1    0    0  501    0  0.00000000000E+00 -0.00000000000E+00 -0.10532525995E+04  0.10532525995E+04  0.00000000000E+00 0. -1.
         23    2    1    2    0    0  0.40061863715E+03  0.37065077810E+02 -0.66499741860E+03  0.78283590461E+03  0.93495317394E+02 0.  0.
        254    2    1    2    0    0 -0.40061863715E+03 -0.37065077810E+02  0.40235397464E+03  0.10610258505E+04  0.89555458906E+03 0.  0.
        -24    2    4    4    0    0 -0.54212465309E+03  0.52813507093E+02 -0.68671345995E+02  0.55466607325E+03  0.79058794844E+02 0.  0.
         24    2    4    4    0    0  0.14150601594E+03 -0.89878584902E+02  0.47102532064E+03  0.50635977720E+03  0.80207597580E+02 0.  0.
         13    1    3    3    0    0  0.52970615570E+01  0.86467915315E+01 -0.51213812964E+02  0.52208050176E+02  0.00000000000E+00 0.  1.
        -13    1    3    3    0    0  0.39532157559E+03  0.28418286278E+02 -0.61378360564E+03  0.73062785443E+03  0.00000000000E+00 0. -1.
          4    1    6    6  502    0  0.39374276196E+01 -0.30096955732E+02  0.13509356438E+03  0.13846155140E+03  0.00000000000E+00 0. -1.
          1    1    5    5  503    0 -0.19158467468E+03 -0.11147598009E+02 -0.47557235629E+02  0.19771354828E+03  0.00000000000E+00 0. -1.
         -2    1    5    5    0  503 -0.35053997841E+03  0.63961105102E+02 -0.21114110366E+02  0.35695252498E+03  0.00000000000E+00 0.  1.
         -3    1    6    6    0  502  0.13756858832E+03 -0.59781629170E+02  0.33593175626E+03  0.36789822579E+03  0.00000000000E+00 0.  1.
<mgrwt>
<rscale>  0 0.18250602E+04</rscale>
<asrwt>0</asrwt>
<pdfrwt beam="1">  1        2 0.16203886E+00 0.18250602E+04</pdfrwt>
<pdfrwt beam="2">  1       -2 0.12163218E+00 0.18250602E+04</pdfrwt>
<totfact> 0.11271261E+01</totfact>
</mgrwt>
</event>
<event>
12    1  0.2077686E-007  0.2297295E+04  0.7818608E-02  0.8478988E-01
          2   -1    0    0  501    0  0.00000000000E+00  0.00000000000E+00  0.21178950593E+04  0.21178950593E+04  0.00000000000E+00 0.  1.
         -2   -1    0    0    0  501 -0.00000000000E+00 -0.00000000000E+00 -0.62297294833E+03  0.62297294833E+03  0.00000000000E+00 0. -1.
         23    2    1    2    0    0 -0.43043338613E+03 -0.74054137592E+03  0.58268826611E+02  0.86329970635E+03  0.90646000912E+02 0.  0.
        254    2    1    2    0    0  0.43043338613E+03  0.74054137592E+03  0.14366532844E+04  0.18775683013E+04  0.85300389049E+03 0.  0.
        -24    2    4    4    0    0  0.38612187495E+03  0.58828575226E+02  0.96271011277E+03  0.10421665008E+04  0.82154431141E+02 0.  0.
         24    2    4    4    0    0  0.44311511178E+02  0.68171280070E+03  0.47394317160E+03  0.83540180051E+03  0.81106015342E+02 0.  0.
         11    1    3    3    0    0 -0.39811058612E+03 -0.67899281052E+03  0.28330743045E+02  0.78760771106E+03  0.00000000000E+00 0. -1.
        -11    1    3    3    0    0 -0.32322800013E+02 -0.61548565407E+02  0.29938083566E+02  0.75691995297E+02  0.00000000000E+00 0.  1.
          2    1    6    6  502    0  0.52548300769E+02  0.59509887601E+03  0.38355094020E+03  0.70994036360E+03  0.00000000000E+00 0. -1.
          3    1    5    5  503    0  0.28915407484E+03  0.50768670149E+02  0.80492522126E+03  0.85679177674E+03  0.00000000000E+00 0. -1.
         -2    1    5    5    0  503  0.96967800108E+02  0.80599050770E+01  0.15778489152E+03  0.18537472405E+03  0.00000000000E+00 0.  1.
         -1    1    6    6    0  502 -0.82367895915E+01  0.86613924684E+02  0.90392231400E+02  0.12546143690E+03  0.00000000000E+00 0.  1.
<mgrwt>
<rscale>  0 0.22972952E+04</rscale>
<asrwt>0</asrwt>
<pdfrwt beam="1">  1        2 0.32583001E+00 0.22972952E+04</pdfrwt>
<pdfrwt beam="2">  1       -2 0.95841993E-01 0.22972952E+04</pdfrwt>
<totfact> 0.47530783E+00</totfact>
</mgrwt>
</event>
<event>
12    1  0.1397649E-007  0.2980008E+04  0.7818608E-02  0.8249463E-01
         -1   -1    0    0    0  501 -0.00000000000E+00  0.00000000000E+00  0.98666944450E+03  0.98666944450E+03  0.00000000000E+00 0.  1.
          1   -1    0    0  501    0  0.00000000000E+00 -0.00000000000E+00 -0.22501070033E+04  0.22501070033E+04  0.00000000000E+00 0. -1.
         23    2    1    2    0    0  0.53608623060E+03  0.34912675014E+03  0.71917465761E+03  0.96731658008E+03  0.95975224116E+02 0.  0.
        254    2    1    2    0    0 -0.53608623060E+03 -0.34912675014E+03 -0.19826122164E+04  0.22694598677E+04  0.90023272339E+03 0.  0.
        -24    2    4    4    0    0 -0.50920549058E+03 -0.62286534513E+03 -0.15858355844E+04  0.17800662469E+04  0.80683783275E+02 0.  0.
         24    2    4    4    0    0 -0.26880740018E+02  0.27373859499E+03 -0.39677663196E+03  0.48939362076E+03  0.80118835478E+02 0.  0.
         13    1    3    3    0    0  0.53483818425E+03  0.33170117156E+03  0.69703269588E+03  0.93911241589E+03  0.00000000000E+00 0.  1.
        -13    1    3    3    0    0  0.12480463502E+01  0.17425578579E+02  0.22141961733E+02  0.28204164194E+02  0.00000000000E+00 0. -1.
          2    1    6    6  502    0 -0.29444647945E+02  0.84526077658E+02 -0.78208809430E+02  0.11886236986E+03  0.00000000000E+00 0. -1.
          3    1    5    5  503    0 -0.17193364155E+03 -0.17587362172E+03 -0.41972240594E+03  0.48647672705E+03  0.00000000000E+00 0. -1.
         -4    1    5    5    0  503 -0.33727184903E+03 -0.44699172341E+03 -0.11661131785E+04  0.12935895199E+04  0.00000000000E+00 0.  1.
         -3    1    6    6    0  502  0.25639079270E+01  0.18921251733E+03 -0.31856782253E+03  0.37053125090E+03  0.00000000000E+00 0.  1.
<mgrwt>
<rscale>  0 0.29800079E+04</rscale>
<asrwt>0</asrwt>
<pdfrwt beam="1">  1        1 0.34617031E+00 0.29800079E+04</pdfrwt>
<pdfrwt beam="2">  1       -1 0.15179530E+00 0.29800079E+04</pdfrwt>
<totfact> 0.57978789E-01</totfact>
</mgrwt>
</event>
<event>
12    1  0.1397649E-007  0.1770763E+04  0.7818608E-02  0.8722004E-01
          4   -1    0    0  501    0  0.00000000000E+00  0.00000000000E+00  0.62829291272E+03  0.62829291272E+03  0.00000000000E+00 0. -1.
         -4   -1    0    0    0  501 -0.00000000000E+00 -0.00000000000E+00 -0.12476670348E+04  0.12476670348E+04  0.00000000000E+00 0.  1.
         23    2    1    2    0    0  0.31313270012E+03 -0.32024775667E+03  0.27693439138E+03  0.53586049698E+03  0.99212406266E+02 0.  0.
        254    2    1    2    0    0 -0.31313270012E+03  0.32024775667E+03 -0.89630851344E+03  0.13400994505E+04  0.88988025740E+03 0.  0.
        -24    2    4    4    0    0 -0.49219746932E+03  0.23404248499E+03 -0.16062690347E+03  0.57401430356E+03  0.81591574228E+02 0.  0.
         24    2    4    4    0    0  0.17906476921E+03  0.86205271674E+02 -0.73568160997E+03  0.76608514697E+03  0.78507838614E+02 0.  0.
         11    1    3    3    0    0  0.22958454876E+02 -0.48505212142E+02  0.43581364251E+01  0.53840873027E+02  0.00000000000E+00 0.  1.
        -11    1    3    3    0    0  0.29017424524E+03 -0.27174254453E+03  0.27257625496E+03  0.48201962395E+03  0.00000000000E+00 0. -1.
          4    1    6    6  502    0 -0.62973765780E+01 -0.37144487985E+01 -0.34354583200E+02  0.35123944375E+02  0.00000000000E+00 0. -1.
          1    1    5    5  503    0  0.74341461676E+00 -0.18551594534E+01 -0.56393257780E+01  0.59829990072E+01  0.00000000000E+00 0. -1.
         -2    1    5    5    0  503 -0.49294088394E+03  0.23589764445E+03 -0.15498757770E+03  0.56803130456E+03  0.00000000000E+00 0.  1.
         -3    1    6    6    0  502  0.18536214578E+03  0.89919720472E+02 -0.70132702677E+03  0.73096120259E+03  0.00000000000E+00 0.  1.
<mgrwt>
<rscale>  0 0.17707629E+04</rscale>
<asrwt>0</asrwt>
<pdfrwt beam="1">  1        4 0.96660449E-01 0.17707629E+04</pdfrwt>
<pdfrwt beam="2">  1       -4 0.19194877E+00 0.17707629E+04</pdfrwt>
<totfact> 0.25236347E-01</totfact>
</mgrwt>
</event>
<event>
12    1  0.1397649E-007  0.2858135E+04  0.7818608E-02  0.8285443E-01
          1   -1    0    0  501    0  0.00000000000E+00  0.00000000000E+00  0.16847030170E+04  0.16847030170E+04  0.00000000000E+00 0. -1.
         -1   -1    0    0    0  501 -0.00000000000E+00 -0.00000000000E+00 -0.12122222859E+04  0.12122222859E+04  0.00000000000E+00 0.  1.
         23    2    1    2    0    0  0.56241470613E+03  0.38083076809E+03  0.13172997489E+04  0.14848221621E+04  0.89865727896E+02 0.  0.
        254    2    1    2    0    0 -0.56241470613E+03 -0.38083076809E+03 -0.84481901784E+03  0.14121031408E+04  0.90497167450E+03 0.  0.
        -24    2    4    4    0    0 -0.11081054269E+03  0.25068813534E+03 -0.35782820388E+02  0.28799022241E+03  0.80835885580E+02 0.  0.
         24    2    4    4    0    0 -0.45160416344E+03 -0.63151890343E+03 -0.80903619746E+03  0.11241129183E+04  0.79547712590E+02 0.  0.
         13    1    3    3    0    0  0.11068720097E+03  0.34657939636E+02  0.22895954170E+03  0.25666184167E+03  0.00000000000E+00 0.  1.
        -13    1    3    3    0    0  0.45172750516E+03  0.34617282845E+03  0.10883402072E+04  0.12281603205E+04  0.00000000000E+00 0. -1.
          4    1    6    6  502    0 -0.31432263466E+03 -0.45833035629E+03 -0.62650328397E+03  0.83747943197E+03  0.00000000000E+00 0. -1.
          3    1    5    5  503    0 -0.10271348633E+03  0.24939917786E+03 -0.20317881229E+02  0.27048627782E+03  0.00000000000E+00 0. -1.
         -4    1    5    5    0  503 -0.80970563581E+01  0.12889574815E+01 -0.15464939159E+02  0.17503944591E+02  0.00000000000E+00 0.  1.
         -3    1    6    6    0  502 -0.13728152879E+03 -0.17318854714E+03 -0.18253291349E+03  0.28663348638E+03  0.00000000000E+00 0.  1.
<mgrwt>
<rscale>  0 0.28581354E+04</rscale>
<asrwt>0</asrwt>
<pdfrwt beam="1">  1        1 0.25918508E+00 0.28581354E+04</pdfrwt>
<pdfrwt beam="2">  1       -1 0.18649574E+00 0.28581354E+04</pdfrwt>
<totfact> 0.78667616E-01</totfact>
</mgrwt>
</event>
<event>
12    1  0.1397649E-007  0.2743740E+04  0.7818608E-02  0.8320951E-01
          2   -1    0    0  501    0  0.00000000000E+00  0.00000000000E+00  0.77104057297E+03  0.77104057297E+03  0.00000000000E+00 0. -1.
         -2   -1    0    0    0  501 -0.00000000000E+00 -0.00000000000E+00 -0.24408923332E+04  0.24408923332E+04  0.00000000000E+00 0.  1.
         23    2    1    2    0    0  0.31566453333E+03 -0.34290844827E+03  0.58019068210E+03  0.74971565604E+03  0.90675442224E+02 0.  0.
        254    2    1    2    0    0 -0.31566453333E+03  0.34290844827E+03 -0.22500424423E+04  0.24622172501E+04  0.88464257927E+03 0.  0.
        -24    2    4    4    0    0 -0.35390669256E+03 -0.17663679749E+03 -0.14435874719E+04  0.14989012373E+04  0.79433146472E+02 0.  0.
         24    2    4    4    0    0  0.38242159231E+02  0.51954524577E+03 -0.80645497037E+03  0.96331601282E+03  0.78856808043E+02 0.  0.
         13    1    3    3    0    0  0.17872976814E+03 -0.23605797609E+03  0.31144427466E+03  0.42972692994E+03  0.00000000000E+00 0. -1.
        -13    1    3    3    0    0  0.13693476520E+03 -0.10685047218E+03  0.26874640744E+03  0.31998872611E+03  0.00000000000E+00 0.  1.
          4    1    6    6  502    0 -0.22282685982E+02  0.75285974951E+02 -0.11831823461E+03  0.14199894633E+03  0.00000000000E+00 0. -1.
          3    1    5    5  503    0 -0.26258024655E+03 -0.16786264848E+03 -0.11237685236E+04  0.11661826398E+04  0.00000000000E+00 0. -1.
         -4    1    5    5    0  503 -0.91326446018E+02 -0.87741490114E+01 -0.31981894829E+03  0.33271859750E+03  0.00000000000E+00 0.  1.
         -3    1    6    6    0  502  0.60524845213E+02  0.44425927082E+03 -0.68813673576E+03  0.82131706648E+03  0.00000000000E+00 0.  1.
<mgrwt>
<rscale>  0 0.27437398E+04</rscale>
<asrwt>0</asrwt>
<pdfrwt beam="1">  1        2 0.11862163E+00 0.27437398E+04</pdfrwt>
<pdfrwt beam="2">  1       -2 0.37552189E+00 0.27437398E+04</pdfrwt>
<totfact> 0.33828165E-01</totfact>
</mgrwt>
</event>
<event>
12    1  0.1397649E-007  0.2275518E+04  0.7818608E-02  0.8487637E-01
          1   -1    0    0  501    0  0.00000000000E+00  0.00000000000E+00  0.50085635412E+03  0.50085635412E+03  0.00000000000E+00 0. -1.
         -1   -1    0    0    0  501 -0.00000000000E+00 -0.00000000000E+00 -0.25845648127E+04  0.25845648127E+04  0.00000000000E+00 0.  1.
         23    2    1    2    0    0  0.74039724494E+02 -0.42665264954E+03  0.27966755620E+03  0.52063658918E+03  0.73035278022E+02 0.  0.
        254    2    1    2    0    0 -0.74039724494E+02  0.42665264954E+03 -0.23633760148E+04  0.25647845777E+04  0.89725101191E+03 0.  0.
        -24    2    4    4    0    0 -0.19920853037E+03  0.17365582174E+03 -0.22214609485E+04  0.22385865254E+04  0.80873375104E+02 0.  0.
         24    2    4    4    0    0  0.12516880587E+03  0.25299682780E+03 -0.14191506626E+03  0.32619805228E+03  0.81182870335E+02 0.  0.
         11    1    3    3    0    0  0.12720562812E+02 -0.11546204053E+02  0.16012037191E+01  0.17253735817E+02  0.00000000000E+00 0.  1.
        -11    1    3    3    0    0  0.61319161682E+02 -0.41510644549E+03  0.27806635248E+03  0.50338285336E+03  0.00000000000E+00 0. -1.
          4    1    6    6  502    0  0.11932109023E+03  0.17020156375E+03 -0.80323950389E+02  0.22284082185E+03  0.00000000000E+00 0. -1.
          3    1    5    5  503    0 -0.13158216003E+03  0.75754931467E+02 -0.14617388525E+04  0.14696030577E+04  0.00000000000E+00 0. -1.
         -4    1    5    5    0  503 -0.67626370343E+02  0.97900890269E+02 -0.75972209606E+03  0.76898346765E+03  0.00000000000E+00 0.  1.
         -3    1    6    6    0  502  0.58477156483E+01  0.82795264054E+02 -0.61591115872E+02  0.10335723043E+03  0.00000000000E+00 0.  1.
<mgrwt>
<rscale>  0 0.22755181E+04</rscale>
<asrwt>0</asrwt>
<pdfrwt beam="1">  1        1 0.77054823E-01 0.22755181E+04</pdfrwt>
<pdfrwt beam="2">  1       -1 0.39762536E+00 0.22755181E+04</pdfrwt>
<totfact> 0.29763081E-01</totfact>
</mgrwt>
</event>
<event>
12    1  0.1397649E-007  0.4193099E+04  0.7818608E-02  0.7966686E-01
          2   -1    0    0  501    0  0.00000000000E+00  0.00000000000E+00  0.27140831149E+04  0.27140831149E+04  0.00000000000E+00 0. -1.
         -2   -1    0    0    0  501 -0.00000000000E+00 -0.00000000000E+00 -0.16195226880E+04  0.16195226880E+04  0.00000000000E+00 0.  1.
         23    2    1    2    0    0  0.25984713277E+03  0.92814941605E+03  0.23327534767E+04  0.25257203230E+04  0.92425624497E+02 0.  0.
        254    2    1    2    0    0 -0.25984713277E+03 -0.92814941605E+03 -0.12381930498E+04  0.18078854799E+04  0.89796771035E+03 0.  0.
        -24    2    4    4    0    0  0.17306729868E+03 -0.84746529909E+03 -0.80606520758E+03  0.11854171916E+04  0.85574973888E+02 0.  0.
         24    2    4    4    0    0 -0.43291443146E+03 -0.80684116967E+02 -0.43212784224E+03  0.62246828832E+03  0.82507370802E+02 0.  0.
         13    1    3    3    0    0  0.22044624612E+02  0.13863362443E+03  0.41911020144E+03  0.44199390069E+03  0.00000000000E+00 0.  1.
        -13    1    3    3    0    0  0.23780250816E+03  0.78951579163E+03  0.19136432753E+04  0.20837264224E+04  0.00000000000E+00 0. -1.
          2    1    6    6  502    0 -0.39864562565E+03 -0.93274875887E+02 -0.37832471030E+03  0.55744786640E+03  0.00000000000E+00 0. -1.
          3    1    5    5  503    0  0.12902367218E+03 -0.60494137440E+03 -0.62695674023E+03  0.88072466103E+03  0.00000000000E+00 0. -1.
         -4    1    5    5    0  503  0.44043626508E+02 -0.24252392469E+03 -0.17910846735E+03  0.30469253053E+03  0.00000000000E+00 0.  1.
         -1    1    6    6    0  502 -0.34268805801E+02  0.12590758920E+02 -0.53803131938E+02  0.65020421927E+02  0.00000000000E+00 0.  1.
<mgrwt>
<rscale>  0 0.41930987E+04</rscale>
<asrwt>0</asrwt>
<pdfrwt beam="1">  1        2 0.41755125E+00 0.41930987E+04</pdfrwt>
<pdfrwt beam="2">  1       -2 0.24915734E+00 0.41930987E+04</pdfrwt>
<totfact> 0.13154392E-01</totfact>
</mgrwt>
</event>
<event>
12    1  0.1397649E-007  0.2009491E+04  0.7818608E-02  0.8602196E-01
         -2   -1    0    0    0  501 -0.00000000000E+00  0.00000000000E+00  0.18422840768E+03  0.18422840768E+03  0.00000000000E+00 0.  1.
          2   -1    0    0  501    0  0.00000000000E+00 -0.00000000000E+00 -0.54796848351E+04  0.54796848351E+04  0.00000000000E+00 0. -1.
         23    2    1    2    0    0 -0.65031016887E+03  0.92883100578E+02 -0.34258621024E+04  0.34895018742E+04  0.92528911571E+02 0.  0.
        254    2    1    2    0    0  0.65031016887E+03 -0.92883100578E+02 -0.18695943250E+04  0.21744113685E+04  0.89507054103E+03 0.  0.
        -24    2    4    4    0    0  0.24460715802E+03  0.33639897967E+03 -0.37641524064E+03  0.56648827291E+03  0.78889762818E+02 0.  0.
         24    2    4    4    0    0  0.40570301085E+03 -0.42928208025E+03 -0.14931790843E+04  0.16079230956E+04  0.83395839480E+02 0.  0.
         11    1    3    3    0    0 -0.56312661637E+03  0.75257157825E+02 -0.27723718509E+04  0.28299860257E+04  0.00000000000E+00 0. -1.
        -11    1    3    3    0    0 -0.87183552506E+02  0.17625942753E+02 -0.65349025154E+03  0.65951584859E+03  0.00000000000E+00 0.  1.
          2    1    6    6  502    0  0.16644610812E+03 -0.23561467662E+03 -0.74444182626E+03  0.79838099641E+03  0.00000000000E+00 0. -1.
          3    1    5    5  503    0  0.22750995557E+03  0.28936915679E+03 -0.35709464699E+03  0.51284683454E+03  0.00000000000E+00 0. -1.
         -4    1    5    5    0  503  0.17097202458E+02  0.47029822876E+02 -0.19320593650E+02  0.53641438372E+02  0.00000000000E+00 0.  1.
         -1    1    6    6    0  502  0.23925690273E+03 -0.19366740363E+03 -0.74873725807E+03  0.80954209918E+03  0.00000000000E+00 0.  1.
<mgrwt>
<rscale>  0 0.20094911E+04</rscale>
<asrwt>0</asrwt>
<pdfrwt beam="1">  1        2 0.84302828E+00 0.20094911E+04</pdfrwt>
<pdfrwt beam="2">  1       -2 0.28342837E-01 0.20094911E+04</pdfrwt>
<totfact> 0.71613978E-02</totfact>
</mgrwt>
</event>
<event>
12    1  0.1397649E-007  0.1318587E+04  0.7818608E-02  0.9014954E-01
          2   -1    0    0  501    0  0.00000000000E+00  0.00000000000E+00  0.13065682212E+04  0.13065682212E+04  0.00000000000E+00 0. -1.
         -2   -1    0    0    0  501 -0.00000000000E+00 -0.00000000000E+00 -0.33267894460E+03  0.33267894460E+03  0.00000000000E+00 0.  1.
         23    2    1    2    0    0 -0.14760959740E+02 -0.16325262412E+03  0.63633075452E+03  0.66371014956E+03  0.93407859749E+02 0.  0.
        254    2    1    2    0    0  0.14760959740E+02  0.16325262412E+03  0.33755852212E+03  0.97553701627E+03  0.90047621237E+03 0.  0.
        -24    2    4    4    0    0 -0.22496919696E+03 -0.58930159595E+02  0.53130922499E+03  0.58553934496E+03  0.80516635820E+02 0.  0.
         24    2    4    4    0    0  0.23973015670E+03  0.22218278372E+03 -0.19375070287E+03  0.38999767132E+03  0.87881234380E+02 0.  0.
         13    1    3    3    0    0 -0.40933127935E+02 -0.10027407620E+03  0.26692275121E+03  0.28805931062E+03  0.00000000000E+00 0. -1.
        -13    1    3    3    0    0  0.26172168195E+02 -0.62978547923E+02  0.36940800331E+03  0.37565083894E+03  0.00000000000E+00 0.  1.
          2    1    6    6  502    0  0.23253383676E+03  0.22870445117E+03 -0.17819718424E+03  0.37166106562E+03  0.00000000000E+00 0. -1.
          3    1    5    5  503    0 -0.21063372062E+03 -0.74439285146E+02  0.50148519660E+03  0.54899469382E+03  0.00000000000E+00 0. -1.
         -4    1    5    5    0  503 -0.14335476343E+02  0.15509125551E+02  0.29824028386E+02  0.36544651134E+02  0.00000000000E+00 0.  1.
         -1    1    6    6    0  502  0.71963199377E+01 -0.65216674461E+01 -0.15553518627E+02  0.18336605700E+02  0.00000000000E+00 0.  1.
<mgrwt>
<rscale>  0 0.13185867E+04</rscale>
<asrwt>0</asrwt>
<pdfrwt beam="1">  1        2 0.20101049E+00 0.13185867E+04</pdfrwt>
<pdfrwt beam="2">  1       -2 0.51181377E-01 0.13185867E+04</pdfrwt>
<totfact> 0.57854058E+01</totfact>
</mgrwt>
</event>
<event>
12    1  0.1397649E-007  0.1629715E+04  0.7818608E-02  0.8802498E-01
         -2   -1    0    0    0  501 -0.00000000000E+00  0.00000000000E+00  0.31451625633E+03  0.31451625633E+03  0.00000000000E+00 0.  1.
          2   -1    0    0  501    0  0.00000000000E+00 -0.00000000000E+00 -0.21111558313E+04  0.21111558313E+04  0.00000000000E+00 0. -1.
         23    2    1    2    0    0  0.12757270668E+03  0.47520920100E+03 -0.10538300290E+04  0.11664387550E+04  0.89011566591E+02 0.  0.
        254    2    1    2    0    0 -0.12757270668E+03 -0.47520920100E+03 -0.74280954599E+03  0.12592333326E+04  0.88983368345E+03 0.  0.
        -24    2    4    4    0    0 -0.20652943989E+03  0.18653061766E+03 -0.49813751249E+02  0.29436450311E+03  0.81981522377E+02 0.  0.
         24    2    4    4    0    0  0.78956733213E+02 -0.66173981866E+03 -0.69299579474E+03  0.96486882953E+03  0.81209194937E+02 0.  0.
         11    1    3    3    0    0  0.12196412860E+03  0.41294041500E+03 -0.97487079977E+03  0.10657242191E+04  0.00000000000E+00 0. -1.
        -11    1    3    3    0    0  0.56085780731E+01  0.62268785999E+02 -0.78959229225E+02  0.10071453588E+03  0.00000000000E+00 0.  1.
          2    1    6    6  502    0  0.89304652039E+02 -0.59334025966E+03 -0.64327499278E+03  0.87967647516E+03  0.00000000000E+00 0. -1.
          3    1    5    5  503    0 -0.14998753977E+03  0.14084204668E+03  0.86085866044E+00  0.20575102740E+03  0.00000000000E+00 0. -1.
         -4    1    5    5    0  503 -0.56541900116E+02  0.45688570981E+02 -0.50674609910E+02  0.88613475705E+02  0.00000000000E+00 0.  1.
         -1    1    6    6    0  502 -0.10347918826E+02 -0.68399558997E+02 -0.49720801967E+02  0.85192354371E+02  0.00000000000E+00 0.  1.
<mgrwt>
<rscale>  0 0.16297151E+04</rscale>
<asrwt>0</asrwt>
<pdfrwt beam="1">  1        2 0.32479322E+00 0.16297151E+04</pdfrwt>
<pdfrwt beam="2">  1       -2 0.48387114E-01 0.16297151E+04</pdfrwt>
<totfact> 0.22428654E+01</totfact>
</mgrwt>
</event>
<event>
12    1  0.1397649E-007  0.1481942E+04  0.7818608E-02  0.8896551E-01
         -2   -1    0    0    0  501 -0.00000000000E+00  0.00000000000E+00  0.13801130845E+03  0.13801130845E+03  0.00000000000E+00 0.  1.
          2   -1    0    0  501    0  0.00000000000E+00 -0.00000000000E+00 -0.39782082627E+04  0.39782082627E+04  0.00000000000E+00 0. -1.
         23    2    1    2    0    0  0.37766731139E+03  0.16441194257E+03 -0.64395966898E+03  0.77034028042E+03  0.95269131422E+02 0.  0.
        254    2    1    2    0    0 -0.37766731139E+03 -0.16441194257E+03 -0.31962372852E+04  0.33458792907E+04  0.89961745173E+03 0.  0.
        -24    2    4    4    0    0  0.62459187455E+02  0.27317930854E+03 -0.50314419406E+03  0.58102509896E+03  0.76863521215E+02 0.  0.
         24    2    4    4    0    0 -0.44012649885E+03 -0.43759125111E+03 -0.26930930912E+04  0.27648541917E+04  0.80441691930E+02 0.  0.
         13    1    3    3    0    0  0.44262345137E+01 -0.74285184565E+01 -0.32599564358E+02  0.33726933374E+02  0.00000000000E+00 0. -1.
        -13    1    3    3    0    0  0.37324107688E+03  0.17184046103E+03 -0.61136010462E+03  0.73661334704E+03  0.00000000000E+00 0.  1.
          4    1    6    6  502    0 -0.26690936109E+02 -0.55257149369E+02 -0.32341343511E+03  0.32918385234E+03  0.00000000000E+00 0. -1.
          1    1    5    5  503    0  0.57825969039E+01  0.46723527416E+02 -0.37675124136E+02  0.60298767979E+02  0.00000000000E+00 0. -1.
         -2    1    5    5    0  503  0.56676590552E+02  0.22645578112E+03 -0.46546906992E+03  0.52072633098E+03  0.00000000000E+00 0.  1.
         -3    1    6    6    0  502 -0.41343556274E+03 -0.38233410174E+03 -0.23696796561E+04  0.24356703394E+04  0.00000000000E+00 0.  1.
<mgrwt>
<rscale>  0 0.14819416E+04</rscale>
<asrwt>0</asrwt>
<pdfrwt beam="1">  1        2 0.61203209E+00 0.14819416E+04</pdfrwt>
<pdfrwt beam="2">  1       -2 0.21232507E-01 0.14819416E+04</pdfrwt>
<totfact> 0.67903454E+00</totfact>
</mgrwt>
</event>
<event>
12    1  0.1397649E-007  0.2109449E+04  0.7818608E-02  0.8557093E-01
          1   -1    0    0  501    0  0.00000000000E+00  0.00000000000E+00  0.14436002811E+04  0.14436002811E+04  0.00000000000E+00 0. -1.
         -1   -1    0    0    0  501 -0.00000000000E+00 -0.00000000000E+00 -0.77060356892E+03  0.77060356892E+03  0.00000000000E+00 0.  1.
         23    2    1    2    0    0 -0.80834588632E+03 -0.13500116943E+03 -0.97235432486E+01  0.82486191194E+03  0.93028161266E+02 0.  0.
        254    2    1    2    0    0  0.80834588632E+03  0.13500116943E+03  0.68272025546E+03  0.13893419381E+04  0.89023350089E+03 0.  0.
        -24    2    4    4    0    0  0.36510067586E+03  0.24817997521E+03 -0.11716762112E+03  0.46436034594E+03  0.83728584316E+02 0.  0.
         24    2    4    4    0    0  0.44324521046E+03 -0.11317880578E+03  0.79988787658E+03  0.92498159218E+03  0.80588907975E+02 0.  0.
         13    1    3    3    0    0 -0.61127769362E+03 -0.78670532780E+02 -0.40287179130E+02  0.61763462359E+03  0.00000000000E+00 0.  1.
        -13    1    3    3    0    0 -0.19706819270E+03 -0.56330636649E+02  0.30563635882E+02  0.20722728835E+03  0.00000000000E+00 0. -1.
          4    1    6    6  502    0  0.26950290819E+03 -0.84370177641E+02  0.56237843696E+03  0.62930092226E+03  0.00000000000E+00 0. -1.
          3    1    5    5  503    0  0.21620958530E+03  0.96785650190E+02 -0.56650879871E+02  0.24356389110E+03  0.00000000000E+00 0. -1.
         -4    1    5    5    0  503  0.14889109056E+03  0.15139432502E+03 -0.60516741251E+02  0.22079645483E+03  0.00000000000E+00 0.  1.
         -3    1    6    6    0  502  0.17374230227E+03 -0.28808628141E+02  0.23750943963E+03  0.29568066992E+03  0.00000000000E+00 0.  1.
<mgrwt>
<rscale>  0 0.21094488E+04</rscale>
<asrwt>0</asrwt>
<pdfrwt beam="1">  1        1 0.22209235E+00 0.21094488E+04</pdfrwt>
<pdfrwt beam="2">  1       -1 0.11855440E+00 0.21094488E+04</pdfrwt>
<totfact> 0.41964631E+00</totfact>
</mgrwt>
</event>
<event>
12    1  0.1397649E-007  0.1268108E+04  0.7818608E-02  0.9055245E-01
          2   -1    0    0  501    0  0.00000000000E+00  0.00000000000E+00  0.28940990616E+04  0.28940990616E+04  0.00000000000E+00 0. -1.
         -2   -1    0    0    0  501 -0.00000000000E+00 -0.00000000000E+00 -0.13891184454E+03  0.13891184454E+03  0.00000000000E+00 0.  1.
         23    2    1    2    0    0 -0.12142569527E+03  0.28094177390E+03  0.70999864885E+03  0.77858371673E+03  0.91771688430E+02 0.  0.
        254    2    1    2    0    0  0.12142569527E+03 -0.28094177390E+03  0.20451885683E+04  0.22544271895E+04  0.89776009773E+03 0.  0.
        -24    2    4    4    0    0 -0.79966406544E+02 -0.68310833339E+02  0.19240728963E+04  0.19285853036E+04  0.79522116535E+02 0.  0.
         24    2    4    4    0    0  0.20139210181E+03 -0.21263094056E+03  0.12111567197E+03  0.32584188584E+03  0.75718115494E+02 0.  0.
         11    1    3    3    0    0 -0.59938331666E+02  0.13911995568E+03  0.46351040257E+03  0.48763599022E+03  0.00000000000E+00 0. -1.
        -11    1    3    3    0    0 -0.61487363600E+02  0.14182181822E+03  0.24648824628E+03  0.29094772651E+03  0.00000000000E+00 0.  1.
          4    1    6    6  502    0  0.52374271854E+02 -0.94379995826E+02  0.17909749420E+02  0.10941392548E+03  0.00000000000E+00 0. -1.
          3    1    5    5  503    0 -0.65220778600E+02 -0.31437499651E+02  0.16564939357E+04  0.16580754583E+04  0.00000000000E+00 0. -1.
         -4    1    5    5    0  503 -0.14745627944E+02 -0.36873333688E+02  0.26757896060E+03  0.27050984536E+03  0.00000000000E+00 0.  1.
         -3    1    6    6    0  502  0.14901782996E+03 -0.11825094473E+03  0.10320592255E+03  0.21642796036E+03  0.00000000000E+00 0.  1.
<mgrwt>
<rscale>  0 0.12681083E+04</rscale>
<asrwt>0</asrwt>
<pdfrwt beam="1">  1        2 0.44524597E+00 0.12681083E+04</pdfrwt>
<pdfrwt beam="2">  1       -2 0.21371055E-01 0.12681083E+04</pdfrwt>
<totfact> 0.38235687E+01</totfact>
</mgrwt>
</event>
<event>
12    1  0.1397649E-007  0.1772372E+04  0.7818608E-02  0.8721131E-01
         -2   -1    0    0    0  501 -0.00000000000E+00  0.00000000000E+00  0.38016673339E+03  0.38016673339E+03  0.00000000000E+00 0.  1.
          2   -1    0    0  501    0  0.00000000000E+00 -0.00000000000E+00 -0.20657390368E+04  0.20657390368E+04  0.00000000000E+00 0. -1.
         23    2    1    2    0    0 -0.39884119024E+03 -0.36245477639E+03 -0.11894337593E+04  0.13090310824E+04  0.91443682064E+02 0.  0.
        254    2    1    2    0    0  0.39884119024E+03  0.36245477639E+03 -0.49613854405E+03  0.11368746877E+04  0.86941522920E+03 0.  0.
        -24    2    4    4    0    0 -0.33734258261E+02 -0.16402519590E+03 -0.40409637287E+03  0.44461356155E+03  0.79655982057E+02 0.  0.
         24    2    4    4    0    0  0.43257544850E+03  0.52647997228E+03 -0.92042171179E+02  0.69226112618E+03  0.80318277434E+02 0.  0.
         11    1    3    3    0    0 -0.32187238414E+01 -0.13128896962E+02 -0.97437363205E+01  0.16663388494E+02  0.00000000000E+00 0.  1.
        -11    1    3    3    0    0 -0.39562246640E+03 -0.34932587942E+03 -0.11796900230E+04  0.12923676939E+04  0.00000000000E+00 0. -1.
          4    1    6    6  502    0  0.87847100072E+02  0.68299628070E+02 -0.31766138145E+02  0.11571966003E+03  0.00000000000E+00 0. -1.
          3    1    5    5  503    0  0.53620849999E+01 -0.76707912742E+01 -0.10009940101E+03  0.10053597902E+03  0.00000000000E+00 0. -1.
         -4    1    5    5    0  503 -0.39096343261E+02 -0.15635440462E+03 -0.30399697186E+03  0.34407758253E+03  0.00000000000E+00 0.  1.
         -3    1    6    6    0  502  0.34472834843E+03  0.45818034421E+03 -0.60276033034E+02  0.57654146615E+03  0.00000000000E+00 0.  1.
<mgrwt>
<rscale>  0 0.17723716E+04</rscale>
<asrwt>0</asrwt>
<pdfrwt beam="1">  1        2 0.31780600E+00 0.17723716E+04</pdfrwt>
<pdfrwt beam="2">  1       -2 0.58487192E-01 0.17723716E+04</pdfrwt>
<totfact> 0.15882827E+01</totfact>
</mgrwt>
</event>
<event>
12    1  0.1397649E-007  0.2008217E+04  0.7818608E-02  0.8602788E-01
          2   -1    0    0  501    0  0.00000000000E+00  0.00000000000E+00  0.33139264879E+04  0.33139264879E+04  0.00000000000E+00 0.  1.
         -2   -1    0    0    0  501 -0.00000000000E+00 -0.00000000000E+00 -0.30424152575E+03  0.30424152575E+03  0.00000000000E+00 0. -1.
         23    2    1    2    0    0 -0.40502716801E+03  0.35208463630E+03  0.13419347270E+03  0.56063103430E+03  0.91042136202E+02 0.  0.
        254    2    1    2    0    0  0.40502716801E+03 -0.35208463630E+03  0.28754914894E+04  0.30575369793E+04  0.88998341343E+03 0.  0.
        -24    2    4    4    0    0  0.65635781740E+03 -0.31933989513E+03  0.24377423162E+04  0.25459546737E+04  0.80709647257E+02 0.  0.
         24    2    4    4    0    0 -0.25133064939E+03 -0.32744741163E+02  0.43774917320E+03  0.51158230561E+03  0.76503616755E+02 0.  0.
         11    1    3    3    0    0 -0.15647604685E+03  0.15966951480E+03  0.13628150409E+02  0.22397507379E+03  0.00000000000E+00 0. -1.
        -11    1    3    3    0    0 -0.24855112116E+03  0.19241512149E+03  0.12056532229E+03  0.33665596051E+03  0.00000000000E+00 0.  1.
          2    1    6    6  502    0 -0.25305356824E+03 -0.36033572213E+02  0.40698398482E+03  0.48059389366E+03  0.00000000000E+00 0. -1.
          3    1    5    5  503    0  0.61770202457E+03 -0.31336840843E+03  0.23486280787E+04  0.24486341913E+04  0.00000000000E+00 0. -1.
         -4    1    5    5    0  503  0.38655792834E+02 -0.59714867030E+01  0.89114237482E+02  0.97320482403E+02  0.00000000000E+00 0.  1.
         -1    1    6    6    0  502  0.17229188437E+01  0.32888310497E+01  0.30765188381E+02  0.30988411949E+02  0.00000000000E+00 0.  1.
<mgrwt>
<rscale>  0 0.20082172E+04</rscale>
<asrwt>0</asrwt>
<pdfrwt beam="1">  1        2 0.50983482E+00 0.20082172E+04</pdfrwt>
<pdfrwt beam="2">  1       -2 0.46806391E-01 0.20082172E+04</pdfrwt>
<totfact> 0.43981001E+00</totfact>
</mgrwt>
</event>
<event>
12    1  0.1397649E-007  0.1353995E+04  0.7818608E-02  0.8987810E-01
          1   -1    0    0  501    0  0.00000000000E+00  0.00000000000E+00  0.38426457266E+04  0.38426457266E+04  0.00000000000E+00 0. -1.
         -1   -1    0    0    0  501 -0.00000000000E+00 -0.00000000000E+00 -0.11927341405E+03  0.11927341405E+03  0.00000000000E+00 0.  1.
         23    2    1    2    0    0 -0.14773395430E+03  0.33715238737E+03  0.10399522630E+04  0.11067398136E+04  0.88742617909E+02 0.  0.
        254    2    1    2    0    0  0.14773395430E+03 -0.33715238737E+03  0.26834200496E+04  0.28551793270E+04  0.90322133137E+03 0.  0.
        -24    2    4    4    0    0 -0.31366946890E+03 -0.18094724181E+03  0.18480988980E+04  0.18850926062E+04  0.83511419654E+02 0.  0.
         24    2    4    4    0    0  0.46140342319E+03 -0.15620514557E+03  0.83532115156E+03  0.97008672079E+03  0.77547747691E+02 0.  0.
         13    1    3    3    0    0 -0.13471141689E+03  0.25914933004E+03  0.71611543568E+03  0.77338661634E+03  0.00000000000E+00 0. -1.
        -13    1    3    3    0    0 -0.13022537403E+02  0.78003057331E+02  0.32383682728E+03  0.33335319728E+03  0.00000000000E+00 0.  1.
          4    1    6    6  502    0  0.24478186302E+03 -0.81396488786E+02  0.36565494924E+03  0.44748976609E+03  0.00000000000E+00 0. -1.
          3    1    5    5  503    0 -0.28888565491E+03 -0.18491603459E+03  0.17740907348E+04  0.18069440492E+04  0.00000000000E+00 0. -1.
         -4    1    5    5    0  503 -0.24783813985E+02  0.39687927858E+01  0.74008163163E+02  0.78148557035E+02  0.00000000000E+00 0.  1.
         -3    1    6    6    0  502  0.21662156017E+03 -0.74808656782E+02  0.46966620232E+03  0.52259695470E+03  0.00000000000E+00 0.  1.
<mgrwt>
<rscale>  0 0.13539948E+04</rscale>
<asrwt>0</asrwt>
<pdfrwt beam="1">  1        1 0.59117617E+00 0.13539948E+04</pdfrwt>
<pdfrwt beam="2">  1       -1 0.18349759E-01 0.13539948E+04</pdfrwt>
<totfact> 0.31002587E+00</totfact>
</mgrwt>
</event>
<event>
12    1  0.1397649E-007  0.1576162E+04  0.7818608E-02  0.8835328E-01
          1   -1    0    0  501    0  0.00000000000E+00  0.00000000000E+00  0.19258754095E+04  0.19258754095E+04  0.00000000000E+00 0. -1.
         -1   -1    0    0    0  501 -0.00000000000E+00 -0.00000000000E+00 -0.32248786005E+03  0.32248786005E+03  0.00000000000E+00 0.  1.
         23    2    1    2    0    0 -0.41099263812E+03  0.19252099190E+03  0.15876218595E+03  0.48928199613E+03  0.90620964094E+02 0.  0.
        254    2    1    2    0    0  0.41099263812E+03 -0.19252099190E+03  0.14446253635E+04  0.17590812734E+04  0.89523472046E+03 0.  0.
        -24    2    4    4    0    0  0.50596753129E+03 -0.12396682192E+03  0.30219407780E+03  0.60768014487E+03  0.81135578810E+02 0.  0.
         24    2    4    4    0    0 -0.94974893174E+02 -0.68554169979E+02  0.11424312856E+04  0.11514011285E+04  0.82797413930E+02 0.  0.
         13    1    3    3    0    0 -0.36288688594E+03  0.16690923792E+03  0.16920357326E+03  0.43379192580E+03  0.00000000000E+00 0. -1.
        -13    1    3    3    0    0 -0.48105752183E+02  0.25611753985E+02 -0.10441387315E+02  0.55490070322E+02  0.00000000000E+00 0.  1.
          2    1    6    6  502    0 -0.90557994337E+02 -0.17581131283E+02  0.74571205951E+03  0.75139624847E+03  0.00000000000E+00 0. -1.
          1    1    5    5  503    0  0.25792711028E+03 -0.96733584542E+02  0.18627162840E+03  0.33253706582E+03  0.00000000000E+00 0. -1.
         -2    1    5    5    0  503  0.24804042101E+03 -0.27233237381E+02  0.11592244940E+03  0.27514307905E+03  0.00000000000E+00 0.  1.
         -1    1    6    6    0  502 -0.44168988370E+01 -0.50973038695E+02  0.39671922613E+03  0.40000488004E+03  0.00000000000E+00 0.  1.
<mgrwt>
<rscale>  0 0.15761617E+04</rscale>
<asrwt>0</asrwt>
<pdfrwt beam="1">  1        1 0.29628852E+00 0.15761617E+04</pdfrwt>
<pdfrwt beam="2">  1       -1 0.49613518E-01 0.15761617E+04</pdfrwt>
<totfact> 0.13108693E+01</totfact>
</mgrwt>
</event>
<event>
12    1  0.1397649E-007  0.1383758E+04  0.7818608E-02  0.8965660E-01
         -1   -1    0    0    0  501 -0.00000000000E+00  0.00000000000E+00  0.17795766576E+03  0.17795766576E+03  0.00000000000E+00 0.  1.
          1   -1    0    0  501    0  0.00000000000E+00 -0.00000000000E+00 -0.26899478463E+04  0.26899478463E+04  0.00000000000E+00 0. -1.
         23    2    1    2    0    0 -0.18735462669E+03  0.33587463092E+03 -0.88817331906E+03  0.97235879943E+03  0.93360946252E+02 0.  0.
        254    2    1    2    0    0  0.18735462669E+03 -0.33587463092E+03 -0.16238168615E+04  0.18955467127E+04  0.89911212668E+03 0.  0.
        -24    2    4    4    0    0  0.28995986164E+03  0.28752829777E+02 -0.92330996664E+02  0.31582190173E+03  0.79467062888E+02 0.  0.
         24    2    4    4    0    0 -0.10260523495E+03 -0.36462746069E+03 -0.15314858648E+04  0.15797248109E+04  0.81243490452E+02 0.  0.
         11    1    3    3    0    0  0.49584458686E+01  0.35329624856E+02 -0.50217864012E+02  0.61600344510E+02  0.00000000000E+00 0.  1.
        -11    1    3    3    0    0 -0.19231307256E+03  0.30054500606E+03 -0.83795545505E+03  0.91075845492E+03  0.00000000000E+00 0. -1.
          4    1    6    6  502    0 -0.17327939199E+02 -0.85937293561E+01 -0.48435634933E+02  0.52154773440E+02  0.00000000000E+00 0. -1.
          3    1    5    5  503    0  0.77083525300E+02 -0.10920527855E+02 -0.56831652557E+02  0.96389649515E+02  0.00000000000E+00 0. -1.
         -4    1    5    5    0  503  0.21287633634E+03  0.39673357632E+02 -0.35499344107E+02  0.21943225222E+03  0.00000000000E+00 0.  1.
         -3    1    6    6    0  502 -0.85277295752E+02 -0.35603373134E+03 -0.14830502299E+04  0.15275700375E+04  0.00000000000E+00 0.  1.
<mgrwt>
<rscale>  0 0.13837584E+04</rscale>
<asrwt>0</asrwt>
<pdfrwt beam="1">  1        1 0.41383813E+00 0.13837584E+04</pdfrwt>
<pdfrwt beam="2">  1       -1 0.27378102E-01 0.13837584E+04</pdfrwt>
<totfact> 0.11720540E+01</totfact>
</mgrwt>
</event>
<event>
12    1  0.1397649E-007  0.1848160E+04  0.7818608E-02  0.8681100E-01
          2   -1    0    0  501    0  0.00000000000E+00  0.00000000000E+00  0.25233754409E+04  0.25233754409E+04  0.00000000000E+00 0. -1.
         -2   -1    0    0    0  501 -0.00000000000E+00 -0.00000000000E+00 -0.33840531827E+03  0.33840531827E+03  0.00000000000E+00 0.  1.
         23    2    1    2    0    0 -0.73381009340E+03  0.79939097828E+02  0.11869780797E+04  0.14006867516E+04  0.90215862754E+02 0.  0.
        254    2    1    2    0    0  0.73381009340E+03 -0.79939097828E+02  0.99799204294E+03  0.14610940076E+04  0.77067507334E+03 0.  0.
        -24    2    4    4    0    0  0.13103132886E+03  0.37366678073E+02  0.79271833360E+03  0.80858363286E+03  0.82702219671E+02 0.  0.
         24    2    4    4    0    0  0.60277876454E+03 -0.11730577590E+03  0.20527370934E+03  0.65251037471E+03  0.80805998031E+02 0.  0.
         11    1    3    3    0    0 -0.10674061085E+03 -0.71128871174E+01  0.22417019239E+03  0.24838765333E+03  0.00000000000E+00 0. -1.
        -11    1    3    3    0    0 -0.62706948255E+03  0.87051984946E+02  0.96280788728E+03  0.11522990983E+04  0.00000000000E+00 0.  1.
          4    1    6    6  502    0  0.32802703587E+03 -0.10314791167E+03  0.12570493644E+03  0.36611877715E+03  0.00000000000E+00 0. -1.
          1    1    5    5  503    0  0.11831244057E+03 -0.13015024779E+01  0.56506893531E+03  0.57732350477E+03  0.00000000000E+00 0. -1.
         -2    1    5    5    0  503  0.12718888285E+02  0.38668180551E+02  0.22764939829E+03  0.23126012810E+03  0.00000000000E+00 0.  1.
         -3    1    6    6    0  502  0.27475172868E+03 -0.14157864234E+02  0.79568772898E+02  0.28639159756E+03  0.00000000000E+00 0.  1.
<mgrwt>
<rscale>  0 0.18481598E+04</rscale>
<asrwt>0</asrwt>
<pdfrwt beam="1">  1        2 0.38821160E+00 0.18481598E+04</pdfrwt>
<pdfrwt beam="2">  1       -2 0.52062358E-01 0.18481598E+04</pdfrwt>
<totfact> 0.11063933E+01</totfact>
</mgrwt>
</event>
<event>
12    1  0.1397649E-007  0.1790855E+04  0.7818608E-02  0.8711178E-01
          2   -1    0    0  501    0  0.00000000000E+00  0.00000000000E+00  0.35282472755E+03  0.35282472755E+03  0.00000000000E+00 0. -1.
         -2   -1    0    0    0  501 -0.00000000000E+00 -0.00000000000E+00 -0.22724891059E+04  0.22724891059E+04  0.00000000000E+00 0.  1.
         23    2    1    2    0    0 -0.35329672241E+03 -0.34845701242E+03 -0.13787518043E+04  0.14682694953E+04  0.92832695376E+02 0.  0.
        254    2    1    2    0    0  0.35329672241E+03  0.34845701242E+03 -0.54091257404E+03  0.11570443382E+04  0.89438488590E+03 0.  0.
        -24    2    4    4    0    0 -0.21835377567E+03  0.33781291618E+03 -0.78144306312E+02  0.41728139422E+03  0.78875165102E+02 0.  0.
         24    2    4    4    0    0  0.57165049807E+03  0.10644096238E+02 -0.46276826772E+03  0.73976294393E+03  0.78722010044E+02 0.  0.
         11    1    3    3    0    0 -0.11478936392E+03 -0.10560873795E+03 -0.56646274375E+03  0.58754560985E+03  0.00000000000E+00 0.  1.
        -11    1    3    3    0    0 -0.23850735849E+03 -0.24284827447E+03 -0.81228906054E+03  0.88072388541E+03  0.00000000000E+00 0. -1.
          2    1    6    6  502    0  0.35284207595E+02 -0.10265393456E+02 -0.11511951102E+02  0.38508163116E+02  0.00000000000E+00 0. -1.
          1    1    5    5  503    0 -0.14540087471E+03  0.19888130027E+03 -0.83891098509E+02  0.26025545599E+03  0.00000000000E+00 0. -1.
         -2    1    5    5    0  503 -0.72952900954E+02  0.13893161591E+03  0.57467921968E+01  0.15702593823E+03  0.00000000000E+00 0.  1.
         -1    1    6    6    0  502  0.53636629048E+03  0.20909489695E+02 -0.45125631662E+03  0.70125478081E+03  0.00000000000E+00 0.  1.
<mgrwt>
<rscale>  0 0.17908549E+04</rscale>
<asrwt>0</asrwt>
<pdfrwt beam="1">  1        2 0.54280728E-01 0.17908549E+04</pdfrwt>
<pdfrwt beam="2">  1       -2 0.34961370E+00 0.17908549E+04</pdfrwt>
<totfact> 0.13588109E+00</totfact>
</mgrwt>
</event>
<event>
12    1  0.1397649E-007  0.1537901E+04  0.7818608E-02  0.8859633E-01
          2   -1    0    0  501    0  0.00000000000E+00  0.00000000000E+00  0.18926031381E+04  0.18926031381E+04  0.00000000000E+00 0. -1.
         -2   -1    0    0    0  501 -0.00000000000E+00 -0.00000000000E+00 -0.31241875024E+03  0.31241875024E+03  0.00000000000E+00 0.  1.
         23    2    1    2    0    0 -0.11094661235E+03  0.24034949707E+03 -0.87499853614E+02  0.29233259675E+03  0.87892498016E+02 0.  0.
        254    2    1    2    0    0  0.11094661235E+03 -0.24034949707E+03  0.16676842414E+04  0.19126892915E+04  0.89840556839E+03 0.  0.
        -24    2    4    4    0    0 -0.20864876095E+01 -0.55227100319E+03  0.75913211659E+03  0.94213269267E+03  0.79528773153E+02 0.  0.
         24    2    4    4    0    0  0.11303309996E+03  0.31192150613E+03  0.90855212485E+03  0.97055659888E+03  0.80259830476E+02 0.  0.
         13    1    3    3    0    0 -0.10222429167E+02  0.56223042165E+01 -0.27618800176E+02  0.29981769226E+02  0.00000000000E+00 0. -1.
        -13    1    3    3    0    0 -0.10072418318E+03  0.23472719285E+03 -0.59881053438E+02  0.26235082752E+03  0.00000000000E+00 0.  1.
          4    1    6    6  502    0  0.26437925439E+02  0.18009197483E+02  0.54376182037E+02  0.63087750542E+02  0.00000000000E+00 0. -1.
          3    1    5    5  503    0 -0.29901093553E+02 -0.94379079498E+02  0.12454342203E+03  0.15909918295E+03  0.00000000000E+00 0. -1.
         -4    1    5    5    0  503  0.27814605944E+02 -0.45789192369E+03  0.63458869456E+03  0.78303350972E+03  0.00000000000E+00 0.  1.
         -3    1    6    6    0  502  0.86595174521E+02  0.29391230864E+03  0.85417594281E+03  0.90746884834E+03  0.00000000000E+00 0.  1.
<mgrwt>
<rscale>  0 0.15379008E+04</rscale>
<asrwt>0</asrwt>
<pdfrwt beam="1">  1        2 0.29116971E+00 0.15379008E+04</pdfrwt>
<pdfrwt beam="2">  1       -2 0.48064424E-01 0.15379008E+04</pdfrwt>
<totfact> 0.30289553E+01</totfact>
</mgrwt>
</event>
<event>
12    1  0.1397649E-007  0.1589441E+04  0.7818608E-02  0.8827061E-01
         -2   -1    0    0    0  501 -0.00000000000E+00  0.00000000000E+00  0.14207777886E+04  0.14207777886E+04  0.00000000000E+00 0. -1.
          2   -1    0    0  501    0  0.00000000000E+00 -0.00000000000E+00 -0.44453159929E+03  0.44453159929E+03  0.00000000000E+00 0.  1.
         23    2    1    2    0    0  0.41585528476E+03  0.21548788668E+03  0.30077586359E+02  0.47679009549E+03  0.83985039061E+02 0.  0.
        254    2    1    2    0    0 -0.41585528476E+03 -0.21548788668E+03  0.94616860298E+03  0.13885192924E+04  0.90187590778E+03 0.  0.
        -24    2    4    4    0    0 -0.39462934880E+03  0.29478978521E+03  0.49497057462E+03  0.70255159362E+03  0.77133206602E+02 0.  0.
         24    2    4    4    0    0 -0.21225935958E+02 -0.51027767189E+03  0.45119802836E+03  0.68596769882E+03  0.78346539396E+02 0.  0.
         11    1    3    3    0    0  0.19230035083E+03  0.11679373833E+03 -0.24741225245E+02  0.22634559963E+03  0.00000000000E+00 0. -1.
        -11    1    3    3    0    0  0.22355493393E+03  0.98694148345E+02  0.54818811604E+02  0.25044449586E+03  0.00000000000E+00 0.  1.
          4    1    6    6  502    0 -0.53036556610E+01 -0.53131309822E+02  0.83344765493E+02  0.98981891181E+02  0.00000000000E+00 0. -1.
          3    1    5    5  503    0 -0.10963192879E+03  0.11232830404E+03  0.19511709809E+03  0.25041463549E+03  0.00000000000E+00 0. -1.
         -4    1    5    5    0  503 -0.28499742001E+03  0.18246148118E+03  0.29985347652E+03  0.45213695813E+03  0.00000000000E+00 0.  1.
         -3    1    6    6    0  502 -0.15922280297E+02 -0.45714636207E+03  0.36785326287E+03  0.58698580764E+03  0.00000000000E+00 0.  1.
<mgrwt>
<rscale>  0 0.15894409E+04</rscale>
<asrwt>0</asrwt>
<pdfrwt beam="1">  1        2 0.68389477E-01 0.15894409E+04</pdfrwt>
<pdfrwt beam="2">  1       -2 0.21858120E+00 0.15894409E+04</pdfrwt>
<totfact> 0.68251419E+00</totfact>
</mgrwt>
</event>
<event>
12    1  0.1397649E-007  0.2595211E+04  0.7818608E-02  0.8369830E-01
         -2   -1    0    0    0  501 -0.00000000000E+00  0.00000000000E+00  0.40547852682E+03  0.40547852682E+03  0.00000000000E+00 0.  1.
          2   -1    0    0  501    0  0.00000000000E+00 -0.00000000000E+00 -0.41525763456E+04  0.41525763456E+04  0.00000000000E+00 0. -1.
         23    2    1    2    0    0 -0.74860163417E+03 -0.14168744613E+03 -0.16437313795E+03  0.78473791447E+03  0.91188413983E+02 0.  0.
        254    2    1    2    0    0  0.74860163417E+03  0.14168744613E+03 -0.35827246809E+04  0.37733169580E+04  0.90638015612E+03 0.  0.
        -24    2    4    4    0    0  0.69188516537E+03  0.42578291235E+03 -0.19642356615E+04  0.21271017529E+04  0.79648997731E+02 0.  0.
         24    2    4    4    0    0  0.56716468799E+02 -0.28409546622E+03 -0.16184890194E+04  0.16462152051E+04  0.81183765655E+02 0.  0.
         11    1    3    3    0    0 -0.69313319931E+03 -0.15344270718E+03 -0.14319867087E+03  0.72421278345E+03  0.00000000000E+00 0.  1.
        -11    1    3    3    0    0 -0.55468434859E+02  0.11755261050E+02 -0.21174467081E+02  0.60525131013E+02  0.00000000000E+00 0. -1.
          4    1    6    6  502    0  0.24652855166E+02 -0.20618772370E+03 -0.94948742267E+03  0.97192978474E+03  0.00000000000E+00 0. -1.
          1    1    5    5  503    0  0.64119627228E+03  0.38874309495E+03 -0.17505367500E+04  0.19043720137E+04  0.00000000000E+00 0. -1.
         -2    1    5    5    0  503  0.50688893097E+02  0.37039817397E+02 -0.21369891150E+03  0.22272973922E+03  0.00000000000E+00 0.  1.
         -3    1    6    6    0  502  0.32063613633E+02 -0.77907742518E+02 -0.66900159674E+03  0.67428542036E+03  0.00000000000E+00 0.  1.
<mgrwt>
<rscale>  0 0.25952114E+04</rscale>
<asrwt>0</asrwt>
<pdfrwt beam="1">  1        2 0.63885790E+00 0.25952114E+04</pdfrwt>
<pdfrwt beam="2">  1       -2 0.62381312E-01 0.25952114E+04</pdfrwt>
<totfact> 0.54061517E-01</totfact>
</mgrwt>
</event>
<event>
12    1  0.1397649E-007  0.2118425E+04  0.7818608E-02  0.8553170E-01
          2   -1    0    0  501    0  0.00000000000E+00  0.00000000000E+00  0.86368772995E+03  0.86368772995E+03  0.00000000000E+00 0. -1.
         -2   -1    0    0    0  501 -0.00000000000E+00 -0.00000000000E+00 -0.12990005385E+04  0.12990005385E+04  0.00000000000E+00 0.  1.
         23    2    1    2    0    0  0.15771240570E+03  0.45775601909E+03  0.56190576710E+03  0.74718439073E+03  0.90181188287E+02 0.  0.
        254    2    1    2    0    0 -0.15771240570E+03 -0.45775601909E+03 -0.99721857566E+03  0.14155038777E+04  0.88022301964E+03 0.  0.
        -24    2    4    4    0    0 -0.28167805192E+03 -0.53440943810E+03 -0.10718827550E+04  0.12330122761E+04  0.80316001374E+02 0.  0.
         24    2    4    4    0    0  0.12396564622E+03  0.76653419014E+02  0.74664179329E+02  0.18249160164E+03  0.80530844438E+02 0.  0.
         13    1    3    3    0    0  0.29322843801E+02  0.13080561172E+03  0.10179604464E+03  0.16832222649E+03  0.00000000000E+00 0.  1.
        -13    1    3    3    0    0  0.12838956190E+03  0.32695040737E+03  0.46010972246E+03  0.57886216423E+03  0.00000000000E+00 0. -1.
          2    1    6    6  502    0  0.38873453365E+02  0.25977222731E+02 -0.14786567053E+02  0.49036762154E+02  0.00000000000E+00 0. -1.
          3    1    5    5  503    0 -0.11347676337E+03 -0.20965351818E+03 -0.34565142156E+03  0.41988865040E+03  0.00000000000E+00 0. -1.
         -4    1    5    5    0  503 -0.16820128855E+03 -0.32475591992E+03 -0.72623133343E+03  0.81312362569E+03  0.00000000000E+00 0.  1.
         -1    1    6    6    0  502  0.85092192856E+02  0.50676196283E+02  0.89450746382E+02  0.13345483949E+03  0.00000000000E+00 0.  1.
<mgrwt>
<rscale>  0 0.21184247E+04</rscale>
<asrwt>0</asrwt>
<pdfrwt beam="1">  1        2 0.13287504E+00 0.21184247E+04</pdfrwt>
<pdfrwt beam="2">  1       -2 0.19984624E+00 0.21184247E+04</pdfrwt>
<totfact> 0.38072870E+00</totfact>
</mgrwt>
</event>
<event>
12    1  0.1397649E-007  0.1601475E+04  0.7818608E-02  0.8819642E-01
         -1   -1    0    0    0  501 -0.00000000000E+00  0.00000000000E+00  0.31209434442E+03  0.31209434442E+03  0.00000000000E+00 0.  1.
          1   -1    0    0  501    0  0.00000000000E+00 -0.00000000000E+00 -0.20544445901E+04  0.20544445901E+04  0.00000000000E+00 0. -1.
         23    2    1    2    0    0 -0.40914400523E+03 -0.29790112112E+03 -0.89098608656E+03  0.10286850113E+04  0.90513817476E+02 0.  0.
        254    2    1    2    0    0  0.40914400523E+03  0.29790112112E+03 -0.85136415909E+03  0.13378539231E+04  0.89938217310E+03 0.  0.
        -24    2    4    4    0    0  0.31977680461E+03  0.34378646605E+03  0.39793118699E+00  0.47622440183E+03  0.79644105520E+02 0.  0.
         24    2    4    4    0    0  0.89367200625E+02 -0.45885344931E+02 -0.85176209028E+03  0.86162952131E+03  0.82551875380E+02 0.  0.
         13    1    3    3    0    0 -0.40943326435E+03 -0.29323899374E+03 -0.89157406367E+03  0.10239770585E+04  0.00000000000E+00 0. -1.
        -13    1    3    3    0    0  0.28925912284E+00 -0.46621273754E+01  0.58797711691E+00  0.47079528030E+01  0.00000000000E+00 0.  1.
          4    1    6    6  502    0  0.64353902725E+02  0.12588805007E+02 -0.48156400470E+03  0.48600801787E+03  0.00000000000E+00 0. -1.
          3    1    5    5  503    0  0.11061372577E+03  0.67913369950E+02  0.66251879251E+01  0.12996736229E+03  0.00000000000E+00 0. -1.
         -4    1    5    5    0  503  0.20916307883E+03  0.27587309610E+03 -0.62272567381E+01  0.34625703953E+03  0.00000000000E+00 0.  1.
         -3    1    6    6    0  502  0.25013297900E+02 -0.58474149938E+02 -0.37019808558E+03  0.37562150345E+03  0.00000000000E+00 0.  1.
<mgrwt>
<rscale>  0 0.16014750E+04</rscale>
<asrwt>0</asrwt>
<pdfrwt beam="1">  1        1 0.31606841E+00 0.16014750E+04</pdfrwt>
<pdfrwt beam="2">  1       -1 0.48014513E-01 0.16014750E+04</pdfrwt>
<totfact> 0.11388767E+01</totfact>
</mgrwt>
</event>
<event>
12    1  0.1397649E-007  0.1293625E+04  0.7818608E-02  0.9034636E-01
         -2   -1    0    0    0  501 -0.00000000000E+00  0.00000000000E+00  0.25081917884E+03  0.25081917884E+03  0.00000000000E+00 0. -1.
          2   -1    0    0  501    0  0.00000000000E+00 -0.00000000000E+00 -0.16680006018E+04  0.16680006018E+04  0.00000000000E+00 0.  1.
         23    2    1    2    0    0 -0.22348449080E+03  0.17937906172E+03 -0.15032716164E+03  0.33587762056E+03  0.89963076080E+02 0.  0.
        254    2    1    2    0    0  0.22348449080E+03 -0.17937906172E+03 -0.12668542613E+04  0.15829421601E+04  0.90480052904E+03 0.  0.
        -24    2    4    4    0    0  0.12751933543E+03 -0.37329146289E+03 -0.12898847372E+04  0.13509193027E+04  0.74650050096E+02 0.  0.
         24    2    4    4    0    0  0.95965155368E+02  0.19391240118E+03  0.23030475878E+02  0.23202285738E+03  0.80578366535E+02 0.  0.
         13    1    3    3    0    0 -0.18399023501E+03  0.16573542395E+03 -0.92085683356E+02  0.26419767298E+03  0.00000000000E+00 0.  1.
        -13    1    3    3    0    0 -0.39494255791E+02  0.13643637765E+02 -0.58241478289E+02  0.71679947581E+02  0.00000000000E+00 0. -1.
          4    1    6    6  502    0  0.13707010071E+02  0.57075842250E+02  0.40643657001E+02  0.71396363690E+02  0.00000000000E+00 0. -1.
          3    1    5    5  503    0  0.95574713322E+01 -0.94622662936E+02 -0.39368793284E+03  0.40501232334E+03  0.00000000000E+00 0. -1.
         -4    1    5    5    0  503  0.11796186410E+03 -0.27866879996E+03 -0.89619680439E+03  0.94590697938E+03  0.00000000000E+00 0.  1.
         -1    1    6    6    0  502  0.82258145297E+02  0.13683655892E+03 -0.17613181124E+02  0.16062649369E+03  0.00000000000E+00 0.  1.
<mgrwt>
<rscale>  0 0.12936252E+04</rscale>
<asrwt>0</asrwt>
<pdfrwt beam="1">  1        2 0.25661548E+00 0.12936252E+04</pdfrwt>
<pdfrwt beam="2">  1       -2 0.38587565E-01 0.12936252E+04</pdfrwt>
<totfact> 0.63557647E+01</totfact>
</mgrwt>
</event>
<event>
12    1  0.1397649E-007  0.1887987E+04  0.7818608E-02  0.8660859E-01
         -2   -1    0    0    0  501 -0.00000000000E+00  0.00000000000E+00  0.62575960573E+03  0.62575960573E+03  0.00000000000E+00 0.  1.
          2   -1    0    0  501    0  0.00000000000E+00 -0.00000000000E+00 -0.14240675674E+04  0.14240675674E+04  0.00000000000E+00 0. -1.
         23    2    1    2    0    0 -0.10350431926E+03  0.48834625034E+03 -0.68412124409E+03  0.85183343993E+03  0.91668579353E+02 0.  0.
        254    2    1    2    0    0  0.10350431926E+03 -0.48834625034E+03 -0.11418671761E+03  0.11979937332E+04  0.10830305508E+04 0.  0.
        -24    2    4    4    0    0  0.27315198621E+03 -0.52534516567E+03  0.35248060331E+03  0.69372274009E+03  0.80056940683E+02 0.  0.
         24    2    4    4    0    0 -0.16964766695E+03  0.36998915335E+02 -0.46666732092E+03  0.50427099314E+03  0.79759610518E+02 0.  0.
         13    1    3    3    0    0 -0.32338545212E+02  0.11662276668E+03 -0.10621060244E+03  0.16101969843E+03  0.00000000000E+00 0.  1.
        -13    1    3    3    0    0 -0.71165774049E+02  0.37172348366E+03 -0.57791064165E+03  0.69081374149E+03  0.00000000000E+00 0. -1.
          2    1    6    6  502    0 -0.81270886158E+02  0.11857940540E+02 -0.32650288621E+03  0.33667447541E+03  0.00000000000E+00 0. -1.
          3    1    5    5  503    0  0.25091985268E+02 -0.11211355005E+03  0.80803862133E+02  0.14045753794E+03  0.00000000000E+00 0. -1.
         -4    1    5    5    0  503  0.24806000094E+03 -0.41323161562E+03  0.27167674117E+03  0.55326520215E+03  0.00000000000E+00 0.  1.
         -1    1    6    6    0  502 -0.88376780788E+02  0.25140974795E+02 -0.14016443470E+03  0.16759651772E+03  0.00000000000E+00 0.  1.
<mgrwt>
<rscale>  0 0.18879872E+04</rscale>
<asrwt>0</asrwt>
<pdfrwt beam="1">  1        2 0.21908732E+00 0.18879872E+04</pdfrwt>
<pdfrwt beam="2">  1       -2 0.96270709E-01 0.18879872E+04</pdfrwt>
<totfact> 0.11874734E+01</totfact>
</mgrwt>
</event>
<event>
12    1  0.1397649E-007  0.1361738E+04  0.7818608E-02  0.8981990E-01
         -1   -1    0    0    0  501 -0.00000000000E+00  0.00000000000E+00  0.51249254265E+03  0.51249254265E+03  0.00000000000E+00 0.  1.
          1   -1    0    0  501    0  0.00000000000E+00 -0.00000000000E+00 -0.90456518003E+03  0.90456518003E+03  0.00000000000E+00 0. -1.
         23    2    1    2    0    0 -0.24575765526E+03  0.27048574776E+03 -0.40187416769E+02  0.37852184697E+03  0.90024415058E+02 0.  0.
        254    2    1    2    0    0  0.24575765526E+03 -0.27048574776E+03 -0.35188522060E+03  0.10385358757E+04  0.90618662084E+03 0.  0.
        -24    2    4    4    0    0  0.31647787564E+02 -0.99364844807E+02  0.29974379923E+03  0.32718913504E+03  0.79570283849E+02 0.  0.
         24    2    4    4    0    0  0.21410986770E+03 -0.17112090296E+03 -0.65162901983E+03  0.71134674066E+03  0.79173272584E+02 0.  0.
         11    1    3    3    0    0 -0.13079910892E+03  0.11706353569E+03  0.22155625683E+02  0.17692696242E+03  0.00000000000E+00 0.  1.
        -11    1    3    3    0    0 -0.11495854634E+03  0.15342221208E+03 -0.62343042452E+02  0.20159488455E+03  0.00000000000E+00 0. -1.
          4    1    6    6  502    0  0.20814912245E+03 -0.17178561441E+03 -0.58278484104E+03  0.64224179671E+03  0.00000000000E+00 0. -1.
          3    1    5    5  503    0  0.85699996225E+01 -0.10313863393E+03  0.27128121863E+03  0.29035241050E+03  0.00000000000E+00 0. -1.
         -4    1    5    5    0  503  0.23077787941E+02  0.37737891192E+01  0.28462580596E+02  0.36836724539E+02  0.00000000000E+00 0.  1.
         -1    1    6    6    0  502  0.59607452480E+01  0.66471145834E+00 -0.68844178790E+02  0.69104943951E+02  0.00000000000E+00 0.  1.
<mgrwt>
<rscale>  0 0.13617385E+04</rscale>
<asrwt>0</asrwt>
<pdfrwt beam="1">  1        1 0.13916387E+00 0.13617385E+04</pdfrwt>
<pdfrwt beam="2">  1       -1 0.78845006E-01 0.13617385E+04</pdfrwt>
<totfact> 0.28394589E+01</totfact>
</mgrwt>
</event>
<event>
12    1  0.1397649E-007  0.1779422E+04  0.7818608E-02  0.8717320E-01
          2   -1    0    0  501    0  0.00000000000E+00  0.00000000000E+00  0.15845388474E+04  0.15845388474E+04  0.00000000000E+00 0. -1.
         -2   -1    0    0    0  501 -0.00000000000E+00 -0.00000000000E+00 -0.49956826204E+03  0.49956826204E+03  0.00000000000E+00 0.  1.
         23    2    1    2    0    0  0.47092113011E+03 -0.10439379362E+03  0.10033554276E+04  0.11169521549E+04  0.90527495474E+02 0.  0.
        254    2    1    2    0    0 -0.47092113011E+03  0.10439379362E+03  0.81615157806E+02  0.96715495453E+03  0.83430383983E+03 0.  0.
        -24    2    4    4    0    0 -0.44365854414E+03  0.15628682884E+03  0.40662565919E+03  0.62696616247E+03  0.80521211589E+02 0.  0.
         24    2    4    4    0    0 -0.27262585964E+02 -0.51893035223E+02 -0.32501050138E+03  0.34018879205E+03  0.81611595588E+02 0.  0.
         11    1    3    3    0    0  0.22886960077E+03 -0.60392099048E+01  0.44219072544E+03  0.49794618572E+03  0.00000000000E+00 0. -1.
        -11    1    3    3    0    0  0.24205152934E+03 -0.98354583715E+02  0.56116470214E+03  0.61900596921E+03  0.00000000000E+00 0.  1.
          4    1    6    6  502    0 -0.48950253450E+02 -0.78233037710E+01 -0.13123665809E+03  0.14028681984E+03  0.00000000000E+00 0. -1.
          3    1    5    5  503    0 -0.17846736230E+03  0.21856930962E+02  0.15962996576E+03  0.24043720762E+03  0.00000000000E+00 0. -1.
         -4    1    5    5    0  503 -0.26519118184E+03  0.13442989788E+03  0.24699569343E+03  0.38652895486E+03  0.00000000000E+00 0.  1.
         -3    1    6    6    0  502  0.21687667486E+02 -0.44069731452E+02 -0.19377384329E+03  0.19990197221E+03  0.00000000000E+00 0.  1.
<mgrwt>
<rscale>  0 0.17794216E+04</rscale>
<asrwt>0</asrwt>
<pdfrwt beam="1">  1        2 0.24377520E+00 0.17794216E+04</pdfrwt>
<pdfrwt beam="2">  1       -2 0.76856657E-01 0.17794216E+04</pdfrwt>
<totfact> 0.16267477E+01</totfact>
</mgrwt>
</event>
<event>
12    1  0.1397649E-007  0.1855074E+04  0.7818608E-02  0.8677548E-01
          1   -1    0    0  501    0  0.00000000000E+00  0.00000000000E+00  0.19656491534E+04  0.19656491534E+04  0.00000000000E+00 0. -1.
         -1   -1    0    0    0  501 -0.00000000000E+00 -0.00000000000E+00 -0.43767983358E+03  0.43767983358E+03  0.00000000000E+00 0.  1.
         23    2    1    2    0    0 -0.51831297800E+02  0.40603564599E+03  0.13295119978E+04  0.13946610153E+04  0.99628138315E+02 0.  0.
        254    2    1    2    0    0  0.51831297800E+02 -0.40603564599E+03  0.19845732198E+03  0.10086679717E+04  0.90026348321E+03 0.  0.
        -24    2    4    4    0    0  0.17460161886E+03 -0.26381428287E+03  0.52831362214E+03  0.62091612347E+03  0.79610601669E+02 0.  0.
         24    2    4    4    0    0 -0.12277032106E+03 -0.14222136312E+03 -0.32985630016E+03  0.38775184821E+03  0.79037011433E+02 0.  0.
         13    1    3    3    0    0  0.25883768260E+02  0.18821867536E+03  0.60711858162E+03  0.63615187759E+03  0.00000000000E+00 0.  1.
        -13    1    3    3    0    0 -0.77715066060E+02  0.21781697063E+03  0.72239341619E+03  0.75850913768E+03  0.00000000000E+00 0. -1.
          2    1    6    6  502    0 -0.83896288110E+01  0.62112537218E+01 -0.27871262333E+01  0.10804333252E+02  0.00000000000E+00 0. -1.
          3    1    5    5  503    0  0.86793290136E+02 -0.12958294897E+03  0.18493432815E+03  0.24192048612E+03  0.00000000000E+00 0. -1.
         -4    1    5    5    0  503  0.87808328722E+02 -0.13423133390E+03  0.34337929398E+03  0.37899563735E+03  0.00000000000E+00 0.  1.
         -1    1    6    6    0  502 -0.11438069225E+03 -0.14843261685E+03 -0.32706917393E+03  0.37694751496E+03  0.00000000000E+00 0.  1.
<mgrwt>
<rscale>  0 0.18550741E+04</rscale>
<asrwt>0</asrwt>
<pdfrwt beam="1">  1        1 0.30240756E+00 0.18550741E+04</pdfrwt>
<pdfrwt beam="2">  1       -1 0.67335360E-01 0.18550741E+04</pdfrwt>
<totfact> 0.65970345E+00</totfact>
</mgrwt>
</event>
<event>
12    1  0.1397649E-007  0.2009519E+04  0.7818608E-02  0.8602183E-01
          1   -1    0    0  501    0  0.00000000000E+00  0.00000000000E+00  0.94084847078E+03  0.94084847078E+03  0.00000000000E+00 0. -1.
         -1   -1    0    0    0  501 -0.00000000000E+00 -0.00000000000E+00 -0.10730121501E+04  0.10730121501E+04  0.00000000000E+00 0.  1.
         23    2    1    2    0    0  0.53756912063E+03 -0.16684361381E+03 -0.62926497292E+03  0.84905250669E+03  0.89991122043E+02 0.  0.
        254    2    1    2    0    0 -0.53756912063E+03  0.16684361381E+03  0.49710129364E+03  0.11648081142E+04  0.89042175161E+03 0.  0.
        -24    2    4    4    0    0  0.21516671539E+02  0.17754331146E+03  0.56286407036E+03  0.59631714402E+03  0.82423176071E+02 0.  0.
         24    2    4    4    0    0 -0.55908579217E+03 -0.10699697647E+02 -0.65762776721E+02  0.56849097013E+03  0.78522823354E+02 0.  0.
         11    1    3    3    0    0  0.44645888166E+03 -0.13145079909E+03 -0.46494314519E+03  0.65785786752E+03  0.00000000000E+00 0. -1.
        -11    1    3    3    0    0  0.91110238965E+02 -0.35392814725E+02 -0.16432182774E+03  0.19119463917E+03  0.00000000000E+00 0.  1.
          4    1    6    6  502    0 -0.54942023182E+03 -0.21493386892E+02 -0.60875882559E+02  0.55320017163E+03  0.00000000000E+00 0. -1.
          3    1    5    5  503    0  0.38866714233E+02  0.60439830181E+02  0.14236871310E+03  0.15947553109E+03  0.00000000000E+00 0. -1.
         -4    1    5    5    0  503 -0.17350042695E+02  0.11710348128E+03  0.42049535725E+03  0.43684161292E+03  0.00000000000E+00 0.  1.
         -3    1    6    6    0  502 -0.96655603483E+01  0.10793689245E+02 -0.48868941623E+01  0.15290798505E+02  0.00000000000E+00 0.  1.
<mgrwt>
<rscale>  0 0.20095192E+04</rscale>
<asrwt>0</asrwt>
<pdfrwt beam="1">  1        1 0.14474592E+00 0.20095192E+04</pdfrwt>
<pdfrwt beam="2">  1       -1 0.16507879E+00 0.20095192E+04</pdfrwt>
<totfact> 0.41817409E+00</totfact>
</mgrwt>
</event>
<event>
12    1  0.2570521E-007  0.1441698E+04  0.7818608E-02  0.8924176E-01
          2   -1    0    0  501    0  0.00000000000E+00  0.00000000000E+00  0.14399627595E+04  0.14399627595E+04  0.00000000000E+00 0. -1.
         -2   -1    0    0    0  501 -0.00000000000E+00 -0.00000000000E+00 -0.36085886124E+03  0.36085886124E+03  0.00000000000E+00 0.  1.
         23    2    1    2    0    0 -0.10188687727E+03 -0.38484604551E+03  0.53354951893E+03  0.67157307877E+03  0.88588354069E+02 0.  0.
        254    2    1    2    0    0  0.10188687727E+03  0.38484604551E+03  0.54555437929E+03  0.11292485419E+04  0.90503330003E+03 0.  0.
        -24    2    4    4    0    0 -0.28205076752E+03  0.16390027923E+03 -0.92296587290E+02  0.34842644214E+03  0.80413858054E+02 0.  0.
         24    2    4    4    0    0  0.38393764478E+03  0.22094576628E+03  0.63785096658E+03  0.78082209978E+03  0.81265916754E+02 0.  0.
         11    1    3    3    0    0 -0.87677440056E+02 -0.35888811188E+03  0.44590559597E+03  0.57906805374E+03  0.00000000000E+00 0. -1.
        -11    1    3    3    0    0 -0.14209437211E+02 -0.25957933627E+02  0.87643922965E+02  0.92505025035E+02  0.00000000000E+00 0.  1.
          2    1    6    6  502    0 -0.62933508852E+00 -0.34218904962E+00 -0.20366519980E+01  0.21589597866E+01  0.00000000000E+00 0. -1.
          3    1    5    5  503    0 -0.66151816047E+01  0.26427634958E+02 -0.14719089968E+02  0.30965014559E+02  0.00000000000E+00 0. -1.
         -4    1    5    5    0  503 -0.27543558591E+03  0.13747264427E+03 -0.77577497322E+02  0.31746142758E+03  0.00000000000E+00 0.  1.
         -1    1    6    6    0  502  0.38456697987E+03  0.22128795533E+03  0.63988761857E+03  0.77866314000E+03  0.00000000000E+00 0.  1.
<mgrwt>
<rscale>  0 0.14416981E+04</rscale>
<asrwt>0</asrwt>
<pdfrwt beam="1">  1        2 0.22153273E+00 0.14416981E+04</pdfrwt>
<pdfrwt beam="2">  1       -2 0.55516749E-01 0.14416981E+04</pdfrwt>
<totfact> 0.40614145E+01</totfact>
</mgrwt>
</event>
<event>
12    1  0.1397649E-007  0.1632082E+04  0.7818608E-02  0.8801078E-01
         -2   -1    0    0    0  501 -0.00000000000E+00  0.00000000000E+00  0.33820419270E+03  0.33820419270E+03  0.00000000000E+00 0.  1.
          2   -1    0    0  501    0  0.00000000000E+00 -0.00000000000E+00 -0.19689959423E+04  0.19689959423E+04  0.00000000000E+00 0. -1.
         23    2    1    2    0    0 -0.23381125215E+03  0.50748915883E+03 -0.68773284609E+03  0.89073147516E+03  0.90626405055E+02 0.  0.
        254    2    1    2    0    0  0.23381125215E+03 -0.50748915883E+03 -0.94305890346E+03  0.14164686598E+04  0.89711226768E+03 0.  0.
        -24    2    4    4    0    0  0.50130845337E+03 -0.98275107146E+02 -0.27688302490E+03  0.58622155520E+03  0.77610180981E+02 0.  0.
         24    2    4    4    0    0 -0.26749720122E+03 -0.40921405168E+03 -0.66617587856E+03  0.83024710460E+03  0.80678750404E+02 0.  0.
         13    1    3    3    0    0 -0.71108081347E+01  0.82481745096E+02 -0.78592625621E+02  0.11415166520E+03  0.00000000000E+00 0. -1.
        -13    1    3    3    0    0 -0.22670044402E+03  0.42500741373E+03 -0.60914022047E+03  0.77657980996E+03  0.00000000000E+00 0.  1.
          2    1    6    6  502    0 -0.93643630438E+02 -0.13940134127E+03 -0.16738999646E+03  0.23711025786E+03  0.00000000000E+00 0. -1.
          3    1    5    5  503    0  0.21742430373E+03 -0.10042972556E+02 -0.14117642699E+03  0.25943201939E+03  0.00000000000E+00 0. -1.
         -4    1    5    5    0  503  0.28388414965E+03 -0.88232134590E+02 -0.13570659791E+03  0.32678953581E+03  0.00000000000E+00 0.  1.
         -1    1    6    6    0  502 -0.17385357078E+03 -0.26981271041E+03 -0.49878588210E+03  0.59313684673E+03  0.00000000000E+00 0.  1.
<mgrwt>
<rscale>  0 0.16320817E+04</rscale>
<asrwt>0</asrwt>
<pdfrwt beam="1">  1        2 0.30292245E+00 0.16320817E+04</pdfrwt>
<pdfrwt beam="2">  1       -2 0.52031415E-01 0.16320817E+04</pdfrwt>
<totfact> 0.23194545E+01</totfact>
</mgrwt>
</event>
<event>
12    1  0.1397649E-007  0.1781501E+04  0.7818608E-02  0.8716199E-01
          2   -1    0    0  501    0  0.00000000000E+00  0.00000000000E+00  0.26411543156E+04  0.26411543156E+04  0.00000000000E+00 0. -1.
         -2   -1    0    0    0  501 -0.00000000000E+00 -0.00000000000E+00 -0.30041269558E+03  0.30041269558E+03  0.00000000000E+00 0.  1.
         23    2    1    2    0    0 -0.10299512775E+03  0.48442893684E+03  0.15853863141E+04  0.16634319725E+04  0.90976760794E+02 0.  0.
        254    2    1    2    0    0  0.10299512775E+03 -0.48442893684E+03  0.75535530589E+03  0.12781350387E+04  0.90431639803E+03 0.  0.
        -24    2    4    4    0    0  0.32714439848E+03 -0.59020081612E+03  0.27619033767E+03  0.73295560528E+03  0.74715164974E+02 0.  0.
         24    2    4    4    0    0 -0.22414927072E+03  0.10577187929E+03  0.47916496822E+03  0.54517943339E+03  0.78682665223E+02 0.  0.
         13    1    3    3    0    0 -0.13741187908E+02  0.27687689744E+03  0.84054159534E+03  0.88507616061E+03  0.00000000000E+00 0. -1.
        -13    1    3    3    0    0 -0.89253939845E+02  0.20755203939E+03  0.74484471878E+03  0.77835581191E+03  0.00000000000E+00 0.  1.
          4    1    6    6  502    0 -0.21192589035E+03  0.87309259722E+02  0.38169791500E+03  0.44522891657E+03  0.00000000000E+00 0. -1.
          3    1    5    5  503    0  0.14553368907E+03 -0.19291832612E+03  0.85686073181E+02  0.25639742266E+03  0.00000000000E+00 0. -1.
         -4    1    5    5    0  503  0.18161070940E+03 -0.39728249000E+03  0.19050426449E+03  0.47655818262E+03  0.00000000000E+00 0.  1.
         -3    1    6    6    0  502 -0.12223380372E+02  0.18462619564E+02  0.97467053218E+02  0.99950516817E+02  0.00000000000E+00 0.  1.
<mgrwt>
<rscale>  0 0.17815008E+04</rscale>
<asrwt>0</asrwt>
<pdfrwt beam="1">  1        2 0.40633142E+00 0.17815008E+04</pdfrwt>
<pdfrwt beam="2">  1       -2 0.46217339E-01 0.17815008E+04</pdfrwt>
<totfact> 0.12100544E+01</totfact>
</mgrwt>
</event>
<event>
12    1  0.1397649E-007  0.1603134E+04  0.7818608E-02  0.8818625E-01
          2   -1    0    0  501    0  0.00000000000E+00  0.00000000000E+00  0.32373216384E+04  0.32373216384E+04  0.00000000000E+00 0. -1.
         -2   -1    0    0    0  501 -0.00000000000E+00 -0.00000000000E+00 -0.19846942216E+03  0.19846942216E+03  0.00000000000E+00 0.  1.
         23    2    1    2    0    0 -0.36798664583E+03  0.41649937041E+03  0.10976905830E+04  0.12334879058E+04  0.87646452251E+02 0.  0.
        254    2    1    2    0    0  0.36798664583E+03 -0.41649937041E+03  0.19411616332E+04  0.22023031548E+04  0.87928653020E+03 0.  0.
        -24    2    4    4    0    0 -0.16181552847E+03 -0.44832546470E+03  0.11355756036E+04  0.12341464236E+04  0.80034092596E+02 0.  0.
         24    2    4    4    0    0  0.52980217430E+03  0.31826094293E+02  0.80558602964E+03  0.96815673114E+03  0.81580394261E+02 0.  0.
         13    1    3    3    0    0 -0.36125438120E+03  0.37552814937E+03  0.10127055767E+04  0.11389024120E+04  0.00000000000E+00 0. -1.
        -13    1    3    3    0    0 -0.67322646334E+01  0.40971221043E+02  0.84985006325E+02  0.94585493819E+02  0.00000000000E+00 0.  1.
          2    1    6    6  502    0  0.11496198471E+03 -0.24036176403E+02  0.15338526946E+03  0.19318653315E+03  0.00000000000E+00 0. -1.
          1    1    5    5  503    0 -0.33371833129E+01 -0.10238173257E+03  0.22200893793E+03  0.24450178829E+03  0.00000000000E+00 0. -1.
         -2    1    5    5    0  503 -0.15847834515E+03 -0.34594373214E+03  0.91356666565E+03  0.98964463535E+03  0.00000000000E+00 0.  1.
         -1    1    6    6    0  502  0.41484018959E+03  0.55862270696E+02  0.65220076018E+03  0.77497019799E+03  0.00000000000E+00 0.  1.
<mgrwt>
<rscale>  0 0.16031336E+04</rscale>
<asrwt>0</asrwt>
<pdfrwt beam="1">  1        2 0.49804944E+00 0.16031336E+04</pdfrwt>
<pdfrwt beam="2">  1       -2 0.30533760E-01 0.16031336E+04</pdfrwt>
<totfact> 0.11757804E+01</totfact>
</mgrwt>
</event>
<event>
12    1  0.1397649E-007  0.1254016E+04  0.7818608E-02  0.9066848E-01
         -2   -1    0    0    0  501 -0.00000000000E+00  0.00000000000E+00  0.44829811087E+03  0.44829811087E+03  0.00000000000E+00 0.  1.
          2   -1    0    0  501    0  0.00000000000E+00 -0.00000000000E+00 -0.87695830417E+03  0.87695830417E+03  0.00000000000E+00 0. -1.
         23    2    1    2    0    0 -0.13950149317E+03 -0.16603117277E+03  0.10190760192E+03  0.25530586989E+03  0.88141425791E+02 0.  0.
        254    2    1    2    0    0  0.13950149317E+03  0.16603117277E+03 -0.53056779522E+03  0.10699505452E+04  0.90347383295E+03 0.  0.
        -24    2    4    4    0    0 -0.35721616843E+03 -0.58407989437E+02 -0.28334830074E+03  0.46608247738E+03  0.77017738017E+02 0.  0.
         24    2    4    4    0    0  0.49671766160E+03  0.22443916221E+03 -0.24721949448E+03  0.60386806777E+03  0.80235852046E+02 0.  0.
         11    1    3    3    0    0  0.11550973081E+02 -0.16686910587E+02  0.14882460383E+01  0.20349271248E+02  0.00000000000E+00 0. -1.
        -11    1    3    3    0    0 -0.15105246625E+03 -0.14934426219E+03  0.10041935588E+03  0.23495659864E+03  0.00000000000E+00 0.  1.
          2    1    6    6  502    0  0.22659314535E+03  0.87922546431E+02 -0.69105777850E+02  0.25268643854E+03  0.00000000000E+00 0. -1.
          1    1    5    5  503    0 -0.46132314890E+02 -0.21549077217E+02 -0.72035133447E+02  0.88213455077E+02  0.00000000000E+00 0. -1.
         -2    1    5    5    0  503 -0.31108385354E+03 -0.36858912219E+02 -0.21131316729E+03  0.37786902230E+03  0.00000000000E+00 0.  1.
         -1    1    6    6    0  502  0.27012451625E+03  0.13651661578E+03 -0.17811371662E+03  0.35118162924E+03  0.00000000000E+00 0.  1.
<mgrwt>
<rscale>  0 0.12540156E+04</rscale>
<asrwt>0</asrwt>
<pdfrwt beam="1">  1        2 0.13491666E+00 0.12540156E+04</pdfrwt>
<pdfrwt beam="2">  1       -2 0.68968940E-01 0.12540156E+04</pdfrwt>
<totfact> 0.57418311E+01</totfact>
</mgrwt>
</event>
<event>
12    1  0.1397649E-007  0.1888694E+04  0.7818608E-02  0.8660504E-01
          2   -1    0    0  501    0  0.00000000000E+00  0.00000000000E+00  0.48541292382E+03  0.48541292382E+03  0.00000000000E+00 0. -1.
         -2   -1    0    0    0  501 -0.00000000000E+00 -0.00000000000E+00 -0.18371812914E+04  0.18371812914E+04  0.00000000000E+00 0.  1.
         23    2    1    2    0    0  0.63361034573E+03  0.31576169349E+03 -0.31762311951E+03  0.78169881153E+03  0.94873961679E+02 0.  0.
        254    2    1    2    0    0 -0.63361034573E+03 -0.31576169349E+03 -0.10341452481E+04  0.15408954037E+04  0.89651253965E+03 0.  0.
        -24    2    4    4    0    0  0.69429807617E+02 -0.33510311952E+03 -0.92437131729E+02  0.36273824193E+03  0.76940301125E+02 0.  0.
         24    2    4    4    0    0 -0.70304015335E+03  0.19341426031E+02 -0.94170811637E+03  0.11781571618E+04  0.81243913307E+02 0.  0.
         13    1    3    3    0    0  0.55131002717E+03  0.23929841315E+03 -0.28176898698E+03  0.66377725075E+03  0.00000000000E+00 0. -1.
        -13    1    3    3    0    0  0.82300318561E+02  0.76463280347E+02 -0.35854132528E+02  0.11792156078E+03  0.00000000000E+00 0.  1.
          2    1    6    6  502    0 -0.51232058230E+03 -0.67177849343E+00 -0.73789214603E+03  0.89830821520E+03  0.00000000000E+00 0. -1.
          3    1    5    5  503    0  0.54265326798E+02 -0.10743446362E+03 -0.12681177890E+02  0.12102769079E+03  0.00000000000E+00 0. -1.
         -4    1    5    5    0  503  0.15164480820E+02 -0.22766865590E+03 -0.79755953839E+02  0.24171055114E+03  0.00000000000E+00 0.  1.
         -1    1    6    6    0  502 -0.19071957105E+03  0.20013204524E+02 -0.20381597035E+03  0.27984894659E+03  0.00000000000E+00 0.  1.
<mgrwt>
<rscale>  0 0.18886943E+04</rscale>
<asrwt>0</asrwt>
<pdfrwt beam="1">  1        2 0.74678910E-01 0.18886943E+04</pdfrwt>
<pdfrwt beam="2">  1       -2 0.28264328E+00 0.18886943E+04</pdfrwt>
<totfact> 0.24262425E+00</totfact>
</mgrwt>
</event>
<event>
12    1  0.1397649E-007  0.1472238E+04  0.7818608E-02  0.8903127E-01
          1   -1    0    0  501    0  0.00000000000E+00  0.00000000000E+00  0.27226423301E+04  0.27226423301E+04  0.00000000000E+00 0. -1.
         -1   -1    0    0    0  501 -0.00000000000E+00 -0.00000000000E+00 -0.19902390107E+03  0.19902390107E+03  0.00000000000E+00 0.  1.
         23    2    1    2    0    0  0.41218999931E+03 -0.12283545157E+03  0.10352723702E+04  0.11245239462E+04  0.88182092438E+02 0.  0.
        254    2    1    2    0    0 -0.41218999931E+03  0.12283545157E+03  0.14883460588E+04  0.17971422849E+04  0.91080033914E+03 0.  0.
        -24    2    4    4    0    0 -0.11130819235E+03  0.49901628158E+03  0.71261260799E+03  0.88051944239E+03  0.78044835787E+02 0.  0.
         24    2    4    4    0    0 -0.30088180696E+03 -0.37618083001E+03  0.77573345078E+03  0.91662284250E+03  0.79957301788E+02 0.  0.
         13    1    3    3    0    0  0.14374574299E+02 -0.79514853606E+00  0.86958849398E+01  0.16819008959E+02  0.00000000000E+00 0. -1.
        -13    1    3    3    0    0  0.39781542501E+03 -0.12204030304E+03  0.10265764853E+04  0.11077049373E+04  0.00000000000E+00 0.  1.
          4    1    6    6  502    0 -0.19912874863E+03 -0.26961938436E+03  0.60018717032E+03  0.68743836841E+03  0.00000000000E+00 0. -1.
          3    1    5    5  503    0 -0.11481179439E+03  0.49422025055E+03  0.68597363701E+03  0.85322636789E+03  0.00000000000E+00 0. -1.
         -4    1    5    5    0  503  0.35036020321E+01  0.47960310266E+01  0.26638970987E+02  0.27293074507E+02  0.00000000000E+00 0.  1.
         -3    1    6    6    0  502 -0.10175305833E+03 -0.10656144565E+03  0.17554628046E+03  0.22918447409E+03  0.00000000000E+00 0.  1.
<mgrwt>
<rscale>  0 0.14722376E+04</rscale>
<asrwt>0</asrwt>
<pdfrwt beam="1">  1        1 0.41886802E+00 0.14722376E+04</pdfrwt>
<pdfrwt beam="2">  1       -1 0.30619064E-01 0.14722376E+04</pdfrwt>
<totfact> 0.90660007E+00</totfact>
</mgrwt>
</event>
<event>
12    1  0.1397649E-007  0.1519142E+04  0.7818608E-02  0.8871822E-01
          2   -1    0    0  501    0  0.00000000000E+00  0.00000000000E+00  0.20844883439E+04  0.20844883439E+04  0.00000000000E+00 0. -1.
         -2   -1    0    0    0  501 -0.00000000000E+00 -0.00000000000E+00 -0.27678172258E+03  0.27678172258E+03  0.00000000000E+00 0.  1.
         23    2    1    2    0    0  0.63361471919E+02  0.78505529140E+02 -0.15322622030E+03  0.20449407905E+03  0.90342457057E+02 0.  0.
        254    2    1    2    0    0 -0.63361471919E+02 -0.78505529140E+02  0.19609328416E+04  0.21567759875E+04  0.89232687754E+03 0.  0.
        -24    2    4    4    0    0  0.38649173533E+03  0.44041662692E+02  0.62941734700E+03  0.74403892444E+03  0.78180527363E+02 0.  0.
         24    2    4    4    0    0 -0.44985320724E+03 -0.12254719183E+03  0.13315154946E+04  0.14127370630E+04  0.74207643946E+02 0.  0.
         11    1    3    3    0    0 -0.20179860406E+02  0.17266721811E+02 -0.11479146770E+02  0.28933324363E+02  0.00000000000E+00 0. -1.
        -11    1    3    3    0    0  0.83541332325E+02  0.61238807329E+02 -0.14174707353E+03  0.17556075468E+03  0.00000000000E+00 0.  1.
          2    1    6    6  502    0 -0.41583496657E+03 -0.12990279198E+03  0.12602784865E+04  0.13334524057E+04  0.00000000000E+00 0. -1.
          1    1    5    5  503    0  0.33706667241E+03  0.62910207285E+02  0.56198404797E+03  0.65832948134E+03  0.00000000000E+00 0. -1.
         -2    1    5    5    0  503  0.49425062913E+02 -0.18868544593E+02  0.67433299027E+02  0.85709443101E+02  0.00000000000E+00 0.  1.
         -1    1    6    6    0  502 -0.34018240670E+02  0.73556001467E+01  0.71237008196E+02  0.79284657334E+02  0.00000000000E+00 0.  1.
<mgrwt>
<rscale>  0 0.15191422E+04</rscale>
<asrwt>0</asrwt>
<pdfrwt beam="1">  1        2 0.32069050E+00 0.15191422E+04</pdfrwt>
<pdfrwt beam="2">  1       -2 0.42581805E-01 0.15191422E+04</pdfrwt>
<totfact> 0.30253859E+01</totfact>
</mgrwt>
</event>
<event>
12    1  0.1397649E-007  0.1398433E+04  0.7818608E-02  0.8954954E-01
         -1   -1    0    0    0  501 -0.00000000000E+00  0.00000000000E+00  0.84701466770E+03  0.84701466770E+03  0.00000000000E+00 0.  1.
          1   -1    0    0  501    0  0.00000000000E+00 -0.00000000000E+00 -0.57720772521E+03  0.57720772521E+03  0.00000000000E+00 0. -1.
         23    2    1    2    0    0  0.57253647272E+02 -0.28065735340E+02 -0.32174206193E+03  0.34048850867E+03  0.91371792657E+02 0.  0.
        254    2    1    2    0    0 -0.57253647272E+02  0.28065735340E+02  0.59154900442E+03  0.10837338842E+04  0.90580530005E+03 0.  0.
        -24    2    4    4    0    0  0.39532937638E+02 -0.32828726857E+03 -0.45941187415E+02  0.34285144721E+03  0.78109783553E+02 0.  0.
         24    2    4    4    0    0 -0.96786584909E+02  0.35635300391E+03  0.63749019183E+03  0.74088243703E+03  0.78472507315E+02 0.  0.
         11    1    3    3    0    0 -0.19265713072E+02 -0.13915129136E+02 -0.28558144601E+02  0.37153279023E+02  0.00000000000E+00 0.  1.
        -11    1    3    3    0    0  0.76519360344E+02 -0.14150606204E+02 -0.29318391733E+03  0.30333522965E+03  0.00000000000E+00 0. -1.
          2    1    6    6  502    0 -0.15926889423E+02  0.80488420269E+02  0.21257067785E+03  0.22785597355E+03  0.00000000000E+00 0. -1.
          3    1    5    5  503    0  0.79766239698E+01 -0.39760803882E+02 -0.33055773915E+02  0.52318565007E+02  0.00000000000E+00 0. -1.
         -4    1    5    5    0  503  0.31556313668E+02 -0.28852646469E+03 -0.12885413500E+02  0.29053288220E+03  0.00000000000E+00 0.  1.
         -1    1    6    6    0  502 -0.80859695487E+02  0.27586458365E+03  0.42491951399E+03  0.51302646348E+03  0.00000000000E+00 0.  1.
<mgrwt>
<rscale>  0 0.13984326E+04</rscale>
<asrwt>0</asrwt>
<pdfrwt beam="1">  1        1 0.88801188E-01 0.13984326E+04</pdfrwt>
<pdfrwt beam="2">  1       -1 0.13030995E+00 0.13984326E+04</pdfrwt>
<totfact> 0.17806812E+01</totfact>
</mgrwt>
</event>
<event>
12    1  0.1397649E-007  0.2408714E+04  0.7818608E-02  0.8436248E-01
         -2   -1    0    0    0  501 -0.00000000000E+00  0.00000000000E+00  0.42755627427E+03  0.42755627427E+03  0.00000000000E+00 0.  1.
          2   -1    0    0  501    0  0.00000000000E+00 -0.00000000000E+00 -0.33924800568E+04  0.33924800568E+04  0.00000000000E+00 0. -1.
         23    2    1    2    0    0 -0.69216861624E+03  0.11428956587E+03 -0.24931807521E+04  0.25916823245E+04  0.93314042404E+02 0.  0.
        254    2    1    2    0    0  0.69216861624E+03 -0.11428956587E+03 -0.47174303041E+03  0.12283540065E+04  0.89115238898E+03 0.  0.
        -24    2    4    4    0    0  0.38000906527E+03 -0.35012847204E+03  0.98497322989E+02  0.53216764937E+03  0.80646436847E+02 0.  0.
         24    2    4    4    0    0  0.31215955097E+03  0.23583890617E+03 -0.57024035340E+03  0.69618635714E+03  0.80235953927E+02 0.  0.
         13    1    3    3    0    0 -0.40843763849E+03  0.11246984015E+03 -0.14533632207E+04  0.15138478856E+04  0.00000000000E+00 0. -1.
        -13    1    3    3    0    0 -0.28373097775E+03  0.18197257195E+01 -0.10398175314E+04  0.10778344389E+04  0.00000000000E+00 0.  1.
          2    1    6    6  502    0  0.64892079844E+02  0.12336877749E+02 -0.96470119597E+02  0.11691734069E+03  0.00000000000E+00 0. -1.
          1    1    5    5  503    0  0.14036300704E+03 -0.14043687787E+03 -0.97461238168E+00  0.19855790158E+03  0.00000000000E+00 0. -1.
         -2    1    5    5    0  503  0.23964605823E+03 -0.20969159417E+03  0.99471935371E+02  0.33360974779E+03  0.00000000000E+00 0.  1.
         -1    1    6    6    0  502  0.24726747113E+03  0.22350202842E+03 -0.47377023380E+03  0.57926901645E+03  0.00000000000E+00 0.  1.
<mgrwt>
<rscale>  0 0.24087143E+04</rscale>
<asrwt>0</asrwt>
<pdfrwt beam="1">  1        2 0.52192001E+00 0.24087143E+04</pdfrwt>
<pdfrwt beam="2">  1       -2 0.65777888E-01 0.24087143E+04</pdfrwt>
<totfact> 0.18474476E+00</totfact>
</mgrwt>
</event>
<event>
12    1  0.1397649E-007  0.2286118E+04  0.7818608E-02  0.8483415E-01
         -2   -1    0    0    0  501 -0.00000000000E+00  0.00000000000E+00  0.10412456596E+04  0.10412456596E+04  0.00000000000E+00 0.  1.
          2   -1    0    0  501    0  0.00000000000E+00 -0.00000000000E+00 -0.12548275977E+04  0.12548275977E+04  0.00000000000E+00 0. -1.
         23    2    1    2    0    0  0.13642628361E+02  0.46092757759E+03  0.75896406638E+03  0.89268458069E+03  0.90658443894E+02 0.  0.
        254    2    1    2    0    0 -0.13642628361E+02 -0.46092757759E+03 -0.97254600450E+03  0.14033886766E+04  0.90056298705E+03 0.  0.
        -24    2    4    4    0    0  0.33512119877E+03  0.50454050487E+02 -0.54824167880E+03  0.64964646630E+03  0.81361930441E+02 0.  0.
         24    2    4    4    0    0 -0.34876382713E+03 -0.51138162808E+03 -0.42430432570E+03  0.75374221030E+03  0.70326254891E+02 0.  0.
         11    1    3    3    0    0  0.45077627342E+02  0.30229486531E+03  0.45040115424E+03  0.54431183877E+03  0.00000000000E+00 0. -1.
        -11    1    3    3    0    0 -0.31434998982E+02  0.15863271229E+03  0.30856291214E+03  0.34837274193E+03  0.00000000000E+00 0.  1.
          2    1    6    6  502    0 -0.58442664311E+02 -0.88321904021E+02 -0.42220469495E+02  0.11401259486E+03  0.00000000000E+00 0. -1.
          3    1    5    5  503    0  0.31609928904E+01 -0.10370998059E+02 -0.13529980997E+02  0.17338104353E+02  0.00000000000E+00 0. -1.
         -4    1    5    5    0  503  0.33196020588E+03  0.60825048546E+02 -0.53471169780E+03  0.63230836195E+03  0.00000000000E+00 0.  1.
         -1    1    6    6    0  502 -0.29032116282E+03 -0.42305972406E+03 -0.38208385620E+03  0.63972961544E+03  0.00000000000E+00 0.  1.
<mgrwt>
<rscale>  0 0.22861179E+04</rscale>
<asrwt>0</asrwt>
<pdfrwt beam="1">  1        2 0.19305040E+00 0.22861179E+04</pdfrwt>
<pdfrwt beam="2">  1       -2 0.16019164E+00 0.22861179E+04</pdfrwt>
<totfact> 0.40046982E+00</totfact>
</mgrwt>
</event>
<event>
12    1  0.1397649E-007  0.2019389E+04  0.7818608E-02  0.8597609E-01
          2   -1    0    0  501    0  0.00000000000E+00  0.00000000000E+00  0.34120274044E+04  0.34120274044E+04  0.00000000000E+00 0. -1.
         -2   -1    0    0    0  501 -0.00000000000E+00 -0.00000000000E+00 -0.29879093258E+03  0.29879093258E+03  0.00000000000E+00 0.  1.
         23    2    1    2    0    0  0.37516621803E+03 -0.31349337927E+03  0.76818202249E+02  0.50317541265E+03  0.90866218728E+02 0.  0.
        254    2    1    2    0    0 -0.37516621803E+03  0.31349337927E+03  0.30364182696E+04  0.32076429243E+04  0.91110341467E+03 0.  0.
        -24    2    4    4    0    0 -0.30522783178E+03  0.27412336659E+03  0.43288481168E+03  0.60160388503E+03  0.78932407163E+02 0.  0.
         24    2    4    4    0    0 -0.69938386250E+02  0.39370012681E+02  0.26035334579E+04  0.26060390393E+04  0.81311943885E+02 0.  0.
         13    1    3    3    0    0  0.26384388839E+03 -0.16698377163E+03  0.32679718218E+02  0.31395085827E+03  0.00000000000E+00 0.  1.
        -13    1    3    3    0    0  0.11132232964E+03 -0.14650960764E+03  0.44138484031E+02  0.18922455438E+03  0.00000000000E+00 0. -1.
          4    1    6    6  502    0 -0.43039554708E+02 -0.15316515410E+02  0.16032587231E+04  0.16039094526E+04  0.00000000000E+00 0. -1.
          3    1    5    5  503    0 -0.12308429107E+03  0.13924445100E+03  0.24303819526E+03  0.30595150629E+03  0.00000000000E+00 0. -1.
         -4    1    5    5    0  503 -0.18214354071E+03  0.13487891559E+03  0.18984661641E+03  0.29565237874E+03  0.00000000000E+00 0.  1.
         -3    1    6    6    0  502 -0.26898831543E+02  0.54686528091E+02  0.10002747348E+04  0.10021295867E+04  0.00000000000E+00 0.  1.
<mgrwt>
<rscale>  0 0.20193889E+04</rscale>
<asrwt>0</asrwt>
<pdfrwt beam="1">  1        2 0.52492726E+00 0.20193889E+04</pdfrwt>
<pdfrwt beam="2">  1       -2 0.45967838E-01 0.20193889E+04</pdfrwt>
<totfact> 0.39126098E+00</totfact>
</mgrwt>
</event>
<event>
12    1  0.1397649E-007  0.1399454E+04  0.7818608E-02  0.8954214E-01
         -1   -1    0    0    0  501 -0.00000000000E+00  0.00000000000E+00  0.45903636402E+03  0.45903636402E+03  0.00000000000E+00 0.  1.
          1   -1    0    0  501    0  0.00000000000E+00 -0.00000000000E+00 -0.10666215644E+04  0.10666215644E+04  0.00000000000E+00 0. -1.
         23    2    1    2    0    0 -0.43257949990E+02 -0.39765072180E+03 -0.11609952934E+03  0.42638725498E+03  0.91266881797E+02 0.  0.
        254    2    1    2    0    0  0.43257949990E+02  0.39765072180E+03 -0.49148567104E+03  0.10992706735E+04  0.89824300826E+03 0.  0.
        -24    2    4    4    0    0 -0.12966518699E+03 -0.24137286341E+03 -0.26440344041E+02  0.28628653204E+03  0.78657273817E+02 0.  0.
         24    2    4    4    0    0  0.17292313698E+03  0.63902358521E+03 -0.46504532700E+03  0.81298414141E+03  0.80140528253E+02 0.  0.
         13    1    3    3    0    0 -0.34662691083E+02 -0.34460130790E+03 -0.65311742648E+02  0.35244458754E+03  0.00000000000E+00 0.  1.
        -13    1    3    3    0    0 -0.85952589077E+01 -0.53049413895E+02 -0.50787786695E+02  0.73942667437E+02  0.00000000000E+00 0. -1.
          4    1    6    6  502    0  0.15566183810E+03  0.48991304213E+03 -0.38945630532E+03  0.64491984808E+03  0.00000000000E+00 0. -1.
          1    1    5    5  503    0 -0.92637271644E+02 -0.16393434126E+03 -0.54422232137E+02  0.19600487671E+03  0.00000000000E+00 0. -1.
         -2    1    5    5    0  503 -0.37027915347E+02 -0.77438522146E+02  0.27981888096E+02  0.90281655327E+02  0.00000000000E+00 0.  1.
         -3    1    6    6    0  502  0.17261298881E+02  0.14911054308E+03 -0.75589021681E+02  0.16806429334E+03  0.00000000000E+00 0.  1.
<mgrwt>
<rscale>  0 0.13994543E+04</rscale>
<asrwt>0</asrwt>
<pdfrwt beam="1">  1        1 0.16409562E+00 0.13994543E+04</pdfrwt>
<pdfrwt beam="2">  1       -1 0.70620980E-01 0.13994543E+04</pdfrwt>
<totfact> 0.26555021E+01</totfact>
</mgrwt>
</event>
<event>
12    1  0.1397649E-007  0.1501249E+04  0.7818608E-02  0.8883623E-01
          2   -1    0    0  501    0  0.00000000000E+00  0.00000000000E+00  0.18636009922E+04  0.18636009922E+04  0.00000000000E+00 0. -1.
         -2   -1    0    0    0  501 -0.00000000000E+00 -0.00000000000E+00 -0.30233802758E+03  0.30233802758E+03  0.00000000000E+00 0.  1.
         23    2    1    2    0    0  0.87942664581E+02 -0.19871499766E+03  0.11147137564E+04  0.11392872463E+04  0.90372055890E+02 0.  0.
        254    2    1    2    0    0 -0.87942664581E+02  0.19871499766E+03  0.44654920822E+03  0.10266517734E+04  0.89854666319E+03 0.  0.
        -24    2    4    4    0    0  0.19473806216E+03 -0.28778501615E+03  0.16831882887E+03  0.39455900949E+03  0.81255494880E+02 0.  0.
         24    2    4    4    0    0 -0.28268072674E+03  0.48650001381E+03  0.27823037935E+03  0.63209276391E+03  0.74420840457E+02 0.  0.
         13    1    3    3    0    0  0.96647817513E+02 -0.11239486004E+03  0.73294716216E+03  0.74778669935E+03  0.00000000000E+00 0. -1.
        -13    1    3    3    0    0 -0.87051529321E+01 -0.86320137618E+02  0.38176659420E+03  0.39150054699E+03  0.00000000000E+00 0.  1.
          2    1    6    6  502    0 -0.34747692818E+01  0.35439016727E+02  0.29271422607E+02  0.46095705978E+02  0.00000000000E+00 0. -1.
          1    1    5    5  503    0  0.66082635705E+02 -0.11575545094E+03  0.10766922683E+03  0.17134439463E+03  0.00000000000E+00 0. -1.
         -2    1    5    5    0  503  0.12865542646E+03 -0.17202956521E+03  0.60649602034E+02  0.22321461487E+03  0.00000000000E+00 0.  1.
         -1    1    6    6    0  502 -0.27920595746E+03  0.45106099708E+03  0.24895895674E+03  0.58599705794E+03  0.00000000000E+00 0.  1.
<mgrwt>
<rscale>  0 0.15012494E+04</rscale>
<asrwt>0</asrwt>
<pdfrwt beam="1">  1        2 0.28670784E+00 0.15012494E+04</pdfrwt>
<pdfrwt beam="2">  1       -2 0.46513544E-01 0.15012494E+04</pdfrwt>
<totfact> 0.33680289E+01</totfact>
</mgrwt>
</event>
<event>
12    1  0.1397649E-007  0.1461451E+04  0.7818608E-02  0.8910500E-01
         -2   -1    0    0    0  501 -0.00000000000E+00  0.00000000000E+00  0.87441366554E+03  0.87441366554E+03  0.00000000000E+00 0.  1.
          2   -1    0    0  501    0  0.00000000000E+00 -0.00000000000E+00 -0.61064925475E+03  0.61064925475E+03  0.00000000000E+00 0. -1.
         23    2    1    2    0    0  0.17288503256E+03  0.32540307783E+03 -0.18234340799E+03  0.42130985923E+03  0.92067809280E+02 0.  0.
        254    2    1    2    0    0 -0.17288503256E+03 -0.32540307783E+03  0.44610781878E+03  0.10637530611E+04  0.89262645681E+03 0.  0.
        -24    2    4    4    0    0  0.21248624754E+03  0.20441449431E+03  0.14864370555E+03  0.33961788927E+03  0.79433422666E+02 0.  0.
         24    2    4    4    0    0 -0.38537128010E+03 -0.52981757214E+03  0.29746411323E+03  0.72413517179E+03  0.81664956367E+02 0.  0.
         11    1    3    3    0    0  0.33960005554E+01  0.30236994255E+02  0.78297479131E+01  0.31418363957E+02  0.00000000000E+00 0.  1.
        -11    1    3    3    0    0  0.16948903200E+03  0.29516608357E+03 -0.19017315591E+03  0.38989149528E+03  0.00000000000E+00 0. -1.
          2    1    6    6  502    0 -0.29937252703E+01 -0.22743414055E+02  0.24949340376E+00  0.22940957278E+02  0.00000000000E+00 0. -1.
          3    1    5    5  503    0  0.14999136430E+02  0.40567361481E+02  0.46288170068E+02  0.63350450665E+02  0.00000000000E+00 0. -1.
         -4    1    5    5    0  503  0.19748711111E+03  0.16384713282E+03  0.10235553548E+03  0.27626743861E+03  0.00000000000E+00 0.  1.
         -1    1    6    6    0  502 -0.38237755483E+03 -0.50707415808E+03  0.29721461983E+03  0.70119421452E+03  0.00000000000E+00 0.  1.
<mgrwt>
<rscale>  0 0.14614514E+04</rscale>
<asrwt>0</asrwt>
<pdfrwt beam="1">  1        2 0.93946039E-01 0.14614514E+04</pdfrwt>
<pdfrwt beam="2">  1       -2 0.13452518E+00 0.14614514E+04</pdfrwt>
<totfact> 0.18717048E+01</totfact>
</mgrwt>
</event>
<event>
12    1  0.1397649E-007  0.1643783E+04  0.7818608E-02  0.8794093E-01
          2   -1    0    0  501    0  0.00000000000E+00  0.00000000000E+00  0.81106014909E+03  0.81106014909E+03  0.00000000000E+00 0. -1.
         -2   -1    0    0    0  501 -0.00000000000E+00 -0.00000000000E+00 -0.83286772236E+03  0.83286772236E+03  0.00000000000E+00 0.  1.
         23    2    1    2    0    0 -0.24716147504E+03  0.13584368546E+03  0.49319691153E+03  0.57534283132E+03  0.90740720660E+02 0.  0.
        254    2    1    2    0    0  0.24716147504E+03 -0.13584368546E+03 -0.51500448480E+03  0.10685850401E+04  0.89280572745E+03 0.  0.
        -24    2    4    4    0    0 -0.53557363283E+02  0.10471972367E+03 -0.64049556728E+03  0.65643037338E+03  0.82653806351E+02 0.  0.
         24    2    4    4    0    0  0.30071883833E+03 -0.24056340913E+03  0.12549108248E+03  0.41215466674E+03  0.76294718017E+02 0.  0.
         11    1    3    3    0    0 -0.83139608729E+01 -0.10126520272E+01  0.69959016491E+02  0.70458579307E+02  0.00000000000E+00 0.  1.
        -11    1    3    3    0    0 -0.23884751417E+03  0.13685633749E+03  0.42323789504E+03  0.50488425202E+03  0.00000000000E+00 0. -1.
          4    1    6    6  502    0  0.61999365816E+02 -0.24464396652E+02  0.44438710210E+02  0.80107596583E+02  0.00000000000E+00 0. -1.
          3    1    5    5  503    0 -0.85841378009E+01  0.81469533793E+02 -0.26050802483E+03  0.27308497461E+03  0.00000000000E+00 0. -1.
         -4    1    5    5    0  503 -0.44973225482E+02  0.23250189874E+02 -0.37998754245E+03  0.38334539877E+03  0.00000000000E+00 0.  1.
         -3    1    6    6    0  502  0.23871947251E+03 -0.21609901248E+03  0.81052372265E+02  0.33204707016E+03  0.00000000000E+00 0.  1.
<mgrwt>
<rscale>  0 0.16437832E+04</rscale>
<asrwt>0</asrwt>
<pdfrwt beam="1">  1        2 0.12477848E+00 0.16437832E+04</pdfrwt>
<pdfrwt beam="2">  1       -2 0.12813350E+00 0.16437832E+04</pdfrwt>
<totfact> 0.14558409E+01</totfact>
</mgrwt>
</event>
<event>
12    1  0.1397649E-007  0.1517697E+04  0.7818608E-02  0.8872769E-01
         -1   -1    0    0    0  501 -0.00000000000E+00  0.00000000000E+00  0.49495602482E+03  0.49495602482E+03  0.00000000000E+00 0.  1.
          1   -1    0    0  501    0  0.00000000000E+00 -0.00000000000E+00 -0.11634381877E+04  0.11634381877E+04  0.00000000000E+00 0. -1.
         23    2    1    2    0    0 -0.13268308688E+03  0.17996432339E+03 -0.67994796033E+03  0.72214657994E+03  0.95783583847E+02 0.  0.
        254    2    1    2    0    0  0.13268308688E+03 -0.17996432339E+03  0.11465797431E+02  0.93624763260E+03  0.90908536771E+03 0.  0.
        -24    2    4    4    0    0  0.51596556538E+03 -0.75902748769E+02  0.37247418651E+02  0.52855886353E+03  0.77494581040E+02 0.  0.
         24    2    4    4    0    0 -0.38328247850E+03 -0.10406157462E+03 -0.25781621220E+02  0.40768876907E+03  0.88380828194E+02 0.  0.
         11    1    3    3    0    0 -0.67457796704E+02  0.16119433141E+03 -0.46564460492E+03  0.49735205328E+03  0.00000000000E+00 0. -1.
        -11    1    3    3    0    0 -0.65225290177E+02  0.18769991980E+02 -0.21430335541E+03  0.22479452666E+03  0.00000000000E+00 0.  1.
          2    1    6    6  502    0 -0.23224901645E+03 -0.74011624278E+02  0.26194086710E+02  0.24516006271E+03  0.00000000000E+00 0. -1.
          1    1    5    5  503    0  0.83818002809E+02  0.13796011940E+02 -0.55701953498E+01  0.85128224559E+02  0.00000000000E+00 0. -1.
         -2    1    5    5    0  503  0.43214756257E+03 -0.89698760709E+02  0.42817614001E+02  0.44343063897E+03  0.00000000000E+00 0.  1.
         -1    1    6    6    0  502 -0.15103346205E+03 -0.30049950341E+02 -0.51975707930E+02  0.16252870636E+03  0.00000000000E+00 0.  1.
<mgrwt>
<rscale>  0 0.15176966E+04</rscale>
<asrwt>0</asrwt>
<pdfrwt beam="1">  1        1 0.17899049E+00 0.15176966E+04</pdfrwt>
<pdfrwt beam="2">  1       -1 0.76147082E-01 0.15176966E+04</pdfrwt>
<totfact> 0.19020339E+01</totfact>
</mgrwt>
</event>
<event>
12    1  0.1397649E-007  0.1499870E+04  0.7818608E-02  0.8884539E-01
          1   -1    0    0  501    0  0.00000000000E+00  0.00000000000E+00  0.62836832709E+03  0.62836832709E+03  0.00000000000E+00 0. -1.
         -1   -1    0    0    0  501 -0.00000000000E+00 -0.00000000000E+00 -0.89502055168E+03  0.89502055168E+03  0.00000000000E+00 0.  1.
         23    2    1    2    0    0 -0.28775015003E+01  0.23487582264E+03  0.33659200205E+03  0.42009332864E+03  0.89494674957E+02 0.  0.
        254    2    1    2    0    0  0.28775015003E+01 -0.23487582264E+03 -0.60324422664E+03  0.11032955501E+04  0.89341062335E+03 0.  0.
        -24    2    4    4    0    0 -0.20377499890E+03 -0.49647082747E+03 -0.51955919672E+03  0.75095805937E+03  0.77386790466E+02 0.  0.
         24    2    4    4    0    0  0.20665250040E+03  0.26159500482E+03 -0.83685029918E+02  0.35233749077E+03  0.77468191530E+02 0.  0.
         11    1    3    3    0    0  0.27101239904E+02  0.26316731640E+02  0.76878977677E+02  0.85658769412E+02  0.00000000000E+00 0.  1.
        -11    1    3    3    0    0 -0.29978741404E+02  0.20855909100E+03  0.25971302437E+03  0.33443455922E+03  0.00000000000E+00 0. -1.
          2    1    6    6  502    0  0.20080659814E+03  0.21149197358E+03 -0.75312596035E+02  0.30120446854E+03  0.00000000000E+00 0. -1.
          3    1    5    5  503    0 -0.88640266823E+02 -0.12452830595E+03 -0.14500083796E+03  0.21068848780E+03  0.00000000000E+00 0. -1.
         -4    1    5    5    0  503 -0.11513473207E+03 -0.37194252152E+03 -0.37455835876E+03  0.54026957157E+03  0.00000000000E+00 0.  1.
         -1    1    6    6    0  502  0.58459022545E+01  0.50103031248E+02 -0.83724338830E+01  0.51133022231E+02  0.00000000000E+00 0.  1.
<mgrwt>
<rscale>  0 0.14998701E+04</rscale>
<asrwt>0</asrwt>
<pdfrwt beam="1">  1        1 0.96672050E-01 0.14998701E+04</pdfrwt>
<pdfrwt beam="2">  1       -1 0.13769547E+00 0.14998701E+04</pdfrwt>
<totfact> 0.13559474E+01</totfact>
</mgrwt>
</event>
<event>
12    1  0.1397649E-007  0.2330024E+04  0.7818608E-02  0.8466176E-01
         -2   -1    0    0    0  501 -0.00000000000E+00  0.00000000000E+00  0.80815609706E+03  0.80815609706E+03  0.00000000000E+00 0.  1.
          2   -1    0    0  501    0  0.00000000000E+00 -0.00000000000E+00 -0.16794443868E+04  0.16794443868E+04  0.00000000000E+00 0. -1.
         23    2    1    2    0    0 -0.29068393806E+03  0.16063482743E+03 -0.13665898147E+04  0.14101382716E+04  0.10306077665E+03 0.  0.
        254    2    1    2    0    0  0.29068393806E+03 -0.16063482743E+03  0.49530152496E+03  0.10774622123E+04  0.89738537912E+03 0.  0.
        -24    2    4    4    0    0  0.51331641197E+03 -0.30045292958E+03  0.53009756662E+03  0.80046567791E+03  0.77305689846E+02 0.  0.
         24    2    4    4    0    0 -0.22263247391E+03  0.13981810215E+03 -0.34796041656E+02  0.27699653438E+03  0.80012470361E+02 0.  0.
         11    1    3    3    0    0 -0.25884303684E+03  0.96901836478E+02 -0.10721014217E+04  0.11071545249E+04  0.00000000000E+00 0.  1.
        -11    1    3    3    0    0 -0.31840901222E+02  0.63732990953E+02 -0.29448839301E+03  0.30298374666E+03  0.00000000000E+00 0. -1.
          4    1    6    6  502    0 -0.12739672906E+03  0.12390812280E+03 -0.30742758155E+02  0.18035594432E+03  0.00000000000E+00 0. -1.
          1    1    5    5  503    0  0.28094516517E+03 -0.18143225106E+03  0.34454499091E+03  0.48016569881E+03  0.00000000000E+00 0. -1.
         -2    1    5    5    0  503  0.23237124680E+03 -0.11902067853E+03  0.18555257571E+03  0.32029997910E+03  0.00000000000E+00 0.  1.
         -3    1    6    6    0  502 -0.95235744851E+02  0.15909979350E+02 -0.40532835008E+01  0.96640590061E+02  0.00000000000E+00 0.  1.
<mgrwt>
<rscale>  0 0.23300242E+04</rscale>
<asrwt>0</asrwt>
<pdfrwt beam="1">  1        2 0.25837606E+00 0.23300242E+04</pdfrwt>
<pdfrwt beam="2">  1       -2 0.12433171E+00 0.23300242E+04</pdfrwt>
<totfact> 0.44260029E+00</totfact>
</mgrwt>
</event>
<event>
12    1  0.1397649E-007  0.2468114E+04  0.7818608E-02  0.8414434E-01
          2   -1    0    0  501    0  0.00000000000E+00  0.00000000000E+00  0.20363070383E+04  0.20363070383E+04  0.00000000000E+00 0. -1.
         -2   -1    0    0    0  501 -0.00000000000E+00 -0.00000000000E+00 -0.74787181741E+03  0.74787181741E+03  0.00000000000E+00 0.  1.
         23    2    1    2    0    0 -0.10632888253E+04  0.40557551244E+02  0.48140498291E+03  0.11714568345E+04  0.91281524090E+02 0.  0.
        254    2    1    2    0    0  0.10632888253E+04 -0.40557551244E+02  0.80703023802E+03  0.16127220212E+04  0.90407216063E+03 0.  0.
        -24    2    4    4    0    0  0.10674986338E+03  0.33544549475E+03  0.26807126179E+03  0.44925720402E+03  0.77785735774E+02 0.  0.
         24    2    4    4    0    0  0.95653896193E+03 -0.37600304599E+03  0.53895897623E+03  0.11634648172E+04  0.82634898749E+02 0.  0.
         11    1    3    3    0    0 -0.68625626941E+03 -0.14066843196E+02  0.32832642618E+03  0.76088355581E+03  0.00000000000E+00 0.  1.
        -11    1    3    3    0    0 -0.37703255590E+03  0.54624394440E+02  0.15307855673E+03  0.41057327873E+03  0.00000000000E+00 0. -1.
          4    1    6    6  502    0  0.14306533387E+03 -0.70218660955E+02  0.54040188725E+02  0.16828158574E+03  0.00000000000E+00 0. -1.
          3    1    5    5  503    0 -0.11882909035E+02  0.17634773365E+02  0.14767435977E+02  0.25889494474E+02  0.00000000000E+00 0. -1.
         -4    1    5    5    0  503  0.11863277241E+03  0.31781072138E+03  0.25330382581E+03  0.42336770955E+03  0.00000000000E+00 0.  1.
         -3    1    6    6    0  502  0.81347362806E+03 -0.30578438504E+03  0.48491878750E+03  0.99518323144E+03  0.00000000000E+00 0.  1.
<mgrwt>
<rscale>  0 0.24681140E+04</rscale>
<asrwt>0</asrwt>
<pdfrwt beam="1">  1        2 0.31327800E+00 0.24681140E+04</pdfrwt>
<pdfrwt beam="2">  1       -2 0.11505720E+00 0.24681140E+04</pdfrwt>
<totfact> 0.33583684E+00</totfact>
</mgrwt>
</event>
<event>
12    1  0.1397649E-007  0.1993525E+04  0.7818608E-02  0.8609654E-01
          2   -1    0    0  501    0  0.00000000000E+00  0.00000000000E+00  0.26219847930E+04  0.26219847930E+04  0.00000000000E+00 0. -1.
         -2   -1    0    0    0  501 -0.00000000000E+00 -0.00000000000E+00 -0.37892487460E+03  0.37892487460E+03  0.00000000000E+00 0.  1.
         23    2    1    2    0    0  0.98803647070E+02  0.24754583859E+02  0.20702875786E+04  0.20750881328E+04  0.97596879533E+02 0.  0.
        254    2    1    2    0    0 -0.98803647070E+02 -0.24754583859E+02  0.17277233984E+03  0.92582153479E+03  0.90383642479E+03 0.  0.
        -24    2    4    4    0    0  0.26901445421E+03  0.29065067458E+03 -0.31134036821E+00  0.40405794475E+03  0.80100777620E+02 0.  0.
         24    2    4    4    0    0 -0.36781810128E+03 -0.31540525844E+03  0.17308368021E+03  0.52176359004E+03  0.86652471700E+02 0.  0.
         13    1    3    3    0    0  0.19641963607E+02 -0.24254341034E+02  0.10755930631E+04  0.10760457784E+04  0.00000000000E+00 0.  1.
        -13    1    3    3    0    0  0.79161683463E+02  0.49008924893E+02  0.99469451547E+03  0.99904235443E+03  0.00000000000E+00 0. -1.
          2    1    6    6  502    0 -0.17717326186E+03 -0.10383286060E+03  0.96199141765E+02  0.22677279937E+03  0.00000000000E+00 0. -1.
          1    1    5    5  503    0  0.21260510034E+03  0.25340990217E+03  0.25359515169E+02  0.33175384281E+03  0.00000000000E+00 0. -1.
         -2    1    5    5    0  503  0.56409353872E+02  0.37240772414E+02 -0.25670855537E+02  0.72304101946E+02  0.00000000000E+00 0.  1.
         -1    1    6    6    0  502 -0.19064483942E+03 -0.21157239784E+03  0.76884538441E+02  0.29499079066E+03  0.00000000000E+00 0.  1.
<mgrwt>
<rscale>  0 0.19935248E+04</rscale>
<asrwt>0</asrwt>
<pdfrwt beam="1">  1        2 0.40338226E+00 0.19935248E+04</pdfrwt>
<pdfrwt beam="2">  1       -2 0.58296136E-01 0.19935248E+04</pdfrwt>
<totfact> 0.75642007E+00</totfact>
</mgrwt>
</event>
<event>
12    1  0.1397649E-007  0.1416841E+04  0.7818608E-02  0.8941718E-01
         -4   -1    0    0    0  501 -0.00000000000E+00  0.00000000000E+00  0.40686512179E+03  0.40686512179E+03  0.00000000000E+00 0.  1.
          4   -1    0    0  501    0  0.00000000000E+00 -0.00000000000E+00 -0.12334786937E+04  0.12334786937E+04  0.00000000000E+00 0. -1.
         23    2    1    2    0    0  0.10162584588E+03 -0.90128180820E+02 -0.69057104999E+03  0.71047800914E+03  0.97158246443E+02 0.  0.
        254    2    1    2    0    0 -0.10162584588E+03  0.90128180820E+02 -0.13604252194E+03  0.92986580638E+03  0.90977576829E+03 0.  0.
        -24    2    4    4    0    0  0.25545995958E+03 -0.16421164972E+03  0.19958774675E+03  0.37196830519E+03  0.79371875137E+02 0.  0.
         24    2    4    4    0    0 -0.35708580546E+03  0.25433983054E+03 -0.33563026869E+03  0.55789750119E+03  0.80018264862E+02 0.  0.
         11    1    3    3    0    0  0.11652288902E+03 -0.95965417884E+02 -0.61901859281E+03  0.63715850723E+03  0.00000000000E+00 0. -1.
        -11    1    3    3    0    0 -0.14897043137E+02  0.58372370642E+01 -0.71552457179E+02  0.73319501902E+02  0.00000000000E+00 0.  1.
          4    1    6    6  502    0 -0.10516598982E+03  0.12143458250E+03 -0.12859486399E+03  0.20577386201E+03  0.00000000000E+00 0. -1.
          3    1    5    5  503    0  0.15757360773E+02  0.88022529147E+00  0.33078733330E+02  0.36650672761E+02  0.00000000000E+00 0. -1.
         -4    1    5    5    0  503  0.23970259880E+03 -0.16509187501E+03  0.16650901342E+03  0.33531763243E+03  0.00000000000E+00 0.  1.
         -3    1    6    6    0  502 -0.25191981564E+03  0.13290524804E+03 -0.20703540470E+03  0.35212363918E+03  0.00000000000E+00 0.  1.
<mgrwt>
<rscale>  0 0.14168408E+04</rscale>
<asrwt>0</asrwt>
<pdfrwt beam="1">  1        4 0.18976596E+00 0.14168408E+04</pdfrwt>
<pdfrwt beam="2">  1       -4 0.62594633E-01 0.14168408E+04</pdfrwt>
<totfact> 0.71635056E-01</totfact>
</mgrwt>
</event>
<event>
12    1  0.1397649E-007  0.1749578E+04  0.7818608E-02  0.8733583E-01
         -1   -1    0    0    0  501 -0.00000000000E+00  0.00000000000E+00  0.83400813236E+03  0.83400813236E+03  0.00000000000E+00 0.  1.
          1   -1    0    0  501    0  0.00000000000E+00 -0.00000000000E+00 -0.91756408663E+03  0.91756408663E+03  0.00000000000E+00 0. -1.
         23    2    1    2    0    0  0.57162465690E+03 -0.28131293126E+03 -0.97372314912E+02  0.65063427148E+03  0.89173279892E+02 0.  0.
        254    2    1    2    0    0 -0.57162465690E+03  0.28131293126E+03  0.13816360643E+02  0.11009379475E+04  0.89776486830E+03 0.  0.
        -24    2    4    4    0    0 -0.41026424563E+03  0.56427652527E+03  0.18212035859E+03  0.72551631311E+03  0.80506815653E+02 0.  0.
         24    2    4    4    0    0 -0.16136041127E+03 -0.28296359401E+03 -0.16830399795E+03  0.37542163439E+03  0.80682030115E+02 0.  0.
         11    1    3    3    0    0  0.19200535224E+03 -0.98347654366E+02  0.93145175030E+01  0.21592840629E+03  0.00000000000E+00 0.  1.
        -11    1    3    3    0    0  0.37961930466E+03 -0.18296527689E+03 -0.10668683241E+03  0.43470586519E+03  0.00000000000E+00 0. -1.
          2    1    6    6  502    0 -0.40817244279E+02 -0.12813838214E+03 -0.10025214435E+03  0.16773784563E+03  0.00000000000E+00 0. -1.
          1    1    5    5  503    0 -0.30886502564E+03  0.36696070213E+03  0.10837088644E+03  0.49173367792E+03  0.00000000000E+00 0. -1.
         -2    1    5    5    0  503 -0.10139921999E+03  0.19731582314E+03  0.73749472158E+02  0.23378263520E+03  0.00000000000E+00 0.  1.
         -1    1    6    6    0  502 -0.12054316699E+03 -0.15482521187E+03 -0.68051853603E+02  0.20768378877E+03  0.00000000000E+00 0.  1.
<mgrwt>
<rscale>  0 0.17495781E+04</rscale>
<asrwt>0</asrwt>
<pdfrwt beam="1">  1        1 0.14116371E+00 0.17495781E+04</pdfrwt>
<pdfrwt beam="2">  1       -1 0.12830894E+00 0.17495781E+04</pdfrwt>
<totfact> 0.87465391E+00</totfact>
</mgrwt>
</event>
<event>
12    1  0.1397649E-007  0.2475576E+04  0.7818608E-02  0.8411739E-01
          2   -1    0    0  501    0  0.00000000000E+00  0.00000000000E+00  0.37667238791E+04  0.37667238791E+04  0.00000000000E+00 0. -1.
         -2   -1    0    0    0  501 -0.00000000000E+00 -0.00000000000E+00 -0.40675121271E+03  0.40675121271E+03  0.00000000000E+00 0.  1.
         23    2    1    2    0    0 -0.50729676152E+03  0.69663548652E+03  0.25281554986E+04  0.26721743864E+04  0.79339276592E+02 0.  0.
        254    2    1    2    0    0  0.50729676152E+03 -0.69663548652E+03  0.83181716778E+03  0.15013007054E+04  0.90517015094E+03 0.  0.
        -24    2    4    4    0    0  0.38501531791E+03  0.87941267575E+02  0.48609845391E+03  0.63133999689E+03  0.79548873106E+02 0.  0.
         24    2    4    4    0    0  0.12228144361E+03 -0.78457675409E+03  0.34571871387E+03  0.86996070853E+03  0.82442530011E+02 0.  0.
         13    1    3    3    0    0 -0.25142939404E+03  0.31269639007E+03  0.10696219972E+04  0.11424040395E+04  0.00000000000E+00 0. -1.
        -13    1    3    3    0    0 -0.25586736748E+03  0.38393909645E+03  0.14585335014E+04  0.15297703469E+04  0.00000000000E+00 0.  1.
          4    1    6    6  502    0  0.70548306947E+02 -0.30942891210E+03  0.10136317177E+03  0.33316333509E+03  0.00000000000E+00 0. -1.
          1    1    5    5  503    0  0.53315265844E+02  0.31379723061E+02  0.11368658889E+03  0.12942891904E+03  0.00000000000E+00 0. -1.
         -2    1    5    5    0  503  0.33170005206E+03  0.56561544513E+02  0.37241186502E+03  0.50191107785E+03  0.00000000000E+00 0.  1.
         -3    1    6    6    0  502  0.51733136667E+02 -0.47514784199E+03  0.24435554210E+03  0.53679737344E+03  0.00000000000E+00 0.  1.
<mgrwt>
<rscale>  0 0.24755763E+04</rscale>
<asrwt>0</asrwt>
<pdfrwt beam="1">  1        2 0.57949596E+00 0.24755763E+04</pdfrwt>
<pdfrwt beam="2">  1       -2 0.62577112E-01 0.24755763E+04</pdfrwt>
<totfact> 0.11043937E+00</totfact>
</mgrwt>
</event>
<event>
12    1  0.1397649E-007  0.1389415E+04  0.7818608E-02  0.8961516E-01
          2   -1    0    0  501    0  0.00000000000E+00  0.00000000000E+00  0.14017995448E+04  0.14017995448E+04  0.00000000000E+00 0. -1.
         -2   -1    0    0    0  501 -0.00000000000E+00 -0.00000000000E+00 -0.34428495516E+03  0.34428495516E+03  0.00000000000E+00 0.  1.
         23    2    1    2    0    0  0.27624339780E+03  0.59232497826E+02 -0.42553670974E+02  0.29988965039E+03  0.91126746169E+02 0.  0.
        254    2    1    2    0    0 -0.27624339780E+03 -0.59232497826E+02  0.11000682606E+04  0.14461948496E+04  0.89527116634E+03 0.  0.
        -24    2    4    4    0    0  0.25658806338E+03 -0.23639830206E+03  0.32025122466E+03  0.48147422676E+03  0.86804335433E+02 0.  0.
         24    2    4    4    0    0 -0.53283146118E+03  0.17716580424E+03  0.77981703596E+03  0.96472062282E+03  0.85288816969E+02 0.  0.
         11    1    3    3    0    0  0.71662145912E+02 -0.89715522298E+01  0.20743177472E+02  0.75141408809E+02  0.00000000000E+00 0. -1.
        -11    1    3    3    0    0  0.20458125189E+03  0.68204050056E+02 -0.63296848446E+02  0.22474824158E+03  0.00000000000E+00 0.  1.
          2    1    6    6  502    0 -0.44639534461E+03  0.11358171658E+03  0.63639075714E+03  0.78559710145E+03  0.00000000000E+00 0. -1.
          1    1    5    5  503    0  0.11389328026E+03 -0.52308257532E+02  0.93060760244E+02  0.15610297304E+03  0.00000000000E+00 0. -1.
         -2    1    5    5    0  503  0.14269478311E+03 -0.18409004453E+03  0.22719046442E+03  0.32537125372E+03  0.00000000000E+00 0.  1.
         -1    1    6    6    0  502 -0.86436116570E+02  0.63584087661E+02  0.14342627883E+03  0.17912352137E+03  0.00000000000E+00 0.  1.
<mgrwt>
<rscale>  0 0.13894150E+04</rscale>
<asrwt>0</asrwt>
<pdfrwt beam="1">  1        2 0.21566147E+00 0.13894150E+04</pdfrwt>
<pdfrwt beam="2">  1       -2 0.52966917E-01 0.13894150E+04</pdfrwt>
<totfact> 0.47259930E+01</totfact>
</mgrwt>
</event>
<event>
12    1  0.1397649E-007  0.1652669E+04  0.7818608E-02  0.8788829E-01
          2   -1    0    0  501    0  0.00000000000E+00  0.00000000000E+00  0.87767248216E+03  0.87767248216E+03  0.00000000000E+00 0. -1.
         -2   -1    0    0    0  501 -0.00000000000E+00 -0.00000000000E+00 -0.77799942753E+03  0.77799942753E+03  0.00000000000E+00 0.  1.
         23    2    1    2    0    0  0.49895556105E+03  0.31946752409E+02  0.36827963821E+03  0.62732594776E+03  0.89054510957E+02 0.  0.
        254    2    1    2    0    0 -0.49895556105E+03 -0.31946752409E+02 -0.26860658358E+03  0.10283459619E+04  0.85753639794E+03 0.  0.
        -24    2    4    4    0    0  0.20258840557E+03 -0.70152042344E+02 -0.22272433941E+03  0.31913529645E+03  0.79232789678E+02 0.  0.
         24    2    4    4    0    0 -0.70154396661E+03  0.38205289935E+02 -0.45882244166E+02  0.70921066548E+03  0.85152841540E+02 0.  0.
         11    1    3    3    0    0  0.49853746450E+03  0.39454106943E+02  0.36496494937E+03  0.61910875000E+03  0.00000000000E+00 0. -1.
        -11    1    3    3    0    0  0.41809654684E+00 -0.75073545338E+01  0.33146888452E+01  0.82171977558E+01  0.00000000000E+00 0.  1.
          4    1    6    6  502    0 -0.29404951078E+03  0.45530500641E+02 -0.49450809753E+02  0.30163475242E+03  0.00000000000E+00 0. -1.
          1    1    5    5  503    0  0.19809367832E+03 -0.47223667184E+02 -0.18718424322E+03  0.27660282183E+03  0.00000000000E+00 0. -1.
         -2    1    5    5    0  503  0.44947272472E+01 -0.22928375160E+02 -0.35540096190E+02  0.42532474625E+02  0.00000000000E+00 0.  1.
         -3    1    6    6    0  502 -0.40749445583E+03 -0.73252107062E+01  0.35685655866E+01  0.40757591306E+03  0.00000000000E+00 0.  1.
<mgrwt>
<rscale>  0 0.16526690E+04</rscale>
<asrwt>0</asrwt>
<pdfrwt beam="1">  1        2 0.13502654E+00 0.16526690E+04</pdfrwt>
<pdfrwt beam="2">  1       -2 0.11969222E+00 0.16526690E+04</pdfrwt>
<totfact> 0.15499424E+01</totfact>
</mgrwt>
</event>
<event>
12    1  0.1397649E-007  0.1597587E+04  0.7818608E-02  0.8822032E-01
          1   -1    0    0  501    0  0.00000000000E+00  0.00000000000E+00  0.69565894333E+03  0.69565894333E+03  0.00000000000E+00 0. -1.
         -1   -1    0    0    0  501 -0.00000000000E+00 -0.00000000000E+00 -0.91721857348E+03  0.91721857348E+03  0.00000000000E+00 0.  1.
         23    2    1    2    0    0  0.19581620193E+03  0.42703984450E+03  0.19420701904E+03  0.51708185801E+03  0.94605855565E+02 0.  0.
        254    2    1    2    0    0 -0.19581620193E+03 -0.42703984450E+03 -0.41576664919E+03  0.10957956588E+04  0.89844265569E+03 0.  0.
        -24    2    4    4    0    0 -0.34986099410E+03 -0.31635024316E+02  0.14335999138E+03  0.38928284036E+03  0.87095078565E+02 0.  0.
         24    2    4    4    0    0  0.15404479218E+03 -0.39540482018E+03 -0.55912664057E+03  0.70651281845E+03  0.80392739817E+02 0.  0.
         11    1    3    3    0    0  0.86596690465E+02  0.22443518230E+03  0.50719047191E+02  0.24585068558E+03  0.00000000000E+00 0. -1.
        -11    1    3    3    0    0  0.10921951146E+03  0.20260466220E+03  0.14348797185E+03  0.27123117242E+03  0.00000000000E+00 0.  1.
          4    1    6    6  502    0  0.16035576393E+02 -0.71010898605E+02 -0.54482034597E+02  0.90928430784E+02  0.00000000000E+00 0. -1.
          3    1    5    5  503    0 -0.16763524068E+03  0.28464607943E+02  0.68699807414E+02  0.18338885289E+03  0.00000000000E+00 0. -1.
         -4    1    5    5    0  503 -0.18222575342E+03 -0.60099632259E+02  0.74660183970E+02  0.20589398747E+03  0.00000000000E+00 0.  1.
         -3    1    6    6    0  502  0.13800921578E+03 -0.32439392158E+03 -0.50464460597E+03  0.61558438767E+03  0.00000000000E+00 0.  1.
<mgrwt>
<rscale>  0 0.15975873E+04</rscale>
<asrwt>0</asrwt>
<pdfrwt beam="1">  1        1 0.10702445E+00 0.15975873E+04</pdfrwt>
<pdfrwt beam="2">  1       -1 0.14111055E+00 0.15975873E+04</pdfrwt>
<totfact> 0.10838464E+01</totfact>
</mgrwt>
</event>
<event>
12    1  0.1397649E-007  0.2047106E+04  0.7818608E-02  0.8584908E-01
         -1   -1    0    0    0  501 -0.00000000000E+00  0.00000000000E+00  0.11941846996E+04  0.11941846996E+04  0.00000000000E+00 0.  1.
          1   -1    0    0  501    0  0.00000000000E+00 -0.00000000000E+00 -0.87730186323E+03  0.87730186323E+03  0.00000000000E+00 0. -1.
         23    2    1    2    0    0  0.16545014627E+03 -0.25898477476E+03 -0.62041739554E+03  0.69954420994E+03  0.99987461821E+02 0.  0.
        254    2    1    2    0    0 -0.16545014627E+03  0.25898477476E+03  0.93730023194E+03  0.13719423529E+04  0.95354456135E+03 0.  0.
        -24    2    4    4    0    0  0.29158158371E+03 -0.32971573636E+02  0.72112767858E+03  0.78262881537E+03  0.79848539237E+02 0.  0.
         24    2    4    4    0    0 -0.45703172998E+03  0.29195634839E+03  0.21617255336E+03  0.58931353754E+03  0.80270549574E+02 0.  0.
         13    1    3    3    0    0  0.11021690575E+03 -0.22022935035E+03 -0.54670918417E+03  0.59961626489E+03  0.00000000000E+00 0. -1.
        -13    1    3    3    0    0  0.55233240512E+02 -0.38755424407E+02 -0.73708211368E+02  0.99927945048E+02  0.00000000000E+00 0.  1.
          2    1    6    6  502    0 -0.25621158621E+02  0.35985435442E+02  0.30374814767E+01  0.44278907244E+02  0.00000000000E+00 0. -1.
          3    1    5    5  503    0  0.11154811709E+03 -0.31170267755E+02  0.37495141345E+03  0.39243232597E+03  0.00000000000E+00 0. -1.
         -4    1    5    5    0  503  0.18003346662E+03 -0.18013058813E+01  0.34617626513E+03  0.39019648941E+03  0.00000000000E+00 0.  1.
         -1    1    6    6    0  502 -0.43141057136E+03  0.25597091295E+03  0.21313507189E+03  0.54503463030E+03  0.00000000000E+00 0.  1.
<mgrwt>
<rscale>  0 0.20471057E+04</rscale>
<asrwt>0</asrwt>
<pdfrwt beam="1">  1        1 0.13496952E+00 0.20471057E+04</pdfrwt>
<pdfrwt beam="2">  1       -1 0.18372072E+00 0.20471057E+04</pdfrwt>
<totfact> 0.34356897E+00</totfact>
</mgrwt>
</event>
<event>
12    1  0.1397649E-007  0.1354811E+04  0.7818608E-02  0.8987194E-01
         -1   -1    0    0    0  501 -0.00000000000E+00  0.00000000000E+00  0.31850275949E+03  0.31850275949E+03  0.00000000000E+00 0.  1.
          1   -1    0    0  501    0  0.00000000000E+00 -0.00000000000E+00 -0.14407352380E+04  0.14407352380E+04  0.00000000000E+00 0. -1.
         23    2    1    2    0    0 -0.90445071342E+02  0.29159724351E+03 -0.58676826440E+03  0.66697060326E+03  0.85694376476E+02 0.  0.
        254    2    1    2    0    0  0.90445071342E+02 -0.29159724351E+03 -0.53546421415E+03  0.10922673943E+04  0.90172993329E+03 0.  0.
        -24    2    4    4    0    0 -0.11100022156E+03 -0.48868330561E+03 -0.30411547240E+02  0.50851377267E+03  0.80802057032E+02 0.  0.
         24    2    4    4    0    0  0.20144529290E+03  0.19708606211E+03 -0.50505266691E+03  0.58375362160E+03  0.79164212018E+02 0.  0.
         11    1    3    3    0    0 -0.82221115438E+02  0.18702007450E+03 -0.31278628376E+03  0.37359346809E+03  0.00000000000E+00 0.  1.
        -11    1    3    3    0    0 -0.82239559039E+01  0.10457716901E+03 -0.27398198064E+03  0.29337713517E+03  0.00000000000E+00 0. -1.
          2    1    6    6  502    0  0.60273657230E+01 -0.17533091038E+01 -0.47808630863E+02  0.48218963234E+02  0.00000000000E+00 0. -1.
          3    1    5    5  503    0 -0.14469307992E+02 -0.23418542938E+03 -0.16845818631E-01  0.23463200227E+03  0.00000000000E+00 0. -1.
         -4    1    5    5    0  503 -0.96530913571E+02 -0.25449787623E+03 -0.30394701422E+02  0.27388177040E+03  0.00000000000E+00 0.  1.
         -1    1    6    6    0  502  0.19541792718E+03  0.19883937121E+03 -0.45724403605E+03  0.53553465836E+03  0.00000000000E+00 0.  1.
<mgrwt>
<rscale>  0 0.13548109E+04</rscale>
<asrwt>0</asrwt>
<pdfrwt beam="1">  1        1 0.22165157E+00 0.13548109E+04</pdfrwt>
<pdfrwt beam="2">  1       -1 0.49000425E-01 0.13548109E+04</pdfrwt>
<totfact> 0.29356718E+01</totfact>
</mgrwt>
</event>
<event>
12    1  0.1397649E-007  0.2514960E+04  0.7818608E-02  0.8397675E-01
         -2   -1    0    0    0  501 -0.00000000000E+00  0.00000000000E+00  0.84257901094E+03  0.84257901094E+03  0.00000000000E+00 0. -1.
          2   -1    0    0  501    0  0.00000000000E+00 -0.00000000000E+00 -0.18766853963E+04  0.18766853963E+04  0.00000000000E+00 0.  1.
         23    2    1    2    0    0  0.10796326984E+04 -0.78810497773E+01 -0.65236313339E+03  0.12646997070E+04  0.90657690091E+02 0.  0.
        254    2    1    2    0    0 -0.10796326984E+04  0.78810497773E+01 -0.38174325200E+03  0.14545647002E+04  0.89686213115E+03 0.  0.
        -24    2    4    4    0    0 -0.65610520650E+03 -0.39303575960E+03 -0.39516683472E+03  0.86463559620E+03  0.80540279571E+02 0.  0.
         24    2    4    4    0    0 -0.42352749190E+03  0.40091680938E+03  0.13423582717E+02  0.58992910403E+03  0.87899549288E+02 0.  0.
         11    1    3    3    0    0  0.95962400376E+03  0.13874947777E+02 -0.55505726461E+03  0.11086745734E+04  0.00000000000E+00 0.  1.
        -11    1    3    3    0    0  0.12000869465E+03 -0.21755997554E+02 -0.97305868786E+02  0.15602513362E+03  0.00000000000E+00 0. -1.
          4    1    6    6  502    0 -0.12933172173E+03  0.17675433957E+03  0.20690541543E+02  0.21999293014E+03  0.00000000000E+00 0. -1.
          3    1    5    5  503    0 -0.40469337978E+02 -0.14661108292E+02 -0.47756609485E+01  0.43307301350E+02  0.00000000000E+00 0. -1.
         -4    1    5    5    0  503 -0.61563586853E+03 -0.37837465131E+03 -0.39039117377E+03  0.82132829485E+03  0.00000000000E+00 0.  1.
         -3    1    6    6    0  502 -0.29419577018E+03  0.22416246981E+03 -0.72669588268E+01  0.36993617389E+03  0.00000000000E+00 0.  1.
<mgrwt>
<rscale>  0 0.25149598E+04</rscale>
<asrwt>0</asrwt>
<pdfrwt beam="1">  1        2 0.28872083E+00 0.25149598E+04</pdfrwt>
<pdfrwt beam="2">  1       -2 0.12962754E+00 0.25149598E+04</pdfrwt>
<totfact> 0.30488548E+00</totfact>
</mgrwt>
</event>
<event>
12    1  0.1397649E-007  0.1479434E+04  0.7818608E-02  0.8898245E-01
          1   -1    0    0  501    0  0.00000000000E+00  0.00000000000E+00  0.13853269248E+04  0.13853269248E+04  0.00000000000E+00 0. -1.
         -1   -1    0    0    0  501 -0.00000000000E+00 -0.00000000000E+00 -0.39498346061E+03  0.39498346061E+03  0.00000000000E+00 0.  1.
         23    2    1    2    0    0  0.35079092822E+03  0.11318222665E+02 -0.46024460653E+02  0.36377538739E+03  0.83856448802E+02 0.  0.
        254    2    1    2    0    0 -0.35079092822E+03 -0.11318222665E+02  0.10363679249E+04  0.14165349980E+04  0.89962800505E+03 0.  0.
        -24    2    4    4    0    0  0.20203757251E+03 -0.20471064535E+03  0.11028748003E+03  0.31788496209E+03  0.78497718733E+02 0.  0.
         24    2    4    4    0    0 -0.55282850074E+03  0.19339242269E+03  0.92608044485E+03  0.10986500359E+04  0.79918275606E+02 0.  0.
         13    1    3    3    0    0  0.29709192235E+02  0.24986269840E+02  0.18141340625E+01  0.38861817587E+02  0.00000000000E+00 0. -1.
        -13    1    3    3    0    0  0.32108173599E+03 -0.13668047176E+02 -0.47838594716E+02  0.32491356980E+03  0.00000000000E+00 0.  1.
          4    1    6    6  502    0 -0.30510667024E+03  0.72806820189E+02  0.44867751919E+03  0.54745084667E+03  0.00000000000E+00 0. -1.
          3    1    5    5  503    0  0.10035198178E+02 -0.36677628427E+02 -0.41463317608E+01  0.38251087522E+02  0.00000000000E+00 0. -1.
         -4    1    5    5    0  503  0.19200237434E+03 -0.16803301693E+03  0.11443381179E+03  0.27963387457E+03  0.00000000000E+00 0.  1.
         -3    1    6    6    0  502 -0.24772183050E+03  0.12058560250E+03  0.47740292566E+03  0.55119918928E+03  0.00000000000E+00 0.  1.
<mgrwt>
<rscale>  0 0.14794340E+04</rscale>
<asrwt>0</asrwt>
<pdfrwt beam="1">  1        1 0.21312722E+00 0.14794340E+04</pdfrwt>
<pdfrwt beam="2">  1       -1 0.60766687E-01 0.14794340E+04</pdfrwt>
<totfact> 0.20936121E+01</totfact>
</mgrwt>
</event>
<event>
12    1  0.1397649E-007  0.2015886E+04  0.7818608E-02  0.8599229E-01
          1   -1    0    0  501    0  0.00000000000E+00  0.00000000000E+00  0.19954563549E+04  0.19954563549E+04  0.00000000000E+00 0. -1.
         -1   -1    0    0    0  501 -0.00000000000E+00 -0.00000000000E+00 -0.50913142193E+03  0.50913142193E+03  0.00000000000E+00 0.  1.
         23    2    1    2    0    0  0.77821459684E+03 -0.11571458810E+03  0.66801903273E+03  0.10361865412E+04  0.91789407797E+02 0.  0.
        254    2    1    2    0    0 -0.77821459684E+03  0.11571458810E+03  0.81830590019E+03  0.14684012356E+04  0.93143427995E+03 0.  0.
        -24    2    4    4    0    0  0.99252043126E+02 -0.22085763615E+03  0.71414489727E+02  0.26508349577E+03  0.80871298245E+02 0.  0.
         24    2    4    4    0    0 -0.87746663996E+03  0.33657222424E+03  0.74689141047E+03  0.12033177398E+04  0.83055629720E+02 0.  0.
         11    1    3    3    0    0  0.29513391947E+03 -0.61483379635E+02  0.31034908005E+03  0.43266706355E+03  0.00000000000E+00 0.  1.
        -11    1    3    3    0    0  0.48308067736E+03 -0.54231208461E+02  0.35766995268E+03  0.60351947762E+03  0.00000000000E+00 0. -1.
          4    1    6    6  502    0 -0.89087463777E+02  0.84182654512E+01  0.67903294525E+02  0.11233121028E+03  0.00000000000E+00 0. -1.
          1    1    5    5  503    0  0.33568518079E+02 -0.16549278583E+03  0.39328601228E+02  0.17338237063E+03  0.00000000000E+00 0. -1.
         -4    1    5    5    0  503  0.65683525047E+02 -0.55364850313E+02  0.32085888500E+02  0.91701125149E+02  0.00000000000E+00 0.  1.
         -3    1    6    6    0  502 -0.78837917619E+03  0.32815395879E+03  0.67898811594E+03  0.10909865296E+04  0.00000000000E+00 0.  1.
<mgrwt>
<rscale>  0 0.20158864E+04</rscale>
<asrwt>0</asrwt>
<pdfrwt beam="1">  1        1 0.30699328E+00 0.20158864E+04</pdfrwt>
<pdfrwt beam="2">  1       -1 0.78327912E-01 0.20158864E+04</pdfrwt>
<totfact> 0.45358664E+00</totfact>
</mgrwt>
</event>
<event>
12    1  0.1397649E-007  0.1952524E+04  0.7818608E-02  0.8629145E-01
          2   -1    0    0  501    0  0.00000000000E+00  0.00000000000E+00  0.73417802251E+03  0.73417802251E+03  0.00000000000E+00 0. -1.
         -2   -1    0    0    0  501 -0.00000000000E+00 -0.00000000000E+00 -0.12981697250E+04  0.12981697250E+04  0.00000000000E+00 0.  1.
         23    2    1    2    0    0 -0.20880055379E+03 -0.73827559007E+03 -0.29601119718E+03  0.82727573167E+03  0.90077684248E+02 0.  0.
        254    2    1    2    0    0  0.20880055379E+03  0.73827559007E+03 -0.26798050528E+03  0.12050720158E+04  0.88979575969E+03 0.  0.
        -24    2    4    4    0    0  0.54439518690E+03  0.51681617522E+03 -0.24679263416E+03  0.79413487545E+03  0.79237097710E+02 0.  0.
         24    2    4    4    0    0 -0.33559463311E+03  0.22145941485E+03 -0.21187871128E+02  0.41093714037E+03  0.82172849862E+02 0.  0.
         13    1    3    3    0    0 -0.29467267243E+02 -0.30945256428E+02 -0.13976853070E+02  0.44958660521E+02  0.00000000000E+00 0.  1.
        -13    1    3    3    0    0 -0.17933328654E+03 -0.70733033364E+03 -0.28203434411E+03  0.78231707115E+03  0.00000000000E+00 0. -1.
          4    1    6    6  502    0 -0.25745508348E+03  0.20141165932E+03  0.24046935952E+01  0.32688768571E+03  0.00000000000E+00 0. -1.
          3    1    5    5  503    0  0.42497618255E+03  0.35674292919E+03 -0.17255888667E+03  0.58107387020E+03  0.00000000000E+00 0. -1.
         -4    1    5    5    0  503  0.11941900435E+03  0.16007324603E+03 -0.74233747481E+02  0.21306100525E+03  0.00000000000E+00 0.  1.
         -3    1    6    6    0  502 -0.78139549633E+02  0.20047755537E+02 -0.23592564723E+02  0.84049454663E+02  0.00000000000E+00 0.  1.
<mgrwt>
<rscale>  0 0.19525242E+04</rscale>
<asrwt>0</asrwt>
<pdfrwt beam="1">  1        2 0.11295047E+00 0.19525242E+04</pdfrwt>
<pdfrwt beam="2">  1       -2 0.19971842E+00 0.19525242E+04</pdfrwt>
<totfact> 0.47990968E+00</totfact>
</mgrwt>
</event>
<event>
12    1  0.1397649E-007  0.1461128E+04  0.7818608E-02  0.8910722E-01
          1   -1    0    0  501    0  0.00000000000E+00  0.00000000000E+00  0.53791668356E+03  0.53791668356E+03  0.00000000000E+00 0. -1.
         -1   -1    0    0    0  501 -0.00000000000E+00 -0.00000000000E+00 -0.99220548653E+03  0.99220548653E+03  0.00000000000E+00 0.  1.
         23    2    1    2    0    0  0.84868353963E+02  0.64947482229E+02 -0.59227564957E+03  0.60889023715E+03  0.92390815960E+02 0.  0.
        254    2    1    2    0    0 -0.84868353963E+02 -0.64947482229E+02  0.13798684660E+03  0.92123193295E+03  0.90454800398E+03 0.  0.
        -24    2    4    4    0    0  0.32913403547E+03 -0.22517632236E+03  0.22009934914E+03  0.46237125895E+03  0.79434678547E+02 0.  0.
         24    2    4    4    0    0 -0.41400238943E+03  0.16022884013E+03 -0.82112502545E+02  0.45886067400E+03  0.82093820719E+02 0.  0.
         11    1    3    3    0    0  0.17132741513E+02  0.45701128430E+02 -0.96517985650E+02  0.10815657874E+03  0.00000000000E+00 0.  1.
        -11    1    3    3    0    0  0.67735612449E+02  0.19246353799E+02 -0.49575766392E+03  0.50073365841E+03  0.00000000000E+00 0. -1.
          2    1    6    6  502    0 -0.46527103883E+02  0.14766644400E+02  0.16496980661E+02  0.51526454890E+02  0.00000000000E+00 0. -1.
          3    1    5    5  503    0  0.86208573390E+02 -0.74182961327E+02  0.10252211123E+03  0.15312025721E+03  0.00000000000E+00 0. -1.
         -4    1    5    5    0  503  0.24292546208E+03 -0.15099336103E+03  0.11757723791E+03  0.30925100174E+03  0.00000000000E+00 0.  1.
         -1    1    6    6    0  502 -0.36747528555E+03  0.14546219573E+03 -0.98609483206E+02  0.40733421911E+03  0.00000000000E+00 0.  1.
<mgrwt>
<rscale>  0 0.14611282E+04</rscale>
<asrwt>0</asrwt>
<pdfrwt beam="1">  1        1 0.82756413E-01 0.14611282E+04</pdfrwt>
<pdfrwt beam="2">  1       -1 0.15264700E+00 0.14611282E+04</pdfrwt>
<totfact> 0.12924457E+01</totfact>
</mgrwt>
</event>
<event>
12    1  0.1397649E-007  0.1514549E+04  0.7818608E-02  0.8874835E-01
          1   -1    0    0  501    0  0.00000000000E+00  0.00000000000E+00  0.60318818180E+03  0.60318818180E+03  0.00000000000E+00 0. -1.
         -1   -1    0    0    0  501 -0.00000000000E+00 -0.00000000000E+00 -0.95072318926E+03  0.95072318926E+03  0.00000000000E+00 0.  1.
         23    2    1    2    0    0  0.28338734183E+03 -0.11478493747E+03 -0.51503037187E+03  0.60585669587E+03  0.91225460337E+02 0.  0.
        254    2    1    2    0    0 -0.28338734183E+03  0.11478493747E+03  0.16749536441E+03  0.94805467518E+03  0.88162860812E+03 0.  0.
        -24    2    4    4    0    0  0.21155344794E+03 -0.21090097444E+03 -0.47042903250E+02  0.31293528301E+03  0.80506982628E+02 0.  0.
         24    2    4    4    0    0 -0.49494078977E+03  0.32568591191E+03  0.21453826766E+03  0.63511939217E+03  0.79449829660E+02 0.  0.
         11    1    3    3    0    0  0.27860280597E+03 -0.93869131778E+02 -0.49864725492E+03  0.57886096969E+03  0.00000000000E+00 0.  1.
        -11    1    3    3    0    0  0.47845358556E+01 -0.20915805694E+02 -0.16383116947E+02  0.26995726182E+02  0.00000000000E+00 0. -1.
          2    1    6    6  502    0 -0.77015935509E+02  0.85220127010E+02  0.54037242898E+02  0.12694072629E+03  0.00000000000E+00 0. -1.
          3    1    5    5  503    0  0.58957850270E+02 -0.14805792493E+02 -0.58246012299E+01  0.61066894299E+02  0.00000000000E+00 0. -1.
         -2    1    5    5    0  503  0.15259559767E+03 -0.19609518194E+03 -0.41218302020E+02  0.25186838871E+03  0.00000000000E+00 0.  1.
         -1    1    6    6    0  502 -0.41792485426E+03  0.24046578490E+03  0.16050102476E+03  0.50817866589E+03  0.00000000000E+00 0.  1.
<mgrwt>
<rscale>  0 0.15145494E+04</rscale>
<asrwt>0</asrwt>
<pdfrwt beam="1">  1        1 0.92798182E-01 0.15145494E+04</pdfrwt>
<pdfrwt beam="2">  1       -1 0.14626511E+00 0.15145494E+04</pdfrwt>
<totfact> 0.12260991E+01</totfact>
</mgrwt>
</event>
<event>
12    1  0.1397649E-007  0.2588040E+04  0.7818608E-02  0.8372275E-01
          1   -1    0    0  501    0  0.00000000000E+00  0.00000000000E+00  0.20999675545E+04  0.20999675545E+04  0.00000000000E+00 0. -1.
         -1   -1    0    0    0  501 -0.00000000000E+00 -0.00000000000E+00 -0.79738748812E+03  0.79738748812E+03  0.00000000000E+00 0.  1.
         23    2    1    2    0    0  0.89275318242E+03 -0.99237775210E+02 -0.20062137889E+03  0.92493194706E+03  0.91617619826E+02 0.  0.
        254    2    1    2    0    0 -0.89275318242E+03  0.99237775210E+02  0.15032014453E+04  0.19724230956E+04  0.90773448878E+03 0.  0.
        -24    2    4    4    0    0  0.40507429326E+02  0.12685498616E+03 -0.43343545199E+02  0.16412193177E+03  0.85582160718E+02 0.  0.
         24    2    4    4    0    0 -0.93326061175E+03 -0.27617210945E+02  0.15465449905E+04  0.18083011638E+04  0.80085027729E+02 0.  0.
         11    1    3    3    0    0  0.71350393676E+03 -0.11399305488E+03 -0.17291557448E+03  0.74295496514E+03  0.00000000000E+00 0.  1.
        -11    1    3    3    0    0  0.17924924566E+03  0.14755279665E+02 -0.27705804416E+02  0.18197698191E+03  0.00000000000E+00 0. -1.
          2    1    6    6  502    0 -0.66435526758E+03  0.42072085433E+00  0.10391434779E+04  0.12333642066E+04  0.00000000000E+00 0. -1.
          1    1    5    5  503    0  0.24068710219E+02  0.13126540250E+03 -0.54083807931E+02  0.14399641310E+03  0.00000000000E+00 0. -1.
         -2    1    5    5    0  503  0.16438719107E+02 -0.44104163412E+01  0.10740262732E+02  0.20125518670E+02  0.00000000000E+00 0.  1.
         -3    1    6    6    0  502 -0.26890534417E+03 -0.28037931800E+02  0.50740151264E+03  0.57493695722E+03  0.00000000000E+00 0.  1.
<mgrwt>
<rscale>  0 0.25880401E+04</rscale>
<asrwt>0</asrwt>
<pdfrwt beam="1">  1        1 0.32307193E+00 0.25880401E+04</pdfrwt>
<pdfrwt beam="2">  1       -1 0.12267500E+00 0.25880401E+04</pdfrwt>
<totfact> 0.13172080E+00</totfact>
</mgrwt>
</event>
<event>
12    1  0.1397649E-007  0.1249757E+04  0.7818608E-02  0.9070386E-01
         -2   -1    0    0    0  501 -0.00000000000E+00  0.00000000000E+00  0.21819441271E+03  0.21819441271E+03  0.00000000000E+00 0.  1.
          2   -1    0    0  501    0  0.00000000000E+00 -0.00000000000E+00 -0.17895643319E+04  0.17895643319E+04  0.00000000000E+00 0. -1.
         23    2    1    2    0    0 -0.16919408727E+03  0.24871708812E+03 -0.23721318246E+03  0.39375663474E+03  0.91034962396E+02 0.  0.
        254    2    1    2    0    0  0.16919408727E+03 -0.24871708812E+03 -0.13341567368E+04  0.16140021099E+04  0.85705413097E+03 0.  0.
        -24    2    4    4    0    0  0.49066166372E+03 -0.13120232272E+03 -0.10213243290E+04  0.11435107251E+04  0.80935008579E+02 0.  0.
         24    2    4    4    0    0 -0.32146757645E+03 -0.11751476540E+03 -0.31283240772E+03  0.47049138479E+03  0.79667465406E+02 0.  0.
         13    1    3    3    0    0 -0.12919009683E+02  0.75489133984E+02 -0.31851231539E+02  0.82945832393E+02  0.00000000000E+00 0. -1.
        -13    1    3    3    0    0 -0.15627507759E+03  0.17322795413E+03 -0.20536195092E+03  0.31081080235E+03  0.00000000000E+00 0.  1.
          2    1    6    6  502    0 -0.19621139131E+03 -0.10754083800E+03 -0.17563919650E+03  0.28445222668E+03  0.00000000000E+00 0. -1.
          1    1    5    5  503    0  0.19764115511E+03 -0.12458953334E+02 -0.38193126081E+03  0.43021940878E+03  0.00000000000E+00 0. -1.
         -2    1    5    5    0  503  0.29302050861E+03 -0.11874336939E+03 -0.63939306823E+03  0.71329131632E+03  0.00000000000E+00 0.  1.
         -1    1    6    6    0  502 -0.12525618514E+03 -0.99739273977E+01 -0.13719321122E+03  0.18603915810E+03  0.00000000000E+00 0.  1.
<mgrwt>
<rscale>  0 0.12497567E+04</rscale>
<asrwt>0</asrwt>
<pdfrwt beam="1">  1        2 0.27531759E+00 0.12497567E+04</pdfrwt>
<pdfrwt beam="2">  1       -2 0.33568371E-01 0.12497567E+04</pdfrwt>
<totfact> 0.71362643E+01</totfact>
</mgrwt>
</event>
<event>
12    1  0.1397649E-007  0.3849394E+04  0.7818608E-02  0.8035637E-01
         -1   -1    0    0    0  501 -0.00000000000E+00  0.00000000000E+00  0.18428896462E+04  0.18428896462E+04  0.00000000000E+00 0.  1.
          1   -1    0    0  501    0  0.00000000000E+00 -0.00000000000E+00 -0.20101356256E+04  0.20101356256E+04  0.00000000000E+00 0. -1.
         23    2    1    2    0    0 -0.10331691361E+03 -0.21943418139E+03  0.17247322570E+04  0.17439840794E+04  0.89181647404E+02 0.  0.
        254    2    1    2    0    0  0.10331691361E+03  0.21943418139E+03 -0.18919782364E+04  0.21090411923E+04  0.89980406717E+03 0.  0.
        -24    2    4    4    0    0  0.11986204474E+03  0.55333144347E+03 -0.13663411115E+04  0.14811353256E+04  0.79568986037E+02 0.  0.
         24    2    4    4    0    0 -0.16545131133E+02 -0.33389726208E+03 -0.52563712489E+03  0.62790586675E+03  0.78805250175E+02 0.  0.
         13    1    3    3    0    0  0.12583552593E+02 -0.38915802469E+02  0.19164297824E+03  0.19595871143E+03  0.00000000000E+00 0. -1.
        -13    1    3    3    0    0 -0.11590046620E+03 -0.18051837892E+03  0.15330892788E+04  0.15480253680E+04  0.00000000000E+00 0.  1.
          4    1    6    6  502    0 -0.33489445080E+02 -0.13075455700E+03 -0.26125091897E+03  0.29405839517E+03  0.00000000000E+00 0. -1.
          3    1    5    5  503    0  0.62046544743E+02  0.15109928644E+03 -0.33749953630E+03  0.37494893663E+03  0.00000000000E+00 0. -1.
         -4    1    5    5    0  503  0.57815499997E+02  0.40223215703E+03 -0.10288415752E+04  0.11061863889E+04  0.00000000000E+00 0.  1.
         -3    1    6    6    0  502  0.16944313947E+02 -0.20314270508E+03 -0.26438620592E+03  0.33384747158E+03  0.00000000000E+00 0.  1.
<mgrwt>
<rscale>  0 0.38493938E+04</rscale>
<asrwt>0</asrwt>
<pdfrwt beam="1">  1        1 0.30925163E+00 0.38493938E+04</pdfrwt>
<pdfrwt beam="2">  1       -1 0.28352149E+00 0.38493938E+04</pdfrwt>
<totfact> 0.98157900E-02</totfact>
</mgrwt>
</event>
<event>
12    1  0.1397649E-007  0.1666531E+04  0.7818608E-02  0.8780686E-01
          4   -1    0    0  501    0  0.00000000000E+00  0.00000000000E+00  0.66224385483E+03  0.66224385483E+03  0.00000000000E+00 0. -1.
         -4   -1    0    0    0  501 -0.00000000000E+00 -0.00000000000E+00 -0.10484532619E+04  0.10484532619E+04  0.00000000000E+00 0.  1.
         23    2    1    2    0    0 -0.12350265675E+03 -0.10677824067E+03 -0.71343113612E+03  0.73755367245E+03  0.91361561103E+02 0.  0.
        254    2    1    2    0    0  0.12350265675E+03  0.10677824067E+03  0.32722172902E+03  0.97314344431E+03  0.90182016187E+03 0.  0.
        -24    2    4    4    0    0  0.12779695961E+03 -0.38747675350E+03  0.13659176075E+03  0.43756904161E+03  0.79618212032E+02 0.  0.
         24    2    4    4    0    0 -0.42943028572E+01  0.49425499416E+03  0.19062996827E+03  0.53557440270E+03  0.78700163473E+02 0.  0.
         13    1    3    3    0    0 -0.71582578636E+02 -0.14388860408E+02 -0.19096600409E+03  0.20444832986E+03  0.00000000000E+00 0. -1.
        -13    1    3    3    0    0 -0.51920078117E+02 -0.92389380260E+02 -0.52246513204E+03  0.53310534258E+03  0.00000000000E+00 0.  1.
          4    1    6    6  502    0  0.46710156966E+01  0.48892020425E+03  0.19149777671E+03  0.52510587789E+03  0.00000000000E+00 0. -1.
          3    1    5    5  503    0  0.10933270295E+03 -0.37349420249E+03  0.11474836633E+03  0.40573235858E+03  0.00000000000E+00 0. -1.
         -4    1    5    5    0  503  0.18464256657E+02 -0.13982551010E+02  0.21843394415E+02  0.31836683028E+02  0.00000000000E+00 0.  1.
         -3    1    6    6    0  502 -0.89653185538E+01  0.53347899194E+01 -0.86780844031E+00  0.10468524812E+02  0.00000000000E+00 0.  1.
<mgrwt>
<rscale>  0 0.16665314E+04</rscale>
<asrwt>0</asrwt>
<pdfrwt beam="1">  1        4 0.10188367E+00 0.16665314E+04</pdfrwt>
<pdfrwt beam="2">  1       -4 0.16130050E+00 0.16665314E+04</pdfrwt>
<totfact> 0.36872812E-01</totfact>
</mgrwt>
</event>
<event>
12    1  0.1397649E-007  0.2128063E+04  0.7818608E-02  0.8548981E-01
         -1   -1    0    0    0  501 -0.00000000000E+00  0.00000000000E+00  0.59677115799E+03  0.59677115799E+03  0.00000000000E+00 0.  1.
          1   -1    0    0  501    0  0.00000000000E+00 -0.00000000000E+00 -0.18971485421E+04  0.18971485421E+04  0.00000000000E+00 0. -1.
         23    2    1    2    0    0  0.78563195734E+03 -0.46191930717E+02 -0.10394594268E+03  0.79904707740E+03  0.91215163456E+02 0.  0.
        254    2    1    2    0    0 -0.78563195734E+03  0.46191930717E+02 -0.11964314415E+04  0.16948726227E+04  0.90652840344E+03 0.  0.
        -24    2    4    4    0    0 -0.65844573948E+03  0.37603853614E+03 -0.50651002206E+03  0.91528164553E+03  0.78945016992E+02 0.  0.
         24    2    4    4    0    0 -0.12718621787E+03 -0.32984660542E+03 -0.68992141941E+03  0.77959097719E+03  0.82434274593E+02 0.  0.
         13    1    3    3    0    0  0.42310854967E+03  0.93932959434E+00 -0.17927839735E+02  0.42348923786E+03  0.00000000000E+00 0. -1.
        -13    1    3    3    0    0  0.36252340767E+03 -0.47131260312E+02 -0.86018102945E+02  0.37555783955E+03  0.00000000000E+00 0.  1.
          4    1    6    6  502    0  0.92961835862E+01 -0.50998946528E+01 -0.24035122869E+02  0.26270041607E+02  0.00000000000E+00 0. -1.
          3    1    5    5  503    0 -0.52627282612E+02  0.40822303182E+02 -0.21722196602E+02  0.70056727996E+02  0.00000000000E+00 0. -1.
         -4    1    5    5    0  503 -0.60581845686E+03  0.33521623296E+03 -0.48478782546E+03  0.84522491754E+03  0.00000000000E+00 0.  1.
         -3    1    6    6    0  502 -0.13648240145E+03 -0.32474671077E+03 -0.66588629655E+03  0.75332093558E+03  0.00000000000E+00 0.  1.
<mgrwt>
<rscale>  0 0.21280635E+04</rscale>
<asrwt>0</asrwt>
<pdfrwt beam="1">  1        1 0.29186901E+00 0.21280635E+04</pdfrwt>
<pdfrwt beam="2">  1       -1 0.91810946E-01 0.21280635E+04</pdfrwt>
<totfact> 0.37102706E+00</totfact>
</mgrwt>
</event>
<event>
12    1  0.1397649E-007  0.2151651E+04  0.7818608E-02  0.8538826E-01
         -1   -1    0    0    0  501 -0.00000000000E+00  0.00000000000E+00  0.24278294920E+04  0.24278294920E+04  0.00000000000E+00 0.  1.
          1   -1    0    0  501    0  0.00000000000E+00 -0.00000000000E+00 -0.47672244625E+03  0.47672244625E+03  0.00000000000E+00 0. -1.
         23    2    1    2    0    0 -0.79509076910E+03  0.36929358705E+03  0.80651356119E+03  0.11945886077E+04  0.89614355611E+02 0.  0.
        254    2    1    2    0    0  0.79509076910E+03 -0.36929358705E+03  0.11445934846E+04  0.17099633305E+04  0.91942006850E+03 0.  0.
        -24    2    4    4    0    0  0.33395349153E+03  0.22473550341E+03  0.75506869489E+03  0.85935051761E+03  0.79521048206E+02 0.  0.
         24    2    4    4    0    0  0.46113727757E+03 -0.59402909047E+03  0.38952478967E+03  0.85061281293E+03  0.79337548968E+02 0.  0.
         11    1    3    3    0    0 -0.70788674171E+03  0.32168629347E+03  0.67430440220E+03  0.10292094720E+04  0.00000000000E+00 0.  1.
        -11    1    3    3    0    0 -0.87204027389E+02  0.47607293580E+02  0.13220915899E+03  0.16537913567E+03  0.00000000000E+00 0. -1.
          2    1    6    6  502    0  0.33410139586E+03 -0.37841067548E+03  0.28209768221E+03  0.57827111664E+03  0.00000000000E+00 0. -1.
          3    1    5    5  503    0  0.14196957723E+03  0.13752639476E+03  0.40549431235E+03  0.45110365490E+03  0.00000000000E+00 0. -1.
         -4    1    5    5    0  503  0.19198391431E+03  0.87209108651E+02  0.34957438255E+03  0.40824686272E+03  0.00000000000E+00 0.  1.
         -1    1    6    6    0  502  0.12703588171E+03 -0.21561841499E+03  0.10742710746E+03  0.27234169629E+03  0.00000000000E+00 0.  1.
<mgrwt>
<rscale>  0 0.21516513E+04</rscale>
<asrwt>0</asrwt>
<pdfrwt beam="1">  1        1 0.73341916E-01 0.21516513E+04</pdfrwt>
<pdfrwt beam="2">  1       -1 0.37351222E+00 0.21516513E+04</pdfrwt>
<totfact> 0.46949251E-01</totfact>
</mgrwt>
</event>
<event>
12    1  0.1397649E-007  0.1510617E+04  0.7818608E-02  0.8877424E-01
         -2   -1    0    0    0  501 -0.00000000000E+00  0.00000000000E+00  0.19645949140E+03  0.19645949140E+03  0.00000000000E+00 0.  1.
          2   -1    0    0  501    0  0.00000000000E+00 -0.00000000000E+00 -0.29038587800E+04  0.29038587800E+04  0.00000000000E+00 0. -1.
         23    2    1    2    0    0  0.15085837824E+03  0.27001544535E+03 -0.11899382436E+03  0.34397640259E+03  0.92160969431E+02 0.  0.
        254    2    1    2    0    0 -0.15085837824E+03 -0.27001544535E+03 -0.25884054643E+04  0.27563418688E+04  0.89549486850E+03 0.  0.
        -24    2    4    4    0    0  0.13769093568E+03  0.17483852663E+03 -0.17142973005E+04  0.17305123194E+04  0.79563491936E+02 0.  0.
         24    2    4    4    0    0 -0.28854931392E+03 -0.44485397198E+03 -0.87410816380E+03  0.10258295494E+04  0.84293649980E+02 0.  0.
         11    1    3    3    0    0  0.12890304936E+03  0.27105879034E+03 -0.11604179837E+03  0.32179894798E+03  0.00000000000E+00 0.  1.
        -11    1    3    3    0    0  0.21955328887E+02 -0.10433449890E+01 -0.29520259944E+01  0.22177454605E+02  0.00000000000E+00 0. -1.
          2    1    6    6  502    0 -0.16656743091E+03 -0.20405308460E+03 -0.49073602159E+03  0.55695979502E+03  0.00000000000E+00 0. -1.
          3    1    5    5  503    0  0.50142538688E+02  0.21560493091E+02 -0.26948138297E+03  0.27495335025E+03  0.00000000000E+00 0. -1.
         -4    1    5    5    0  503  0.87548396994E+02  0.15327803354E+03 -0.14448159175E+04  0.14555589692E+04  0.00000000000E+00 0.  1.
         -1    1    6    6    0  502 -0.12198188301E+03 -0.24080088738E+03 -0.38337214221E+03  0.46886975437E+03  0.00000000000E+00 0.  1.
<mgrwt>
<rscale>  0 0.15106166E+04</rscale>
<asrwt>0</asrwt>
<pdfrwt beam="1">  1        2 0.44674750E+00 0.15106166E+04</pdfrwt>
<pdfrwt beam="2">  1       -2 0.30224537E-01 0.15106166E+04</pdfrwt>
<totfact> 0.19627420E+01</totfact>
</mgrwt>
</event>
<event>
12    1  0.1397649E-007  0.1572976E+04  0.7818608E-02  0.8837324E-01
         -1   -1    0    0    0  501 -0.00000000000E+00  0.00000000000E+00  0.33651026889E+03  0.33651026889E+03  0.00000000000E+00 0.  1.
          1   -1    0    0  501    0  0.00000000000E+00 -0.00000000000E+00 -0.18381700702E+04  0.18381700702E+04  0.00000000000E+00 0. -1.
         23    2    1    2    0    0  0.85615851278E+01 -0.48266132979E+03 -0.24961800888E+03  0.55009464676E+03  0.85203931992E+02 0.  0.
        254    2    1    2    0    0 -0.85615851278E+01  0.48266132979E+03 -0.12520417924E+04  0.16245856923E+04  0.91577003755E+03 0.  0.
        -24    2    4    4    0    0  0.28060179978E+03 -0.14305741920E+03 -0.54049965752E+03  0.63077243003E+03  0.80815737794E+02 0.  0.
         24    2    4    4    0    0 -0.28916338491E+03  0.62571874899E+03 -0.71154213487E+03  0.99381326226E+03  0.78950456190E+02 0.  0.
         11    1    3    3    0    0 -0.11168803828E+02 -0.56206590864E+02 -0.37118344709E+01  0.57425610582E+02  0.00000000000E+00 0. -1.
        -11    1    3    3    0    0  0.19730388955E+02 -0.42645473892E+03 -0.24590617441E+03  0.49266903618E+03  0.00000000000E+00 0.  1.
          2    1    6    6  502    0 -0.18682323867E+02  0.24376465060E+02 -0.56893366575E+02  0.64653665280E+02  0.00000000000E+00 0. -1.
          1    1    5    5  503    0  0.10961607423E+03 -0.87531801450E+02 -0.18262732696E+03  0.23028295757E+03  0.00000000000E+00 0. -1.
         -2    1    5    5    0  503  0.17098572555E+03 -0.55525617752E+02 -0.35787233056E+03  0.40048947246E+03  0.00000000000E+00 0.  1.
         -1    1    6    6    0  502 -0.27048106104E+03  0.60134228393E+03 -0.65464876830E+03  0.92915959698E+03  0.00000000000E+00 0.  1.
<mgrwt>
<rscale>  0 0.15729757E+04</rscale>
<asrwt>0</asrwt>
<pdfrwt beam="1">  1        1 0.28279540E+00 0.15729757E+04</pdfrwt>
<pdfrwt beam="2">  1       -1 0.51770810E-01 0.15729757E+04</pdfrwt>
<totfact> 0.13861840E+01</totfact>
</mgrwt>
</event>
<event>
12    1  0.1397649E-007  0.2445698E+04  0.7818608E-02  0.8422590E-01
         -1   -1    0    0    0  501 -0.00000000000E+00  0.00000000000E+00  0.11331697974E+04  0.11331697974E+04  0.00000000000E+00 0.  1.
          1   -1    0    0  501    0  0.00000000000E+00 -0.00000000000E+00 -0.13196254633E+04  0.13196254633E+04  0.00000000000E+00 0. -1.
         23    2    1    2    0    0 -0.39478431506E+03  0.55554872944E+03 -0.88394179765E+03  0.11201656105E+04  0.94492577067E+02 0.  0.
        254    2    1    2    0    0  0.39478431506E+03 -0.55554872944E+03  0.69748613179E+03  0.13326296502E+04  0.90825427843E+03 0.  0.
        -24    2    4    4    0    0 -0.22835746523E+03 -0.17026627880E+03  0.48206159259E+03  0.56548742242E+03  0.79087977841E+02 0.  0.
         24    2    4    4    0    0  0.62314178029E+03 -0.38528245063E+03  0.21542453921E+03  0.76714222776E+03  0.73152036250E+02 0.  0.
         13    1    3    3    0    0 -0.18300904583E+03  0.33230827850E+03 -0.51757989975E+03  0.64172428304E+03  0.00000000000E+00 0.  1.
        -13    1    3    3    0    0 -0.21177526923E+03  0.22324045094E+03 -0.36636189790E+03  0.47844132746E+03  0.00000000000E+00 0. -1.
          2    1    6    6  502    0  0.18981363182E+03 -0.15761262199E+03  0.76709588241E+02  0.25837049825E+03  0.00000000000E+00 0. -1.
          3    1    5    5  503    0 -0.19841974539E+03 -0.11316132958E+03  0.40534180971E+03  0.46527181794E+03  0.00000000000E+00 0. -1.
         -4    1    5    5    0  503 -0.29937719845E+02 -0.57104949225E+02  0.76719782872E+02  0.10021560447E+03  0.00000000000E+00 0.  1.
         -1    1    6    6    0  502  0.43332814846E+03 -0.22766982865E+03  0.13871495097E+03  0.50877172951E+03  0.00000000000E+00 0.  1.
<mgrwt>
<rscale>  0 0.24456980E+04</rscale>
<asrwt>0</asrwt>
<pdfrwt beam="1">  1        1 0.20301930E+00 0.24456980E+04</pdfrwt>
<pdfrwt beam="2">  1       -1 0.17433382E+00 0.24456980E+04</pdfrwt>
<totfact> 0.17882251E+00</totfact>
</mgrwt>
</event>
<event>
12    1  0.1397649E-007  0.1179197E+04  0.7818608E-02  0.9131262E-01
          3   -1    0    0  501    0  0.00000000000E+00  0.00000000000E+00  0.15116464683E+04  0.15116464683E+04  0.00000000000E+00 0. -1.
         -3   -1    0    0    0  501 -0.00000000000E+00 -0.00000000000E+00 -0.22996557962E+03  0.22996557962E+03  0.00000000000E+00 0.  1.
         23    2    1    2    0    0  0.15841401851E+02 -0.52522080334E+02  0.63185787755E+03  0.64092157487E+03  0.92339421585E+02 0.  0.
        254    2    1    2    0    0 -0.15841401851E+02  0.52522080334E+02  0.64982301113E+03  0.11006904731E+04  0.88670178343E+03 0.  0.
        -24    2    4    4    0    0 -0.82442983847E+02 -0.19077938217E+03  0.77632096177E+03  0.80755832304E+03  0.79262798240E+02 0.  0.
         24    2    4    4    0    0  0.66601581997E+02  0.24330146250E+03 -0.12649795063E+03  0.29313215002E+03  0.79330659147E+02 0.  0.
         11    1    3    3    0    0  0.75461737851E+01 -0.78881001437E+02  0.43904950901E+03  0.44614305832E+03  0.00000000000E+00 0. -1.
        -11    1    3    3    0    0  0.82952280655E+01  0.26358921103E+02  0.19280836854E+03  0.19477851655E+03  0.00000000000E+00 0.  1.
          4    1    6    6  502    0  0.65392031279E+02  0.24959720835E+03 -0.12331562325E+03  0.28597487146E+03  0.00000000000E+00 0. -1.
          3    1    5    5  503    0 -0.67291518606E+02 -0.12973986208E+03  0.65264999968E+03  0.66881432579E+03  0.00000000000E+00 0. -1.
         -4    1    5    5    0  503 -0.15151465242E+02 -0.61039520084E+02  0.12367096208E+03  0.13874399725E+03  0.00000000000E+00 0.  1.
         -3    1    6    6    0  502  0.12095507179E+01 -0.62957458495E+01 -0.31823273874E+01  0.71572785569E+01  0.00000000000E+00 0.  1.
<mgrwt>
<rscale>  0 0.11791974E+04</rscale>
<asrwt>0</asrwt>
<pdfrwt beam="1">  1        3 0.23256099E+00 0.11791974E+04</pdfrwt>
<pdfrwt beam="2">  1       -3 0.35379321E-01 0.11791974E+04</pdfrwt>
<totfact> 0.19184758E+00</totfact>
</mgrwt>
</event>
<event>
12    1  0.1397649E-007  0.2380739E+04  0.7818608E-02  0.8446750E-01
         -1   -1    0    0    0  501 -0.00000000000E+00  0.00000000000E+00  0.17949528994E+04  0.17949528994E+04  0.00000000000E+00 0.  1.
          1   -1    0    0  501    0  0.00000000000E+00 -0.00000000000E+00 -0.78942448974E+03  0.78942448974E+03  0.00000000000E+00 0. -1.
         23    2    1    2    0    0  0.31021326695E+03 -0.44390212050E+03 -0.49494218410E+03  0.73940849122E+03  0.92064041301E+02 0.  0.
        254    2    1    2    0    0 -0.31021326695E+03  0.44390212050E+03  0.15004705938E+04  0.18449688979E+04  0.92693951690E+03 0.  0.
        -24    2    4    4    0    0  0.18582973361E+03  0.50821467505E+03  0.60100811725E+03  0.81266856418E+03  0.80028697190E+02 0.  0.
         24    2    4    4    0    0 -0.49604300056E+03 -0.64312554549E+02  0.89946247654E+03  0.10323003338E+04  0.80102867120E+02 0.  0.
         11    1    3    3    0    0  0.98477551996E+02 -0.86938614821E+02 -0.87725926304E+02  0.15796198638E+03  0.00000000000E+00 0.  1.
        -11    1    3    3    0    0  0.21173571495E+03 -0.35696350568E+03 -0.40721625780E+03  0.58144650484E+03  0.00000000000E+00 0. -1.
          2    1    6    6  502    0 -0.13461847719E+03  0.20173376913E+01  0.18406434364E+03  0.22804799199E+03  0.00000000000E+00 0. -1.
          3    1    5    5  503    0  0.12419225543E+03  0.28360326916E+03  0.39373334436E+03  0.50087970317E+03  0.00000000000E+00 0. -1.
         -4    1    5    5    0  503  0.61637478175E+02  0.22461140589E+03  0.20727477290E+03  0.31178886101E+03  0.00000000000E+00 0.  1.
         -1    1    6    6    0  502 -0.36142452337E+03 -0.66329892240E+02  0.71539813289E+03  0.80425234177E+03  0.00000000000E+00 0.  1.
<mgrwt>
<rscale>  0 0.23807392E+04</rscale>
<asrwt>0</asrwt>
<pdfrwt beam="1">  1        1 0.12144992E+00 0.23807392E+04</pdfrwt>
<pdfrwt beam="2">  1       -1 0.27614660E+00 0.23807392E+04</pdfrwt>
<totfact> 0.95574069E-01</totfact>
</mgrwt>
</event>
<event>
12    1  0.1397649E-007  0.1577528E+04  0.7818608E-02  0.8834474E-01
          2   -1    0    0  501    0  0.00000000000E+00  0.00000000000E+00  0.94728717845E+03  0.94728717845E+03  0.00000000000E+00 0.  1.
         -2   -1    0    0    0  501 -0.00000000000E+00 -0.00000000000E+00 -0.65676863350E+03  0.65676863350E+03  0.00000000000E+00 0. -1.
         23    2    1    2    0    0 -0.47754175563E+03  0.15662295069E+03  0.22648077778E+03  0.56044996327E+03  0.10116195712E+03 0.  0.
        254    2    1    2    0    0  0.47754175563E+03 -0.15662295069E+03  0.64037767166E+02  0.10436058487E+04  0.91237900827E+03 0.  0.
        -24    2    4    4    0    0  0.25118247338E+03  0.28175821532E+03  0.30267073266E+03  0.48983644546E+03  0.76484273315E+02 0.  0.
         24    2    4    4    0    0  0.22635928225E+03 -0.43838116601E+03 -0.23863296549E+03  0.55376940322E+03  0.79361756234E+02 0.  0.
         11    1    3    3    0    0 -0.25526566013E+03  0.66641329961E+02  0.66144353830E+02  0.27198657989E+03  0.00000000000E+00 0. -1.
        -11    1    3    3    0    0 -0.22227609551E+03  0.89981620729E+02  0.16033642395E+03  0.28846338338E+03  0.00000000000E+00 0.  1.
          4    1    6    6  502    0  0.32411778544E+02 -0.82088691154E+02 -0.76895688228E+02  0.11705564263E+03  0.00000000000E+00 0. -1.
          3    1    5    5  503    0  0.10526232132E+02  0.17800398579E+02 -0.14228292776E+01  0.20728728750E+02  0.00000000000E+00 0. -1.
         -4    1    5    5    0  503  0.24065624125E+03  0.26395781674E+03  0.30409356193E+03  0.46910771671E+03  0.00000000000E+00 0.  1.
         -3    1    6    6    0  502  0.19394750371E+03 -0.35629247485E+03 -0.16173727726E+03  0.43671376059E+03  0.00000000000E+00 0.  1.
<mgrwt>
<rscale>  0 0.15775278E+04</rscale>
<asrwt>0</asrwt>
<pdfrwt beam="1">  1        2 0.14573649E+00 0.15775278E+04</pdfrwt>
<pdfrwt beam="2">  1       -2 0.10104133E+00 0.15775278E+04</pdfrwt>
<totfact> 0.21108238E+01</totfact>
</mgrwt>
</event>
<event>
12    1  0.1397649E-007  0.1440584E+04  0.7818608E-02  0.8924954E-01
         -2   -1    0    0    0  501 -0.00000000000E+00  0.00000000000E+00  0.24107225125E+03  0.24107225125E+03  0.00000000000E+00 0.  1.
          2   -1    0    0  501    0  0.00000000000E+00 -0.00000000000E+00 -0.21521386633E+04  0.21521386633E+04  0.00000000000E+00 0. -1.
         23    2    1    2    0    0 -0.27517658747E+03 -0.24498560542E+03 -0.98364360845E+03  0.10543107884E+04  0.90974660889E+02 0.  0.
        254    2    1    2    0    0  0.27517658747E+03  0.24498560542E+03 -0.92742280360E+03  0.13389001261E+04  0.89263676264E+03 0.  0.
        -24    2    4    4    0    0 -0.10823966457E+03 -0.28029864505E+03 -0.30546579710E+03  0.43582796712E+03  0.79708897342E+02 0.  0.
         24    2    4    4    0    0  0.38341625204E+03  0.52528425047E+03 -0.62195700649E+03  0.90307215903E+03  0.76008159913E+02 0.  0.
         13    1    3    3    0    0 -0.12244499672E+03 -0.11881541373E+03 -0.58159442450E+03  0.60610391384E+03  0.00000000000E+00 0. -1.
        -13    1    3    3    0    0 -0.15273159074E+03 -0.12617019168E+03 -0.40204918395E+03  0.44820687455E+03  0.00000000000E+00 0.  1.
          4    1    6    6  502    0  0.74551272820E+02  0.72014433027E+02 -0.71005595443E+02  0.12564141605E+03  0.00000000000E+00 0. -1.
          3    1    5    5  503    0  0.76922838036E+01 -0.35579036596E+02 -0.60869922895E+02  0.70923808333E+02  0.00000000000E+00 0. -1.
         -4    1    5    5    0  503 -0.11593194838E+03 -0.24471960846E+03 -0.24459587421E+03  0.36490415878E+03  0.00000000000E+00 0.  1.
         -3    1    6    6    0  502  0.30886497922E+03  0.45326981744E+03 -0.55095141105E+03  0.77743074298E+03  0.00000000000E+00 0.  1.
<mgrwt>
<rscale>  0 0.14405845E+04</rscale>
<asrwt>0</asrwt>
<pdfrwt beam="1">  1        2 0.33109824E+00 0.14405845E+04</pdfrwt>
<pdfrwt beam="2">  1       -2 0.37088040E-01 0.14405845E+04</pdfrwt>
<totfact> 0.36572275E+01</totfact>
</mgrwt>
</event>
<event>
12    1  0.1397649E-007  0.1204043E+04  0.7818608E-02  0.9109325E-01
          1   -1    0    0  501    0  0.00000000000E+00  0.00000000000E+00  0.64293020853E+03  0.64293020853E+03  0.00000000000E+00 0. -1.
         -1   -1    0    0    0  501 -0.00000000000E+00 -0.00000000000E+00 -0.56371583323E+03  0.56371583323E+03  0.00000000000E+00 0.  1.
         23    2    1    2    0    0 -0.15895902824E+03  0.16781529026E+03 -0.80185914553E+02  0.26183234968E+03  0.93254780776E+02 0.  0.
        254    2    1    2    0    0  0.15895902824E+03 -0.16781529026E+03  0.15940028985E+03  0.94481369208E+03  0.90212777146E+03 0.  0.
        -24    2    4    4    0    0  0.14475461991E+03 -0.51565387914E+03 -0.26715235884E+02  0.54217033266E+03  0.79888314088E+02 0.  0.
         24    2    4    4    0    0  0.14204408337E+02  0.34783858888E+03  0.18611552574E+03  0.40264335942E+03  0.79304708783E+02 0.  0.
         13    1    3    3    0    0 -0.10677501472E+01  0.44344572003E+02 -0.34654815993E+02  0.56289763084E+02  0.00000000000E+00 0.  1.
        -13    1    3    3    0    0 -0.15789127810E+03  0.12347071826E+03 -0.45531098559E+02  0.20554258659E+03  0.00000000000E+00 0. -1.
          2    1    6    6  502    0 -0.27321693539E+02  0.16717503919E+03  0.11160970849E+03  0.20285634251E+03  0.00000000000E+00 0. -1.
          3    1    5    5  503    0  0.31483470684E+02 -0.10544706912E+03 -0.38111458062E+02  0.11645933431E+03  0.00000000000E+00 0. -1.
         -4    1    5    5    0  503  0.11327114922E+03 -0.41020681002E+03  0.11396222178E+02  0.42571099835E+03  0.00000000000E+00 0.  1.
         -1    1    6    6    0  502  0.41526101876E+02  0.18066354969E+03  0.74505817245E+02  0.19978701691E+03  0.00000000000E+00 0.  1.
<mgrwt>
<rscale>  0 0.12040431E+04</rscale>
<asrwt>0</asrwt>
<pdfrwt beam="1">  1        1 0.98912339E-01 0.12040431E+04</pdfrwt>
<pdfrwt beam="2">  1       -1 0.86725513E-01 0.12040431E+04</pdfrwt>
<totfact> 0.40157162E+01</totfact>
</mgrwt>
</event>
<event>
12    1  0.1397649E-007  0.1880942E+04  0.7818608E-02  0.8664402E-01
          2   -1    0    0  501    0  0.00000000000E+00  0.00000000000E+00  0.12561902805E+04  0.12561902805E+04  0.00000000000E+00 0. -1.
         -2   -1    0    0    0  501 -0.00000000000E+00 -0.00000000000E+00 -0.70410134014E+03  0.70410134014E+03  0.00000000000E+00 0.  1.
         23    2    1    2    0    0  0.27331107480E+03 -0.63171156589E+03  0.47044424593E+03  0.83882088258E+03  0.92435049790E+02 0.  0.
        254    2    1    2    0    0 -0.27331107480E+03  0.63171156589E+03  0.81644694425E+02  0.11214707381E+04  0.88163048615E+03 0.  0.
        -24    2    4    4    0    0  0.28693313048E+03  0.70043909254E+02 -0.58698435303E+02  0.31178428999E+03  0.80790881832E+02 0.  0.
         24    2    4    4    0    0 -0.56024420528E+03  0.56166765664E+03  0.14034312973E+03  0.80968644807E+03  0.80943338631E+02 0.  0.
         13    1    3    3    0    0  0.15828096493E+03 -0.44807104866E+03  0.35598887710E+03  0.59375803921E+03  0.00000000000E+00 0. -1.
        -13    1    3    3    0    0  0.11503010987E+03 -0.18364051723E+03  0.11445536883E+03  0.24506284336E+03  0.00000000000E+00 0.  1.
          2    1    6    6  502    0 -0.13308783908E+03  0.16265216414E+03  0.77439082437E+01  0.21030470163E+03  0.00000000000E+00 0. -1.
          1    1    5    5  503    0  0.41795516284E+02  0.18150353300E+02 -0.39802993572E+02  0.60502717324E+02  0.00000000000E+00 0. -1.
         -2    1    5    5    0  503  0.24513761419E+03  0.51893555954E+02 -0.18895441731E+02  0.25128157266E+03  0.00000000000E+00 0.  1.
         -1    1    6    6    0  502 -0.42715636619E+03  0.39901549250E+03  0.13259922148E+03  0.59938174644E+03  0.00000000000E+00 0.  1.
<mgrwt>
<rscale>  0 0.18809415E+04</rscale>
<asrwt>0</asrwt>
<pdfrwt beam="1">  1        2 0.19326004E+00 0.18809415E+04</pdfrwt>
<pdfrwt beam="2">  1       -2 0.10832328E+00 0.18809415E+04</pdfrwt>
<totfact> 0.11220642E+01</totfact>
</mgrwt>
</event>
<event>
12    1  0.1397649E-007  0.1366719E+04  0.7818608E-02  0.8978267E-01
          1   -1    0    0  501    0  0.00000000000E+00  0.00000000000E+00  0.16773308677E+04  0.16773308677E+04  0.00000000000E+00 0. -1.
         -1   -1    0    0    0  501 -0.00000000000E+00 -0.00000000000E+00 -0.27840692270E+03  0.27840692270E+03  0.00000000000E+00 0.  1.
         23    2    1    2    0    0 -0.11888409806E+03  0.18665988017E+03  0.78699802272E+03  0.82275626820E+03  0.92664175721E+02 0.  0.
        254    2    1    2    0    0  0.11888409806E+03 -0.18665988017E+03  0.61192592232E+03  0.11329815222E+04  0.92747962549E+03 0.  0.
        -24    2    4    4    0    0 -0.11426919540E+03 -0.50087178101E+03  0.19386555483E+03  0.55474685913E+03  0.78931833445E+02 0.  0.
         24    2    4    4    0    0  0.23315329347E+03  0.31421190085E+03  0.41806036749E+03  0.57823466311E+03  0.80568467008E+02 0.  0.
         13    1    3    3    0    0 -0.57373529517E+02  0.14434293597E+03  0.41000381253E+03  0.43844011147E+03  0.00000000000E+00 0.  1.
        -13    1    3    3    0    0 -0.61510568547E+02  0.42316944190E+02  0.37699421019E+03  0.38431615674E+03  0.00000000000E+00 0. -1.
          2    1    6    6  502    0  0.86272345197E+02  0.88212246177E+02  0.18234526401E+03  0.22016837472E+03  0.00000000000E+00 0. -1.
          3    1    5    5  503    0 -0.25545765004E+02 -0.44567761883E+02  0.73928831464E+00  0.51375266969E+02  0.00000000000E+00 0. -1.
         -4    1    5    5    0  503 -0.88723430398E+02 -0.45630401913E+03  0.19312626652E+03  0.50337159216E+03  0.00000000000E+00 0.  1.
         -1    1    6    6    0  502  0.14688094827E+03  0.22599965467E+03  0.23571510348E+03  0.35806628839E+03  0.00000000000E+00 0.  1.
<mgrwt>
<rscale>  0 0.13667195E+04</rscale>
<asrwt>0</asrwt>
<pdfrwt beam="1">  1        1 0.25805090E+00 0.13667195E+04</pdfrwt>
<pdfrwt beam="2">  1       -1 0.42831835E-01 0.13667195E+04</pdfrwt>
<totfact> 0.25926813E+01</totfact>
</mgrwt>
</event>
<event>
12    1  0.1397649E-007  0.1696172E+04  0.7818608E-02  0.8763550E-01
          1   -1    0    0  501    0  0.00000000000E+00  0.00000000000E+00  0.57756318741E+03  0.57756318741E+03  0.00000000000E+00 0. -1.
         -1   -1    0    0    0  501 -0.00000000000E+00 -0.00000000000E+00 -0.12453187594E+04  0.12453187594E+04  0.00000000000E+00 0.  1.
         23    2    1    2    0    0 -0.56667373833E+03  0.26744950719E+03 -0.17008140529E+03  0.65598481190E+03  0.93488097673E+02 0.  0.
        254    2    1    2    0    0  0.56667373833E+03 -0.26744950719E+03 -0.49767416671E+03  0.11668971349E+04  0.84930617722E+03 0.  0.
        -24    2    4    4    0    0  0.57724245637E+03 -0.27271082613E+03  0.19006816563E+02  0.64386329475E+03  0.81354994508E+02 0.  0.
         24    2    4    4    0    0 -0.10568718037E+02  0.52613189362E+01 -0.51668098327E+03  0.52303384017E+03  0.80410075285E+02 0.  0.
         13    1    3    3    0    0 -0.21978219844E+03  0.12730331711E+03 -0.11113062786E+03  0.27723702088E+03  0.00000000000E+00 0. -1.
        -13    1    3    3    0    0 -0.34689153989E+03  0.14014619009E+03 -0.58950777431E+02  0.37874779102E+03  0.00000000000E+00 0.  1.
          4    1    6    6  502    0  0.24284018911E+02  0.15087171762E+02 -0.39616452006E+03  0.39719474226E+03  0.00000000000E+00 0. -1.
          3    1    5    5  503    0  0.55654263888E+03 -0.24543643071E+03  0.95196026898E+01  0.60833327481E+03  0.00000000000E+00 0. -1.
         -4    1    5    5    0  503  0.20699817486E+02 -0.27274395424E+02  0.94872138733E+01  0.35530019937E+02  0.00000000000E+00 0.  1.
         -3    1    6    6    0  502 -0.34852736948E+02 -0.98258528255E+01 -0.12051646322E+03  0.12583909791E+03  0.00000000000E+00 0.  1.
<mgrwt>
<rscale>  0 0.16961725E+04</rscale>
<asrwt>0</asrwt>
<pdfrwt beam="1">  1        1 0.88855876E-01 0.16961725E+04</pdfrwt>
<pdfrwt beam="2">  1       -1 0.19158750E+00 0.16961725E+04</pdfrwt>
<totfact> 0.59307525E+00</totfact>
</mgrwt>
</event>
<event>
12    1  0.1397649E-007  0.3715080E+04  0.7818608E-02  0.8064628E-01
          1   -1    0    0  501    0  0.00000000000E+00  0.00000000000E+00  0.23803811419E+04  0.23803811419E+04  0.00000000000E+00 0. -1.
         -1   -1    0    0    0  501 -0.00000000000E+00 -0.00000000000E+00 -0.14495390387E+04  0.14495390387E+04  0.00000000000E+00 0.  1.
         23    2    1    2    0    0  0.44039833214E+03  0.13387944998E+04 -0.63440063681E+03  0.15482614988E+04  0.91258407279E+02 0.  0.
        254    2    1    2    0    0 -0.44039833214E+03 -0.13387944998E+04  0.15652427400E+04  0.22816586818E+04  0.87730274223E+03 0.  0.
        -24    2    4    4    0    0 -0.48868316114E+03 -0.56128685974E+03  0.12076857381E+04  0.14207347104E+04  0.78282209971E+02 0.  0.
         24    2    4    4    0    0  0.48284829003E+02 -0.77750764009E+03  0.35755700182E+03  0.86092397137E+03  0.80582379151E+02 0.  0.
         11    1    3    3    0    0  0.41135468147E+03  0.12591196183E+04 -0.57131052576E+03  0.14425638995E+04  0.00000000000E+00 0.  1.
        -11    1    3    3    0    0  0.29043650668E+02  0.79674881497E+02 -0.63090111054E+02  0.10569759930E+03  0.00000000000E+00 0. -1.
          2    1    6    6  502    0  0.65414217918E+02 -0.68059767333E+03  0.32678442530E+03  0.75781282219E+03  0.00000000000E+00 0. -1.
          1    1    5    5  503    0 -0.34182256689E+03 -0.36322676502E+03  0.74695263007E+03  0.89817291299E+03  0.00000000000E+00 0. -1.
         -2    1    5    5    0  503 -0.14686059425E+03 -0.19806009472E+03  0.46073310808E+03  0.52256179744E+03  0.00000000000E+00 0.  1.
         -1    1    6    6    0  502 -0.17129388914E+02 -0.96909966752E+02  0.30772576515E+02  0.10311114918E+03  0.00000000000E+00 0.  1.
<mgrwt>
<rscale>  0 0.37150803E+04</rscale>
<asrwt>0</asrwt>
<pdfrwt beam="1">  1        1 0.36621248E+00 0.37150803E+04</pdfrwt>
<pdfrwt beam="2">  1       -1 0.22300600E+00 0.37150803E+04</pdfrwt>
<totfact> 0.13798963E-01</totfact>
</mgrwt>
</event>
<event>
12    1  0.1397649E-007  0.2466262E+04  0.7818608E-02  0.8415104E-01
          2   -1    0    0  501    0  0.00000000000E+00  0.00000000000E+00  0.21948507388E+04  0.21948507388E+04  0.00000000000E+00 0. -1.
         -2   -1    0    0    0  501 -0.00000000000E+00 -0.00000000000E+00 -0.69280908246E+03  0.69280908246E+03  0.00000000000E+00 0.  1.
         23    2    1    2    0    0  0.35787488037E+03 -0.95252659027E+03  0.27861586063E+03  0.10588937801E+04  0.90817975143E+02 0.  0.
        254    2    1    2    0    0 -0.35787488037E+03  0.95252659027E+03  0.12234257957E+04  0.18287660412E+04  0.90123982405E+03 0.  0.
        -24    2    4    4    0    0 -0.23117202295E+03  0.43825378105E+03  0.95541873310E+01  0.50198020849E+03  0.79912241984E+02 0.  0.
         24    2    4    4    0    0 -0.12670285742E+03  0.51427280922E+03  0.12138716084E+04  0.13267858327E+04  0.79663214178E+02 0.  0.
         13    1    3    3    0    0  0.32797852807E+03 -0.91268931744E+03  0.27871660165E+03  0.10090860464E+04  0.00000000000E+00 0.  1.
        -13    1    3    3    0    0  0.29896352295E+02 -0.39837272826E+02 -0.10074102801E+00  0.49807733692E+02  0.00000000000E+00 0. -1.
          2    1    6    6  502    0 -0.29360165717E+02  0.35237141904E+02  0.84035934164E+02  0.95737734104E+02  0.00000000000E+00 0. -1.
          3    1    5    5  503    0 -0.78337526178E+02  0.13530220108E+03 -0.33639629803E+02  0.15992210078E+03  0.00000000000E+00 0. -1.
         -4    1    5    5    0  503 -0.15283449677E+03  0.30295157997E+03  0.43193817134E+02  0.34205810771E+03  0.00000000000E+00 0.  1.
         -1    1    6    6    0  502 -0.97342691700E+02  0.47903566731E+03  0.11298356742E+04  0.12310480986E+04  0.00000000000E+00 0.  1.
<mgrwt>
<rscale>  0 0.24662624E+04</rscale>
<asrwt>0</asrwt>
<pdfrwt beam="1">  1        2 0.33766934E+00 0.24662624E+04</pdfrwt>
<pdfrwt beam="2">  1       -2 0.10658601E+00 0.24662624E+04</pdfrwt>
<totfact> 0.32960703E+00</totfact>
</mgrwt>
</event>
<event>
12    1  0.1397649E-007  0.1270640E+04  0.7818608E-02  0.9053177E-01
          2   -1    0    0  501    0  0.00000000000E+00  0.00000000000E+00  0.65936903271E+03  0.65936903271E+03  0.00000000000E+00 0.  1.
         -2   -1    0    0    0  501 -0.00000000000E+00 -0.00000000000E+00 -0.61214842303E+03  0.61214842303E+03  0.00000000000E+00 0. -1.
         23    2    1    2    0    0 -0.18479085540E+03 -0.28130681535E+02  0.25351427913E+03  0.32765948165E+03  0.90289815073E+02 0.  0.
        254    2    1    2    0    0  0.18479085540E+03  0.28130681535E+02 -0.20629366945E+03  0.94385797409E+03  0.90187127780E+03 0.  0.
        -24    2    4    4    0    0 -0.29570995395E+03  0.17265907758E+03 -0.25381719157E+03  0.43360967723E+03  0.79615648686E+02 0.  0.
         24    2    4    4    0    0  0.48050080935E+03 -0.14452839604E+03  0.47523522115E+02  0.51024829687E+03  0.79532095723E+02 0.  0.
         13    1    3    3    0    0 -0.91642347483E+02 -0.29749559889E+02  0.61685398109E+02  0.11440473987E+03  0.00000000000E+00 0. -1.
        -13    1    3    3    0    0 -0.93148507922E+02  0.16188783540E+01  0.19182888102E+03  0.21325474177E+03  0.00000000000E+00 0.  1.
          4    1    6    6  502    0  0.30053455217E+03 -0.11302474422E+03 -0.14776365026E+01  0.32108845084E+03  0.00000000000E+00 0. -1.
          1    1    5    5  503    0 -0.27724636059E+03  0.13410303043E+03 -0.21262392120E+03  0.37424336881E+03  0.00000000000E+00 0. -1.
         -2    1    5    5    0  503 -0.18463593354E+02  0.38556047147E+02 -0.41193270372E+02  0.59366308417E+02  0.00000000000E+00 0.  1.
         -3    1    6    6    0  502  0.17996625718E+03 -0.31503651821E+02  0.49001158618E+02  0.18915984602E+03  0.00000000000E+00 0.  1.
<mgrwt>
<rscale>  0 0.12706403E+04</rscale>
<asrwt>0</asrwt>
<pdfrwt beam="1">  1        2 0.10144139E+00 0.12706403E+04</pdfrwt>
<pdfrwt beam="2">  1       -2 0.94176680E-01 0.12706403E+04</pdfrwt>
<totfact> 0.41276712E+01</totfact>
</mgrwt>
</event>
<event>
12    1  0.1397649E-007  0.2163630E+04  0.7818608E-02  0.8533720E-01
         -1   -1    0    0    0  501 -0.00000000000E+00  0.00000000000E+00  0.47744115676E+03  0.47744115676E+03  0.00000000000E+00 0.  1.
          1   -1    0    0  501    0  0.00000000000E+00 -0.00000000000E+00 -0.24512420259E+04  0.24512420259E+04  0.00000000000E+00 0. -1.
         23    2    1    2    0    0  0.36724446103E+02  0.57869584700E+03 -0.17315910901E+04  0.18285748245E+04  0.95082160607E+02 0.  0.
        254    2    1    2    0    0 -0.36724446103E+02 -0.57869584700E+03 -0.24220977903E+03  0.11001083581E+04  0.90295916535E+03 0.  0.
        -24    2    4    4    0    0 -0.23531614346E+02 -0.71948786767E+02 -0.50963639351E+03  0.52146773094E+03  0.80429944856E+02 0.  0.
         24    2    4    4    0    0 -0.13192831758E+02 -0.50674706023E+03  0.26742661448E+03  0.57864062718E+03  0.79632577698E+02 0.  0.
         13    1    3    3    0    0  0.16874623987E+02  0.49568157385E+03 -0.13689760511E+04  0.14560495885E+04  0.00000000000E+00 0. -1.
        -13    1    3    3    0    0  0.19849822117E+02  0.83014273144E+02 -0.36261503899E+03  0.37252523604E+03  0.00000000000E+00 0.  1.
          2    1    6    6  502    0  0.24462076150E+02 -0.36882313293E+03  0.20451355976E+03  0.42243898102E+03  0.00000000000E+00 0. -1.
          1    1    5    5  503    0 -0.49082108191E+02 -0.21555451914E+02 -0.22763079441E+03  0.23385779742E+03  0.00000000000E+00 0. -1.
         -4    1    5    5    0  503  0.25550493845E+02 -0.50393334853E+02 -0.28200559910E+03  0.28760993352E+03  0.00000000000E+00 0.  1.
         -1    1    6    6    0  502 -0.37654907908E+02 -0.13792392730E+03  0.62913054722E+02  0.15620164617E+03  0.00000000000E+00 0.  1.
<mgrwt>
<rscale>  0 0.21636301E+04</rscale>
<asrwt>0</asrwt>
<pdfrwt beam="1">  1        1 0.37711414E+00 0.21636301E+04</pdfrwt>
<pdfrwt beam="2">  1       -1 0.73452489E-01 0.21636301E+04</pdfrwt>
<totfact> 0.25013327E+00</totfact>
</mgrwt>
</event>
<event>
12    1  0.1440965E-007  0.1586454E+04  0.7818608E-02  0.8828913E-01
         -2   -1    0    0    0  501 -0.00000000000E+00  0.00000000000E+00  0.27993821308E+03  0.27993821308E+03  0.00000000000E+00 0.  1.
          2   -1    0    0  501    0  0.00000000000E+00 -0.00000000000E+00 -0.22476724933E+04  0.22476724933E+04  0.00000000000E+00 0. -1.
         23    2    1    2    0    0 -0.49313828270E+03  0.20492983195E+03 -0.84443257556E+03  0.10031682423E+04  0.89991920254E+02 0.  0.
        254    2    1    2    0    0  0.49313828270E+03 -0.20492983195E+03 -0.11233017047E+04  0.15244424641E+04  0.88144001774E+03 0.  0.
        -24    2    4    4    0    0  0.53994457886E+03  0.17780884953E+03 -0.39609478858E+03  0.69750900361E+03  0.80446214094E+02 0.  0.
         24    2    4    4    0    0 -0.46806296164E+02 -0.38273868148E+03 -0.72720691609E+03  0.82693346053E+03  0.79431238704E+02 0.  0.
         11    1    3    3    0    0 -0.26667349345E+02 -0.65552509097E+01 -0.64472458278E+02  0.70077219637E+02  0.00000000000E+00 0.  1.
        -11    1    3    3    0    0 -0.46647093335E+03  0.21148508286E+03 -0.77996011729E+03  0.93309102262E+03  0.00000000000E+00 0. -1.
          4    1    6    6  502    0 -0.47548640878E+02 -0.10046522406E+03 -0.19205411636E+03  0.22189844097E+03  0.00000000000E+00 0. -1.
          1    1    5    5  503    0  0.24356802966E+02 -0.12099258041E+01 -0.36558275912E+02  0.43945708651E+02  0.00000000000E+00 0. -1.
         -2    1    5    5    0  503  0.51558777590E+03  0.17901877533E+03 -0.35953651267E+03  0.65356329496E+03  0.00000000000E+00 0.  1.
         -3    1    6    6    0  502  0.74234471425E+00 -0.28227345742E+03 -0.53515279973E+03  0.60503501956E+03  0.00000000000E+00 0.  1.
<mgrwt>
<rscale>  0 0.15864544E+04</rscale>
<asrwt>0</asrwt>
<pdfrwt beam="1">  1        2 0.34579578E+00 0.15864544E+04</pdfrwt>
<pdfrwt beam="2">  1       -2 0.43067416E-01 0.15864544E+04</pdfrwt>
<totfact> 0.23840592E+01</totfact>
</mgrwt>
</event>
<event>
12    1  0.1397649E-007  0.2137559E+04  0.7818608E-02  0.8544877E-01
          1   -1    0    0  501    0  0.00000000000E+00  0.00000000000E+00  0.35256770392E+04  0.35256770392E+04  0.00000000000E+00 0. -1.
         -1   -1    0    0    0  501 -0.00000000000E+00 -0.00000000000E+00 -0.32399146892E+03  0.32399146892E+03  0.00000000000E+00 0.  1.
         23    2    1    2    0    0  0.66621112302E+03  0.55588590325E+03  0.15388588740E+04  0.17687083929E+04  0.86002018661E+02 0.  0.
        254    2    1    2    0    0 -0.66621112302E+03 -0.55588590325E+03  0.16628266962E+04  0.20809601151E+04  0.90141887119E+03 0.  0.
        -24    2    4    4    0    0 -0.56360192762E+03  0.57006359151E+02  0.10948305720E+04  0.12353693577E+04  0.81157937195E+02 0.  0.
         24    2    4    4    0    0 -0.10260919540E+03 -0.61289226240E+03  0.56799612421E+03  0.84559075744E+03  0.78984553301E+02 0.  0.
         13    1    3    3    0    0  0.62203301280E+03  0.52579714447E+03  0.13967435935E+04  0.16168736414E+04  0.00000000000E+00 0.  1.
        -13    1    3    3    0    0  0.44178110215E+02  0.30088758782E+02  0.14211528052E+03  0.15183475157E+03  0.00000000000E+00 0. -1.
          4    1    6    6  502    0 -0.34736087257E+02 -0.75770157186E+02  0.55814616937E+02  0.10031442539E+03  0.00000000000E+00 0. -1.
          3    1    5    5  503    0 -0.31584139749E+03  0.31237412154E+02  0.69903640124E+03  0.76771313297E+03  0.00000000000E+00 0. -1.
         -4    1    5    5    0  503 -0.24776053013E+03  0.25768946997E+02  0.39579417075E+03  0.46765622472E+03  0.00000000000E+00 0.  1.
         -3    1    6    6    0  502 -0.67873108140E+02 -0.53712210522E+03  0.51218150728E+03  0.74527633205E+03  0.00000000000E+00 0.  1.
<mgrwt>
<rscale>  0 0.21375587E+04</rscale>
<asrwt>0</asrwt>
<pdfrwt beam="1">  1        1 0.54241183E+00 0.21375587E+04</pdfrwt>
<pdfrwt beam="2">  1       -1 0.49844844E-01 0.21375587E+04</pdfrwt>
<totfact> 0.88565611E-01</totfact>
</mgrwt>
</event>
<event>
12    1  0.1397649E-007  0.1333376E+04  0.7818608E-02  0.9003509E-01
         -2   -1    0    0    0  501 -0.00000000000E+00  0.00000000000E+00  0.66729899077E+03  0.66729899077E+03  0.00000000000E+00 0.  1.
          2   -1    0    0  501    0  0.00000000000E+00 -0.00000000000E+00 -0.66607739322E+03  0.66607739322E+03  0.00000000000E+00 0. -1.
         23    2    1    2    0    0  0.18803058531E+03 -0.62887710784E+02 -0.27156208379E+03  0.34828708413E+03  0.90816091318E+02 0.  0.
        254    2    1    2    0    0 -0.18803058531E+03  0.62887710784E+02  0.27278368134E+03  0.98508929986E+03  0.92556989294E+03 0.  0.
        -24    2    4    4    0    0 -0.42972362076E+03  0.16790789604E+02 -0.17300273746E+03  0.46991177030E+03  0.77089583200E+02 0.  0.
         24    2    4    4    0    0  0.24169303545E+03  0.46096921180E+02  0.44578641880E+03  0.51517752956E+03  0.78370314883E+02 0.  0.
         13    1    3    3    0    0  0.20250844267E+01 -0.28052143333E+02 -0.45279064002E+02  0.53303070731E+02  0.00000000000E+00 0.  1.
        -13    1    3    3    0    0  0.18600550088E+03 -0.34835567451E+02 -0.22628301979E+03  0.29498401340E+03  0.00000000000E+00 0. -1.
          4    1    6    6  502    0  0.18259628229E+02 -0.41931362846E+01  0.90881971274E+02  0.92792936787E+02  0.00000000000E+00 0. -1.
          1    1    5    5  503    0 -0.82877911247E+02  0.24760401304E+02 -0.59081521105E+02  0.10474947151E+03  0.00000000000E+00 0. -1.
         -2    1    5    5    0  503 -0.34684570951E+03 -0.79696116999E+01 -0.11392121636E+03  0.36516229879E+03  0.00000000000E+00 0.  1.
         -1    1    6    6    0  502  0.22343340722E+03  0.50290057464E+02  0.35490444752E+03  0.42238459277E+03  0.00000000000E+00 0.  1.
<mgrwt>
<rscale>  0 0.13333758E+04</rscale>
<asrwt>0</asrwt>
<pdfrwt beam="1">  1        2 0.10247344E+00 0.13333758E+04</pdfrwt>
<pdfrwt beam="2">  1       -2 0.10266138E+00 0.13333758E+04</pdfrwt>
<totfact> 0.33099346E+01</totfact>
</mgrwt>
</event>
<event>
12    1  0.1397649E-007  0.1426487E+04  0.7818608E-02  0.8934866E-01
         -2   -1    0    0    0  501 -0.00000000000E+00  0.00000000000E+00  0.15261682407E+03  0.15261682407E+03  0.00000000000E+00 0.  1.
          2   -1    0    0  501    0  0.00000000000E+00 -0.00000000000E+00 -0.33332907337E+04  0.33332907337E+04  0.00000000000E+00 0. -1.
         23    2    1    2    0    0 -0.33826825363E+03 -0.23466555822E+03 -0.60091700833E+03  0.73327770303E+03  0.84271010629E+02 0.  0.
        254    2    1    2    0    0  0.33826825363E+03  0.23466555822E+03 -0.25797569013E+04  0.27526298548E+04  0.86737080409E+03 0.  0.
        -24    2    4    4    0    0 -0.40650158710E+02 -0.20584751073E+03 -0.19734942183E+03  0.29911543082E+03  0.80607776168E+02 0.  0.
         24    2    4    4    0    0  0.37891841234E+03  0.44051306895E+03 -0.23824074795E+04  0.24535144240E+04  0.78972799340E+02 0.  0.
         11    1    3    3    0    0 -0.20138189561E+03 -0.13528308195E+03 -0.27979746795E+03  0.37032796709E+03  0.00000000000E+00 0.  1.
        -11    1    3    3    0    0 -0.13688635802E+03 -0.99382476272E+02 -0.32111954038E+03  0.36294973593E+03  0.00000000000E+00 0. -1.
          4    1    6    6  502    0  0.11587449091E+03  0.96100445263E+02 -0.52018275618E+03  0.54152773987E+03  0.00000000000E+00 0. -1.
          1    1    5    5  503    0 -0.20552108199E+02 -0.37007704933E+01 -0.11795839366E+02  0.23983883756E+02  0.00000000000E+00 0. -1.
         -2    1    5    5    0  503 -0.20098050511E+02 -0.20214674024E+03 -0.18555358246E+03  0.27513154706E+03  0.00000000000E+00 0.  1.
         -3    1    6    6    0  502  0.26304392143E+03  0.34441262369E+03 -0.18622247233E+04  0.19119866841E+04  0.00000000000E+00 0.  1.
<mgrwt>
<rscale>  0 0.14264869E+04</rscale>
<asrwt>0</asrwt>
<pdfrwt beam="1">  1        2 0.51281401E+00 0.14264869E+04</pdfrwt>
<pdfrwt beam="2">  1       -2 0.23479509E-01 0.14264869E+04</pdfrwt>
<totfact> 0.16741066E+01</totfact>
</mgrwt>
</event>
<event>
12    1  0.1397649E-007  0.2223572E+04  0.7818608E-02  0.8508681E-01
          1   -1    0    0  501    0  0.00000000000E+00  0.00000000000E+00  0.80783524233E+03  0.80783524233E+03  0.00000000000E+00 0. -1.
         -1   -1    0    0    0  501 -0.00000000000E+00 -0.00000000000E+00 -0.15300990735E+04  0.15300990735E+04  0.00000000000E+00 0.  1.
         23    2    1    2    0    0  0.13654238850E+02  0.19603409688E+03  0.64996841310E+03  0.68510890803E+03  0.91101440447E+02 0.  0.
        254    2    1    2    0    0 -0.13654238850E+02 -0.19603409688E+03 -0.13722322443E+04  0.16528254078E+04  0.90010815521E+03 0.  0.
        -24    2    4    4    0    0 -0.41475834339E+03 -0.15122993891E+03 -0.41780964420E+03  0.61335779952E+03  0.82145685256E+02 0.  0.
         24    2    4    4    0    0  0.40110410454E+03 -0.44804157970E+02 -0.95442260008E+03  0.10394676083E+04  0.81722052666E+02 0.  0.
         11    1    3    3    0    0 -0.89596088538E+01  0.11038778011E+03  0.22227188487E+03  0.24833551376E+03  0.00000000000E+00 0.  1.
        -11    1    3    3    0    0  0.22613847704E+02  0.85646316776E+02  0.42769652823E+03  0.43677339427E+03  0.00000000000E+00 0. -1.
          2    1    6    6  502    0  0.14007942405E+03  0.10764115249E+02 -0.26002038390E+03  0.29554815388E+03  0.00000000000E+00 0. -1.
          1    1    5    5  503    0 -0.12023551909E+01  0.63658392516E+01 -0.62418595716E+01  0.89961312960E+01  0.00000000000E+00 0. -1.
         -2    1    5    5    0  503 -0.41355598820E+03 -0.15759577817E+03 -0.41156778462E+03  0.60436166822E+03  0.00000000000E+00 0.  1.
         -1    1    6    6    0  502  0.26102468050E+03 -0.55568273219E+02 -0.69440221618E+03  0.74391945441E+03  0.00000000000E+00 0.  1.
<mgrwt>
<rscale>  0 0.22235719E+04</rscale>
<asrwt>0</asrwt>
<pdfrwt beam="1">  1        1 0.12428235E+00 0.22235719E+04</pdfrwt>
<pdfrwt beam="2">  1       -1 0.23539986E+00 0.22235719E+04</pdfrwt>
<totfact> 0.17213873E+00</totfact>
</mgrwt>
</event>
<event>
12    1  0.1397649E-007  0.1499416E+04  0.7818608E-02  0.8884841E-01
          2   -1    0    0  501    0  0.00000000000E+00  0.00000000000E+00  0.14006710155E+04  0.14006710155E+04  0.00000000000E+00 0. -1.
         -2   -1    0    0    0  501 -0.00000000000E+00 -0.00000000000E+00 -0.40128065124E+03  0.40128065124E+03  0.00000000000E+00 0.  1.
         23    2    1    2    0    0  0.44375220832E+03 -0.97452436354E+02  0.15398559895E+03  0.48807891892E+03  0.89980368222E+02 0.  0.
        254    2    1    2    0    0 -0.44375220832E+03  0.97452436354E+02  0.84540476527E+03  0.13138727478E+04  0.89729559258E+03 0.  0.
        -24    2    4    4    0    0 -0.75064326906E+02 -0.83215305049E+02  0.88311616069E+03  0.89374778954E+03  0.79570835598E+02 0.  0.
         24    2    4    4    0    0 -0.36868788142E+03  0.18066774140E+03 -0.37711395414E+02  0.42012495823E+03  0.80692282774E+02 0.  0.
         11    1    3    3    0    0  0.12166498390E+03 -0.65361266364E+02  0.63352877993E+02  0.15194752580E+03  0.00000000000E+00 0. -1.
        -11    1    3    3    0    0  0.32208722443E+03 -0.32091169990E+02  0.90632720952E+02  0.33613139312E+03  0.00000000000E+00 0.  1.
          2    1    6    6  502    0 -0.44453676738E+02  0.26517317547E+02 -0.32413348765E+02  0.61073092959E+02  0.00000000000E+00 0. -1.
          3    1    5    5  503    0 -0.42110448638E+01 -0.57616364690E+01  0.36068008861E+01  0.79961469645E+01  0.00000000000E+00 0. -1.
         -4    1    5    5    0  503 -0.70853282042E+02 -0.77453668580E+02  0.87950935980E+03  0.88575164258E+03  0.00000000000E+00 0.  1.
         -1    1    6    6    0  502 -0.32423420468E+03  0.15415042386E+03 -0.52980466492E+01  0.35905186528E+03  0.00000000000E+00 0.  1.
<mgrwt>
<rscale>  0 0.14994161E+04</rscale>
<asrwt>0</asrwt>
<pdfrwt beam="1">  1        2 0.21548785E+00 0.14994161E+04</pdfrwt>
<pdfrwt beam="2">  1       -2 0.61735486E-01 0.14994161E+04</pdfrwt>
<totfact> 0.34051928E+01</totfact>
</mgrwt>
</event>
<event>
12    1  0.1397649E-007  0.1800335E+04  0.7818608E-02  0.8706121E-01
         -2   -1    0    0    0  501 -0.00000000000E+00  0.00000000000E+00  0.27240655590E+03  0.27240655590E+03  0.00000000000E+00 0. -1.
          2   -1    0    0  501    0  0.00000000000E+00 -0.00000000000E+00 -0.29746051370E+04  0.29746051370E+04  0.00000000000E+00 0.  1.
         23    2    1    2    0    0 -0.65024543198E+03 -0.66829436047E+02 -0.12974193718E+04  0.14558172513E+04  0.93923094080E+02 0.  0.
        254    2    1    2    0    0  0.65024543198E+03  0.66829436047E+02 -0.14047792093E+04  0.17911944416E+04  0.89871441811E+03 0.  0.
        -24    2    4    4    0    0  0.35183635266E+02 -0.24893830399E+02 -0.10815343418E+04  0.10853052785E+04  0.79457058132E+02 0.  0.
         24    2    4    4    0    0  0.61506179671E+03  0.91723266446E+02 -0.32324486751E+03  0.70588916308E+03  0.84131413918E+02 0.  0.
         13    1    3    3    0    0 -0.54003028682E+00 -0.21907022883E+01  0.10095342458E+01  0.24718350714E+01  0.00000000000E+00 0. -1.
        -13    1    3    3    0    0 -0.64970540169E+03 -0.64638733759E+02 -0.12984289060E+04  0.14533454163E+04  0.00000000000E+00 0.  1.
          4    1    6    6  502    0  0.11982852233E+03  0.11107208185E+02 -0.10104562176E+03  0.15713835469E+03  0.00000000000E+00 0. -1.
          3    1    5    5  503    0 -0.22907545841E+02  0.52487588604E+01 -0.37950918900E+03  0.38023614986E+03  0.00000000000E+00 0. -1.
         -4    1    5    5    0  503  0.58091181107E+02 -0.30142589259E+02 -0.70202515276E+03  0.70506912861E+03  0.00000000000E+00 0.  1.
         -3    1    6    6    0  502  0.49523327438E+03  0.80616058260E+02 -0.22219924575E+03  0.54875080839E+03  0.00000000000E+00 0.  1.
<mgrwt>
<rscale>  0 0.18003355E+04</rscale>
<asrwt>0</asrwt>
<pdfrwt beam="1">  1        2 0.45763156E+00 0.18003355E+04</pdfrwt>
<pdfrwt beam="2">  1       -2 0.41908701E-01 0.18003355E+04</pdfrwt>
<totfact> 0.92335039E+00</totfact>
</mgrwt>
</event>
<event>
12    1  0.1397649E-007  0.1133596E+04  0.7818608E-02  0.9173052E-01
          2   -1    0    0  501    0  0.00000000000E+00  0.00000000000E+00  0.35691817722E+03  0.35691817722E+03  0.00000000000E+00 0. -1.
         -2   -1    0    0    0  501 -0.00000000000E+00 -0.00000000000E+00 -0.90009365253E+03  0.90009365253E+03  0.00000000000E+00 0.  1.
         23    2    1    2    0    0 -0.11596628015E+03  0.10253087833E+03  0.84474267940E+01  0.18020230280E+03  0.91873564064E+02 0.  0.
        254    2    1    2    0    0  0.11596628015E+03 -0.10253087833E+03 -0.55162290211E+03  0.10768095269E+04  0.91174018890E+03 0.  0.
        -24    2    4    4    0    0  0.36165182949E+03 -0.82473342200E+02 -0.68520917591E+03  0.78327804866E+03  0.80118592158E+02 0.  0.
         24    2    4    4    0    0 -0.24568554934E+03 -0.20057536132E+02  0.13358627380E+03  0.29353147829E+03  0.86900761133E+02 0.  0.
         13    1    3    3    0    0 -0.85394642194E+02  0.10227246678E+03  0.37096368520E+02  0.13830416817E+03  0.00000000000E+00 0. -1.
        -13    1    3    3    0    0 -0.30571637954E+02  0.25841155347E+00 -0.28648941726E+02  0.41898134633E+02  0.00000000000E+00 0.  1.
          2    1    6    6  502    0 -0.24347857615E+03 -0.29977799550E+01  0.11920551534E+03  0.27111023333E+03  0.00000000000E+00 0. -1.
          1    1    5    5  503    0  0.32586103547E+03 -0.84753816377E+02 -0.65464245581E+03  0.73615580469E+03  0.00000000000E+00 0. -1.
         -2    1    5    5    0  503  0.35790794019E+02  0.22804741770E+01 -0.30566720105E+02  0.47122243972E+02  0.00000000000E+00 0.  1.
         -1    1    6    6    0  502 -0.22069731933E+01 -0.17059756177E+02  0.14380758463E+02  0.22421244958E+02  0.00000000000E+00 0.  1.
<mgrwt>
<rscale>  0 0.11335957E+04</rscale>
<asrwt>0</asrwt>
<pdfrwt beam="1">  1        2 0.54910490E-01 0.11335957E+04</pdfrwt>
<pdfrwt beam="2">  1       -2 0.13847594E+00 0.11335957E+04</pdfrwt>
<totfact> 0.33070652E+01</totfact>
</mgrwt>
</event>
<event>
12    1  0.1397649E-007  0.1669702E+04  0.7818608E-02  0.8778836E-01
         -1   -1    0    0    0  501 -0.00000000000E+00  0.00000000000E+00  0.75368159915E+03  0.75368159915E+03  0.00000000000E+00 0.  1.
          1   -1    0    0  501    0  0.00000000000E+00 -0.00000000000E+00 -0.92476202478E+03  0.92476202478E+03  0.00000000000E+00 0. -1.
         23    2    1    2    0    0 -0.39505002802E+02  0.34116054372E+03  0.42100959042E+03  0.55169066279E+03  0.95720166881E+02 0.  0.
        254    2    1    2    0    0  0.39505002802E+02 -0.34116054372E+03 -0.59209001605E+03  0.11267529611E+04  0.89501423814E+03 0.  0.
        -24    2    4    4    0    0 -0.17441306232E+03 -0.57535986735E+03 -0.50244114516E+03  0.78791374427E+03  0.83078702435E+02 0.  0.
         24    2    4    4    0    0  0.21391806513E+03  0.23419932363E+03 -0.89648870889E+02  0.33883921686E+03  0.78516450884E+02 0.  0.
         13    1    3    3    0    0 -0.61534171619E+02  0.31749164426E+03  0.39261226902E+03  0.50865685116E+03  0.00000000000E+00 0.  1.
        -13    1    3    3    0    0  0.22029168817E+02  0.23668899463E+02  0.28397321397E+02  0.43033811626E+02  0.00000000000E+00 0. -1.
          4    1    6    6  502    0  0.10437528858E+03  0.15243281504E+03 -0.81444007359E+02  0.20189871298E+03  0.00000000000E+00 0. -1.
          3    1    5    5  503    0 -0.62086855484E+02 -0.29613759360E+03 -0.21034726443E+03  0.36850810523E+03  0.00000000000E+00 0. -1.
         -4    1    5    5    0  503 -0.11232620684E+03 -0.27922227375E+03 -0.29209388073E+03  0.41940563904E+03  0.00000000000E+00 0.  1.
         -3    1    6    6    0  502  0.10954277654E+03  0.81766508589E+02 -0.82048635300E+01  0.13694050389E+03  0.00000000000E+00 0.  1.
<mgrwt>
<rscale>  0 0.16697019E+04</rscale>
<asrwt>0</asrwt>
<pdfrwt beam="1">  1        1 0.14227108E+00 0.16697019E+04</pdfrwt>
<pdfrwt beam="2">  1       -1 0.11595102E+00 0.16697019E+04</pdfrwt>
<totfact> 0.11153561E+01</totfact>
</mgrwt>
</event>
<event>
12    1  0.1397649E-007  0.1802669E+04  0.7818608E-02  0.8704881E-01
         -2   -1    0    0    0  501 -0.00000000000E+00  0.00000000000E+00  0.82795059202E+03  0.82795059202E+03  0.00000000000E+00 0.  1.
          2   -1    0    0  501    0  0.00000000000E+00 -0.00000000000E+00 -0.98122294779E+03  0.98122294779E+03  0.00000000000E+00 0. -1.
         23    2    1    2    0    0 -0.11137116068E+03  0.31680265856E+03  0.49525769872E+03  0.60565132537E+03  0.93626277720E+02 0.  0.
        254    2    1    2    0    0  0.11137116068E+03 -0.31680265856E+03 -0.64853005448E+03  0.12035222144E+04  0.95661226691E+03 0.  0.
        -24    2    4    4    0    0  0.52671238898E+03 -0.22954383984E+03 -0.39615704202E+03  0.70247830403E+03  0.80118977664E+02 0.  0.
         24    2    4    4    0    0 -0.41534122830E+03 -0.87258818724E+02 -0.25237301246E+03  0.50104391041E+03  0.85031907949E+02 0.  0.
         11    1    3    3    0    0  0.11468166411E+02  0.41974526132E+02  0.35738916872E+02  0.56308523902E+02  0.00000000000E+00 0. -1.
        -11    1    3    3    0    0 -0.12283932709E+03  0.27482813243E+03  0.45951878184E+03  0.54934280147E+03  0.00000000000E+00 0.  1.
          2    1    6    6  502    0 -0.27043776137E+02  0.14083566023E+02 -0.93612998478E+01  0.31895871120E+02  0.00000000000E+00 0. -1.
          3    1    5    5  503    0  0.25810496547E+03 -0.70647699454E+02 -0.16939995802E+03  0.31671061936E+03  0.00000000000E+00 0. -1.
         -4    1    5    5    0  503  0.26860742351E+03 -0.15889614038E+03 -0.22675708400E+03  0.38576768467E+03  0.00000000000E+00 0.  1.
         -1    1    6    6    0  502 -0.38829745216E+03 -0.10134238475E+03 -0.24301171261E+03  0.46914803929E+03  0.00000000000E+00 0.  1.
<mgrwt>
<rscale>  0 0.18026693E+04</rscale>
<asrwt>0</asrwt>
<pdfrwt beam="1">  1        2 0.15095738E+00 0.18026693E+04</pdfrwt>
<pdfrwt beam="2">  1       -2 0.12737701E+00 0.18026693E+04</pdfrwt>
<totfact> 0.11179699E+01</totfact>
</mgrwt>
</event>
<event>
12    1  0.1397649E-007  0.2296159E+04  0.7818608E-02  0.8479437E-01
          2   -1    0    0  501    0  0.00000000000E+00  0.00000000000E+00  0.27815890304E+04  0.27815890304E+04  0.00000000000E+00 0. -1.
         -2   -1    0    0    0  501 -0.00000000000E+00 -0.00000000000E+00 -0.47386083708E+03  0.47386083708E+03  0.00000000000E+00 0.  1.
         23    2    1    2    0    0 -0.45929569681E+03  0.78655650144E+03  0.14487454949E+04  0.17133140881E+04  0.83414558685E+02 0.  0.
        254    2    1    2    0    0  0.45929569681E+03 -0.78655650144E+03  0.85898269850E+03  0.15421357794E+04  0.90039314677E+03 0.  0.
        -24    2    4    4    0    0 -0.21170855718E+03 -0.37655412893E+03  0.10855439972E+03  0.45230864818E+03  0.78648142515E+02 0.  0.
         24    2    4    4    0    0  0.67100425399E+03 -0.41000237251E+03  0.75042829878E+03  0.10898271312E+04  0.78942320896E+02 0.  0.
         11    1    3    3    0    0 -0.36788950699E+03  0.65701033251E+03  0.11399742895E+04  0.13662161787E+04  0.00000000000E+00 0. -1.
        -11    1    3    3    0    0 -0.91406189820E+02  0.12954616893E+03  0.30877120538E+03  0.34709790937E+03  0.00000000000E+00 0.  1.
          4    1    6    6  502    0  0.61672196834E+03 -0.37299549612E+03  0.65458426957E+03  0.97362836459E+03  0.00000000000E+00 0. -1.
          3    1    5    5  503    0 -0.10233562012E+03 -0.19698023338E+03  0.15920087483E+02  0.22254716505E+03  0.00000000000E+00 0. -1.
         -4    1    5    5    0  503 -0.10937293706E+03 -0.17957389555E+03  0.92634312239E+02  0.22976148313E+03  0.00000000000E+00 0.  1.
         -3    1    6    6    0  502  0.54282285651E+02 -0.37006876395E+02  0.95844029207E+02  0.11619876665E+03  0.00000000000E+00 0.  1.
<mgrwt>
<rscale>  0 0.22961586E+04</rscale>
<asrwt>0</asrwt>
<pdfrwt beam="1">  1        2 0.42793677E+00 0.22961586E+04</pdfrwt>
<pdfrwt beam="2">  1       -2 0.72901669E-01 0.22961586E+04</pdfrwt>
<totfact> 0.36595362E+00</totfact>
</mgrwt>
</event>
<event>
12    1  0.1897227E-007  0.1432481E+04  0.7818608E-02  0.8930637E-01
         -2   -1    0    0    0  501 -0.00000000000E+00  0.00000000000E+00  0.10167487735E+04  0.10167487735E+04  0.00000000000E+00 0.  1.
          2   -1    0    0  501    0  0.00000000000E+00 -0.00000000000E+00 -0.50454988460E+03  0.50454988460E+03  0.00000000000E+00 0. -1.
         23    2    1    2    0    0 -0.24892483907E+03  0.96997776613E+02 -0.20473037356E+03  0.34901802591E+03  0.92341282093E+02 0.  0.
        254    2    1    2    0    0  0.24892483907E+03 -0.96997776613E+02  0.71692926241E+03  0.11722806321E+04  0.88819039007E+03 0.  0.
        -24    2    4    4    0    0  0.19043896362E+03 -0.39173139823E+03  0.73759468406E+03  0.86041884094E+03  0.80957869711E+02 0.  0.
         24    2    4    4    0    0  0.58485875455E+02  0.29473362162E+03 -0.20665421656E+02  0.31186179120E+03  0.80883940399E+02 0.  0.
         11    1    3    3    0    0 -0.23350964050E+03  0.11323064880E+03 -0.19498384197E+03  0.32460226533E+03  0.00000000000E+00 0. -1.
        -11    1    3    3    0    0 -0.15415198578E+02 -0.16232872184E+02 -0.97465315879E+01  0.24415760576E+02  0.00000000000E+00 0.  1.
          4    1    6    6  502    0  0.10330546966E+02  0.14769348378E+01 -0.10050065549E+02  0.14488110804E+02  0.00000000000E+00 0. -1.
          1    1    5    5  503    0  0.20116249039E+02 -0.17360087501E+02  0.84739842107E+02  0.88808090587E+02  0.00000000000E+00 0. -1.
         -2    1    5    5    0  503  0.17032271458E+03 -0.37437131073E+03  0.65285484196E+03  0.77161075036E+03  0.00000000000E+00 0.  1.
         -3    1    6    6    0  502  0.48155328490E+02  0.29325668678E+03 -0.10615356107E+02  0.29737368039E+03  0.00000000000E+00 0.  1.
<mgrwt>
<rscale>  0 0.14324810E+04</rscale>
<asrwt>0</asrwt>
<pdfrwt beam="1">  1        2 0.77623059E-01 0.14324810E+04</pdfrwt>
<pdfrwt beam="2">  1       -2 0.15642289E+00 0.14324810E+04</pdfrwt>
<totfact> 0.15831873E+01</totfact>
</mgrwt>
</event>
<event>
12    1  0.1397649E-007  0.3982529E+04  0.7818608E-02  0.8008080E-01
          2   -1    0    0  501    0  0.00000000000E+00  0.00000000000E+00  0.27776397089E+04  0.27776397089E+04  0.00000000000E+00 0. -1.
         -2   -1    0    0    0  501 -0.00000000000E+00 -0.00000000000E+00 -0.14275195344E+04  0.14275195344E+04  0.00000000000E+00 0.  1.
         23    2    1    2    0    0 -0.17838805991E+04 -0.31176540089E+03  0.76331913290E+02  0.18146929500E+04  0.88635685258E+02 0.  0.
        254    2    1    2    0    0  0.17838805991E+04  0.31176540089E+03  0.12737882612E+04  0.23904662933E+04  0.90131288029E+03 0.  0.
        -24    2    4    4    0    0  0.90119100646E+03  0.54103151587E+02  0.11422733135E+04  0.14582094071E+04  0.80709175933E+02 0.  0.
         24    2    4    4    0    0  0.88268959267E+03  0.25766224930E+03  0.13151494767E+03  0.93225688625E+03  0.79221012241E+02 0.  0.
         13    1    3    3    0    0 -0.94672094011E+03 -0.18846910071E+03  0.78674502614E+02  0.96849926057E+03  0.00000000000E+00 0. -1.
        -13    1    3    3    0    0 -0.83715965902E+03 -0.12329630017E+03 -0.23425893244E+01  0.84619368945E+03  0.00000000000E+00 0.  1.
          4    1    6    6  502    0  0.11895440138E+03  0.56621191443E+02  0.37191659977E+02  0.13689166702E+03  0.00000000000E+00 0. -1.
          1    1    5    5  503    0  0.31228277186E+01 -0.32868395382E+01  0.15691302048E+02  0.16333166474E+02  0.00000000000E+00 0. -1.
         -2    1    5    5    0  503  0.89806817875E+03  0.57389991125E+02  0.11265820114E+04  0.14418762406E+04  0.00000000000E+00 0.  1.
         -3    1    6    6    0  502  0.76373519129E+03  0.20104105786E+03  0.94323287697E+02  0.79536521923E+03  0.00000000000E+00 0.  1.
<mgrwt>
<rscale>  0 0.39825293E+04</rscale>
<asrwt>0</asrwt>
<pdfrwt beam="1">  1        2 0.42732919E+00 0.39825293E+04</pdfrwt>
<pdfrwt beam="2">  1       -2 0.21961839E+00 0.39825293E+04</pdfrwt>
<totfact> 0.18725205E-01</totfact>
</mgrwt>
</event>
<event>
12    1  0.1397649E-007  0.1267159E+04  0.7818608E-02  0.9056021E-01
         -4   -1    0    0    0  501 -0.00000000000E+00  0.00000000000E+00  0.43675675125E+03  0.43675675125E+03  0.00000000000E+00 0.  1.
          4   -1    0    0  501    0  0.00000000000E+00 -0.00000000000E+00 -0.91909986776E+03  0.91909986776E+03  0.00000000000E+00 0. -1.
         23    2    1    2    0    0 -0.21313118228E+03  0.45641333333E+02 -0.35126635311E+03  0.42373088297E+03  0.93014935289E+02 0.  0.
        254    2    1    2    0    0  0.21313118228E+03 -0.45641333333E+02 -0.13107676340E+03  0.93212573605E+03  0.89675483702E+03 0.  0.
        -24    2    4    4    0    0  0.41553734259E+03 -0.24151274688E+03  0.16592775667E+03  0.51484138403E+03  0.80808045890E+02 0.  0.
         24    2    4    4    0    0 -0.20240616031E+03  0.19587141354E+03 -0.29700452007E+03  0.41728435202E+03  0.81121397446E+02 0.  0.
         13    1    3    3    0    0 -0.96518128260E+02  0.17022584306E+02 -0.24313358298E+03  0.26214396166E+03  0.00000000000E+00 0. -1.
        -13    1    3    3    0    0 -0.11661305402E+03  0.28618749027E+02 -0.10813277013E+03  0.16158692131E+03  0.00000000000E+00 0.  1.
          2    1    6    6  502    0 -0.46330296894E+02  0.70023797795E+02 -0.45025604801E+02  0.95273993071E+02  0.00000000000E+00 0. -1.
          1    1    5    5  503    0  0.26090187305E+03 -0.12790606544E+03  0.63862924075E+02  0.29750331428E+03  0.00000000000E+00 0. -1.
         -2    1    5    5    0  503  0.15463546954E+03 -0.11360668144E+03  0.10206483260E+03  0.21733806974E+03  0.00000000000E+00 0.  1.
         -1    1    6    6    0  502 -0.15607586341E+03  0.12584761575E+03 -0.25197891527E+03  0.32201035895E+03  0.00000000000E+00 0.  1.
<mgrwt>
<rscale>  0 0.12671591E+04</rscale>
<asrwt>0</asrwt>
<pdfrwt beam="1">  1        4 0.14139998E+00 0.12671591E+04</pdfrwt>
<pdfrwt beam="2">  1       -4 0.67193346E-01 0.12671591E+04</pdfrwt>
<totfact> 0.13990562E+00</totfact>
</mgrwt>
</event>
<event>
12    1  0.1397649E-007  0.1186685E+04  0.7818608E-02  0.9124592E-01
         -2   -1    0    0    0  501 -0.00000000000E+00  0.00000000000E+00  0.16042237510E+03  0.16042237510E+03  0.00000000000E+00 0.  1.
          2   -1    0    0  501    0  0.00000000000E+00 -0.00000000000E+00 -0.21945509287E+04  0.21945509287E+04  0.00000000000E+00 0. -1.
         23    2    1    2    0    0  0.53405912470E+02 -0.20233658550E+03 -0.68049922745E+03  0.71794333471E+03  0.92580494502E+02 0.  0.
        254    2    1    2    0    0 -0.53405912470E+02  0.20233658550E+03 -0.13536293261E+04  0.16370299691E+04  0.89652801505E+03 0.  0.
        -24    2    4    4    0    0  0.32268217546E+03  0.29232445878E+03 -0.36959119528E+03  0.57671375586E+03  0.80148169070E+02 0.  0.
         24    2    4    4    0    0 -0.37608808793E+03 -0.89987873280E+02 -0.98403813085E+03  0.10603162132E+04  0.79996011361E+02 0.  0.
         13    1    3    3    0    0  0.56468551365E+02 -0.16608022087E+03 -0.63951989165E+03  0.66314178640E+03  0.00000000000E+00 0. -1.
        -13    1    3    3    0    0 -0.30626388950E+01 -0.36256364633E+02 -0.40979335805E+02  0.54801548303E+02  0.00000000000E+00 0.  1.
          2    1    6    6  502    0 -0.87751466997E+02 -0.42764207803E+02 -0.32661254414E+03  0.34088832691E+03  0.00000000000E+00 0. -1.
          1    1    5    5  503    0  0.37564385042E+02  0.16526363493E+02 -0.12288724175E+02  0.42839426417E+02  0.00000000000E+00 0. -1.
         -2    1    5    5    0  503  0.28511779041E+03  0.27579809529E+03 -0.35730247111E+03  0.53387432944E+03  0.00000000000E+00 0.  1.
         -1    1    6    6    0  502 -0.28833662093E+03 -0.47223665477E+02 -0.65742558671E+03  0.71942788632E+03  0.00000000000E+00 0.  1.
<mgrwt>
<rscale>  0 0.11866846E+04</rscale>
<asrwt>0</asrwt>
<pdfrwt beam="1">  1        2 0.33762322E+00 0.11866846E+04</pdfrwt>
<pdfrwt beam="2">  1       -2 0.24680366E-01 0.11866846E+04</pdfrwt>
<totfact> 0.75653287E+01</totfact>
</mgrwt>
</event>
<event>
12    1  0.1397649E-007  0.1801006E+04  0.7818608E-02  0.8705764E-01
          1   -1    0    0  501    0  0.00000000000E+00  0.00000000000E+00  0.95188175579E+03  0.95188175579E+03  0.00000000000E+00 0. -1.
         -1   -1    0    0    0  501 -0.00000000000E+00 -0.00000000000E+00 -0.85189790772E+03  0.85189790772E+03  0.00000000000E+00 0.  1.
         23    2    1    2    0    0  0.20095205602E+03 -0.45951647531E+03  0.48496366602E+03  0.70361299111E+03  0.91347490398E+02 0.  0.
        254    2    1    2    0    0 -0.20095205602E+03  0.45951647531E+03 -0.38497981795E+03  0.11001666724E+04  0.90034444906E+03 0.  0.
        -24    2    4    4    0    0 -0.85306406195E+02  0.55318714564E+02  0.28025276923E+03  0.30920907359E+03  0.82044459969E+02 0.  0.
         24    2    4    4    0    0 -0.11564564982E+03  0.40419776074E+03 -0.66523258717E+03  0.79095759882E+03  0.79559926953E+02 0.  0.
         11    1    3    3    0    0  0.15872945018E+03 -0.32649937327E+03  0.40020047372E+03  0.54033073045E+03  0.00000000000E+00 0.  1.
        -11    1    3    3    0    0  0.42222605834E+02 -0.13301710203E+03  0.84763192297E+02  0.16328226066E+03  0.00000000000E+00 0. -1.
          2    1    6    6  502    0 -0.10385324720E+03  0.38465665977E+03 -0.58687505111E+03  0.70934375902E+03  0.00000000000E+00 0. -1.
          3    1    5    5  503    0 -0.37425306037E+02  0.47418021959E+02  0.23574340893E+03  0.24335997450E+03  0.00000000000E+00 0. -1.
         -4    1    5    5    0  503 -0.47881100158E+02  0.79006926056E+01  0.44509360303E+02  0.65849099087E+02  0.00000000000E+00 0.  1.
         -1    1    6    6    0  502 -0.11792402625E+02  0.19541100974E+02 -0.78357536068E+02  0.81613839793E+02  0.00000000000E+00 0.  1.
<mgrwt>
<rscale>  0 0.18010065E+04</rscale>
<asrwt>0</asrwt>
<pdfrwt beam="1">  1        1 0.14644335E+00 0.18010065E+04</pdfrwt>
<pdfrwt beam="2">  1       -1 0.13106122E+00 0.18010065E+04</pdfrwt>
<totfact> 0.77437179E+00</totfact>
</mgrwt>
</event>
<event>
12    1  0.1397649E-007  0.3278732E+04  0.7818608E-02  0.8168328E-01
         -2   -1    0    0    0  501 -0.00000000000E+00  0.00000000000E+00  0.95281219179E+03  0.95281219179E+03  0.00000000000E+00 0.  1.
          2   -1    0    0  501    0  0.00000000000E+00 -0.00000000000E+00 -0.28206198933E+04  0.28206198933E+04  0.00000000000E+00 0. -1.
         23    2    1    2    0    0  0.11551104077E+03 -0.30030076850E+03  0.83783845773E+03  0.90242323674E+03  0.94186330573E+02 0.  0.
        254    2    1    2    0    0 -0.11551104077E+03  0.30030076850E+03 -0.27056461592E+04  0.28710088483E+04  0.90479131086E+03 0.  0.
        -24    2    4    4    0    0 -0.16360206001E+03  0.19000386088E+03 -0.27123921157E+04  0.27252125384E+04  0.82736262752E+02 0.  0.
         24    2    4    4    0    0  0.48091019246E+02  0.11029690762E+03  0.67459564609E+01  0.14579630991E+03  0.82054263100E+02 0.  0.
         13    1    3    3    0    0  0.35043150560E+02 -0.16171994892E+03  0.31845227020E+03  0.35887771270E+03  0.00000000000E+00 0.  1.
        -13    1    3    3    0    0  0.80467890209E+02 -0.13858081958E+03  0.51938618753E+03  0.54354552404E+03  0.00000000000E+00 0. -1.
          2    1    6    6  502    0 -0.22514067495E+01  0.73757432203E+02 -0.22378675708E+02  0.77110523043E+02  0.00000000000E+00 0. -1.
          3    1    5    5  503    0 -0.16376738144E+02 -0.16624728118E+00 -0.69641223054E+02  0.71541073090E+02  0.00000000000E+00 0. -1.
         -4    1    5    5    0  503 -0.14722532187E+03  0.19017010816E+03 -0.26427508926E+04  0.26536714653E+04  0.00000000000E+00 0.  1.
         -1    1    6    6    0  502  0.50342425995E+02  0.36539475416E+02  0.29124632169E+02  0.68685786869E+02  0.00000000000E+00 0.  1.
<mgrwt>
<rscale>  0 0.32787321E+04</rscale>
<asrwt>0</asrwt>
<pdfrwt beam="1">  1        2 0.43394152E+00 0.32787321E+04</pdfrwt>
<pdfrwt beam="2">  1       -2 0.14658649E+00 0.32787321E+04</pdfrwt>
<totfact> 0.59826275E-01</totfact>
</mgrwt>
</event>
<event>
12    1  0.1397649E-007  0.1795273E+04  0.7818608E-02  0.8708817E-01
          2   -1    0    0  501    0  0.00000000000E+00  0.00000000000E+00  0.20874463387E+04  0.20874463387E+04  0.00000000000E+00 0. -1.
         -2   -1    0    0    0  501 -0.00000000000E+00 -0.00000000000E+00 -0.38599871696E+03  0.38599871696E+03  0.00000000000E+00 0.  1.
         23    2    1    2    0    0 -0.38968173692E+03 -0.45797978978E+03  0.23658101237E+03  0.65212124895E+03  0.87716611746E+02 0.  0.
        254    2    1    2    0    0  0.38968173692E+03  0.45797978978E+03  0.14648666094E+04  0.18213238068E+04  0.89988270444E+03 0.  0.
        -24    2    4    4    0    0  0.30436214869E+03  0.63739236477E+03  0.59991166151E+03  0.93007094328E+03  0.78946904323E+02 0.  0.
         24    2    4    4    0    0  0.85319588231E+02 -0.17941257498E+03  0.86495494791E+03  0.89125286348E+03  0.81953038743E+02 0.  0.
         13    1    3    3    0    0 -0.36284239509E+03 -0.43595160632E+03  0.19933505686E+03  0.60120119064E+03  0.00000000000E+00 0. -1.
        -13    1    3    3    0    0 -0.26839341825E+02 -0.22028183459E+02  0.37245955509E+02  0.50920058306E+02  0.00000000000E+00 0.  1.
          2    1    6    6  502    0  0.13002802117E+02 -0.11400484619E+03  0.53632280505E+03  0.54845996120E+03  0.00000000000E+00 0. -1.
          1    1    5    5  503    0  0.24292351143E+03  0.42713186976E+03  0.40239158808E+03  0.63511609705E+03  0.00000000000E+00 0. -1.
         -2    1    5    5    0  503  0.61438637252E+02  0.21026049500E+03  0.19752007343E+03  0.29495484623E+03  0.00000000000E+00 0.  1.
         -1    1    6    6    0  502  0.72316786114E+02 -0.65407728795E+02  0.32863214285E+03  0.34279290228E+03  0.00000000000E+00 0.  1.
<mgrwt>
<rscale>  0 0.17952734E+04</rscale>
<asrwt>0</asrwt>
<pdfrwt beam="1">  1        2 0.32114558E+00 0.17952734E+04</pdfrwt>
<pdfrwt beam="2">  1       -2 0.59384419E-01 0.17952734E+04</pdfrwt>
<totfact> 0.14930200E+01</totfact>
</mgrwt>
</event>
<event>
12    1  0.1397649E-007  0.1445312E+04  0.7818608E-02  0.8921657E-01
          2   -1    0    0  501    0  0.00000000000E+00  0.00000000000E+00  0.13829975734E+04  0.13829975734E+04  0.00000000000E+00 0. -1.
         -2   -1    0    0    0  501 -0.00000000000E+00 -0.00000000000E+00 -0.37760860528E+03  0.37760860528E+03  0.00000000000E+00 0.  1.
         23    2    1    2    0    0 -0.18005656845E+03  0.73261552934E+02  0.84654696928E+03  0.87325143955E+03  0.90214646790E+02 0.  0.
        254    2    1    2    0    0  0.18005656845E+03 -0.73261552934E+02  0.15884199888E+03  0.88735473917E+03  0.85110518125E+03 0.  0.
        -24    2    4    4    0    0  0.34757888900E+03 -0.35930746016E+03  0.19934730093E+03  0.54412577869E+03  0.80128532003E+02 0.  0.
         24    2    4    4    0    0 -0.16752232055E+03  0.28604590723E+03 -0.40505302055E+02  0.34322896048E+03  0.79242986410E+02 0.  0.
         11    1    3    3    0    0 -0.12607992752E+03  0.52552076785E+01  0.45351311960E+03  0.47074187723E+03  0.00000000000E+00 0. -1.
        -11    1    3    3    0    0 -0.53976640931E+02  0.68006345255E+02  0.39303384968E+03  0.40250956231E+03  0.00000000000E+00 0.  1.
          2    1    6    6  502    0 -0.54379457181E+02  0.37451328193E+02  0.54743214650E+01  0.66254777504E+02  0.00000000000E+00 0. -1.
          1    1    5    5  503    0  0.36739542640E+02 -0.81254459643E+02  0.31815187504E+02  0.94679920581E+02  0.00000000000E+00 0. -1.
         -2    1    5    5    0  503  0.31083934636E+03 -0.27805300052E+03  0.16753211343E+03  0.44944585811E+03  0.00000000000E+00 0.  1.
         -1    1    6    6    0  502 -0.11314286336E+03  0.24859457904E+03 -0.45979623520E+02  0.27697418298E+03  0.00000000000E+00 0.  1.
<mgrwt>
<rscale>  0 0.14453121E+04</rscale>
<asrwt>0</asrwt>
<pdfrwt beam="1">  1        2 0.21276886E+00 0.14453121E+04</pdfrwt>
<pdfrwt beam="2">  1       -2 0.58093632E-01 0.14453121E+04</pdfrwt>
<totfact> 0.39801127E+01</totfact>
</mgrwt>
</event>
<event>
12    1  0.1397649E-007  0.1639547E+04  0.7818608E-02  0.8796614E-01
          2   -1    0    0  501    0  0.00000000000E+00  0.00000000000E+00  0.76952003916E+03  0.76952003916E+03  0.00000000000E+00 0. -1.
         -2   -1    0    0    0  501 -0.00000000000E+00 -0.00000000000E+00 -0.87330900221E+03  0.87330900221E+03  0.00000000000E+00 0.  1.
         23    2    1    2    0    0  0.27507357984E+03 -0.11626874700E+03  0.44955834117E+03  0.54700753372E+03  0.89054163214E+02 0.  0.
        254    2    1    2    0    0 -0.27507357984E+03  0.11626874700E+03 -0.55334730422E+03  0.10958215076E+04  0.89746734853E+03 0.  0.
        -24    2    4    4    0    0  0.31820710706E+03  0.11328651041E+03 -0.20702762940E+03  0.40410275558E+03  0.79680620659E+02 0.  0.
         24    2    4    4    0    0 -0.59328068690E+03  0.29822365913E+01 -0.34631967482E+03  0.69171875207E+03  0.80911356501E+02 0.  0.
         13    1    3    3    0    0  0.27603112066E+03 -0.99903246537E+02  0.43659722068E+03  0.52610927700E+03  0.00000000000E+00 0. -1.
        -13    1    3    3    0    0 -0.95754082093E+00 -0.16365500464E+02  0.12961120488E+02  0.20898256726E+02  0.00000000000E+00 0.  1.
          2    1    6    6  502    0 -0.17903711192E+03  0.23612237901E+02 -0.71779522143E+02  0.19432993856E+03  0.00000000000E+00 0. -1.
          1    1    5    5  503    0  0.26243869419E+02  0.55590660536E+01  0.53277679372E+01  0.27350118988E+02  0.00000000000E+00 0. -1.
         -2    1    5    5    0  503  0.29196323764E+03  0.10772744436E+03 -0.21235539734E+03  0.37675263660E+03  0.00000000000E+00 0.  1.
         -1    1    6    6    0  502 -0.41424357498E+03 -0.20630001310E+02 -0.27454015268E+03  0.49738881350E+03  0.00000000000E+00 0.  1.
<mgrwt>
<rscale>  0 0.16395472E+04</rscale>
<asrwt>0</asrwt>
<pdfrwt beam="1">  1        2 0.11838770E+00 0.16395472E+04</pdfrwt>
<pdfrwt beam="2">  1       -2 0.13435523E+00 0.16395472E+04</pdfrwt>
<totfact> 0.13841548E+01</totfact>
</mgrwt>
</event>
<event>
12    1  0.1397649E-007  0.1341389E+04  0.7818608E-02  0.8997372E-01
         -2   -1    0    0    0  501 -0.00000000000E+00  0.00000000000E+00  0.10491957418E+03  0.10491957418E+03  0.00000000000E+00 0.  1.
          2   -1    0    0  501    0  0.00000000000E+00 -0.00000000000E+00 -0.42873915905E+04  0.42873915905E+04  0.00000000000E+00 0. -1.
         23    2    1    2    0    0 -0.50134808092E+01 -0.40153918821E+02 -0.21735750797E+04  0.21758478833E+04  0.90818017852E+02 0.  0.
        254    2    1    2    0    0  0.50134808092E+01  0.40153918821E+02 -0.20088969367E+04  0.22164632814E+04  0.93563085839E+03 0.  0.
        -24    2    4    4    0    0 -0.10976594898E+03 -0.33602288940E+03 -0.16107799649E+04  0.16510954126E+04  0.80895120677E+02 0.  0.
         24    2    4    4    0    0  0.11477942979E+03  0.37617680822E+03 -0.39811697183E+03  0.56536786876E+03  0.80376583780E+02 0.  0.
         11    1    3    3    0    0 -0.89086518458E+01 -0.45521038466E+02 -0.21620765620E+04  0.21625740655E+04  0.00000000000E+00 0. -1.
        -11    1    3    3    0    0  0.38951710366E+01  0.53671196455E+01 -0.11498517662E+02  0.13273817805E+02  0.00000000000E+00 0.  1.
          2    1    6    6  502    0  0.14138397845E+02  0.18294343663E+03 -0.17685972680E+03  0.25484810822E+03  0.00000000000E+00 0. -1.
          1    1    5    5  503    0 -0.62693813610E+02 -0.28451553278E+03 -0.13551278009E+04  0.13860919736E+04  0.00000000000E+00 0. -1.
         -2    1    5    5    0  503 -0.47072135366E+02 -0.51507356623E+02 -0.25565216397E+03  0.26500343895E+03  0.00000000000E+00 0.  1.
         -1    1    6    6    0  502  0.10064103194E+03  0.19323337159E+03 -0.22125724503E+03  0.31051976054E+03  0.00000000000E+00 0.  1.
<mgrwt>
<rscale>  0 0.13413893E+04</rscale>
<asrwt>0</asrwt>
<pdfrwt beam="1">  1        2 0.65959865E+00 0.13413893E+04</pdfrwt>
<pdfrwt beam="2">  1       -2 0.16141474E-01 0.13413893E+04</pdfrwt>
<totfact> 0.61341553E+00</totfact>
</mgrwt>
</event>
<event>
12    1  0.1397649E-007  0.2411450E+04  0.7818608E-02  0.8435229E-01
         -1   -1    0    0    0  501 -0.00000000000E+00  0.00000000000E+00  0.51258318514E+03  0.51258318514E+03  0.00000000000E+00 0.  1.
          1   -1    0    0  501    0  0.00000000000E+00 -0.00000000000E+00 -0.28361705552E+04  0.28361705552E+04  0.00000000000E+00 0. -1.
         23    2    1    2    0    0 -0.34357117681E+03 -0.92225696559E+03 -0.48580083182E+03  0.11013235633E+04  0.91170602343E+02 0.  0.
        254    2    1    2    0    0  0.34357117681E+03  0.92225696559E+03 -0.18377865382E+04  0.22474301771E+04  0.83957368736E+03 0.  0.
        -24    2    4    4    0    0 -0.14431751472E+03  0.17033547457E+03 -0.44999160346E+02  0.24150572823E+03  0.80364005545E+02 0.  0.
         24    2    4    4    0    0  0.48788869153E+03  0.75192149103E+03 -0.17927873779E+04  0.20059244488E+04  0.78898720425E+02 0.  0.
         11    1    3    3    0    0 -0.22359047155E+03 -0.49061618712E+03 -0.23804859488E+03  0.58937600524E+03  0.00000000000E+00 0.  1.
        -11    1    3    3    0    0 -0.11998070525E+03 -0.43164077847E+03 -0.24775223695E+03  0.51194755804E+03  0.00000000000E+00 0. -1.
          4    1    6    6  502    0  0.47349118527E+03  0.73360478789E+03 -0.17113583054E+04  0.19212280283E+04  0.00000000000E+00 0. -1.
          1    1    5    5  503    0 -0.74244209323E+02  0.14272444983E+03 -0.41305957850E+02  0.16609832435E+03  0.00000000000E+00 0. -1.
         -2    1    5    5    0  503 -0.70073305395E+02  0.27611024736E+02 -0.36932024959E+01  0.75407403885E+02  0.00000000000E+00 0.  1.
         -3    1    6    6    0  502  0.14397506258E+02  0.18316703141E+02 -0.81429072456E+02  0.84696420476E+02  0.00000000000E+00 0.  1.
<mgrwt>
<rscale>  0 0.24114505E+04</rscale>
<asrwt>0</asrwt>
<pdfrwt beam="1">  1        1 0.43633392E+00 0.24114505E+04</pdfrwt>
<pdfrwt beam="2">  1       -1 0.78858954E-01 0.24114505E+04</pdfrwt>
<totfact> 0.11305877E+00</totfact>
</mgrwt>
</event>
<event>
12    1  0.1397649E-007  0.2689007E+04  0.7818608E-02  0.8338581E-01
         -2   -1    0    0    0  501 -0.00000000000E+00  0.00000000000E+00  0.70972567541E+03  0.70972567541E+03  0.00000000000E+00 0.  1.
          2   -1    0    0  501    0  0.00000000000E+00 -0.00000000000E+00 -0.25470260818E+04  0.25470260818E+04  0.00000000000E+00 0. -1.
         23    2    1    2    0    0 -0.11209466274E+04  0.38538377184E+03 -0.64046387792E+03  0.13500953168E+04  0.86725962036E+02 0.  0.
        254    2    1    2    0    0  0.11209466274E+04 -0.38538377184E+03 -0.11968365284E+04  0.19066564403E+04  0.89324079207E+03 0.  0.
        -24    2    4    4    0    0  0.56574753488E+03  0.22789614836E+03 -0.72398433047E+03  0.95003936768E+03  0.80090958988E+02 0.  0.
         24    2    4    4    0    0  0.55519909253E+03 -0.61327992020E+03 -0.47285219797E+03  0.95661707267E+03  0.84668351424E+02 0.  0.
         13    1    3    3    0    0 -0.93940806063E+03  0.30599904847E+03 -0.56457419582E+03  0.11379222050E+04  0.00000000000E+00 0. -1.
        -13    1    3    3    0    0 -0.18153856678E+03  0.79384723368E+02 -0.75889682102E+02  0.21217311183E+03  0.00000000000E+00 0.  1.
          2    1    6    6  502    0  0.10319304081E+03 -0.10103384489E+03 -0.11970829710E+03  0.18758123008E+03  0.00000000000E+00 0. -1.
          3    1    5    5  503    0  0.20441671569E+03  0.57983569913E+02 -0.20521406492E+03  0.29539989924E+03  0.00000000000E+00 0. -1.
         -4    1    5    5    0  503  0.36133081920E+03  0.16991257845E+03 -0.51877026555E+03  0.65463946844E+03  0.00000000000E+00 0.  1.
         -1    1    6    6    0  502  0.45200605172E+03 -0.51224607531E+03 -0.35314390087E+03  0.76903584259E+03  0.00000000000E+00 0.  1.
<mgrwt>
<rscale>  0 0.26890071E+04</rscale>
<asrwt>0</asrwt>
<pdfrwt beam="1">  1        2 0.39185015E+00 0.26890071E+04</pdfrwt>
<pdfrwt beam="2">  1       -2 0.10918857E+00 0.26890071E+04</pdfrwt>
<totfact> 0.19193157E+00</totfact>
</mgrwt>
</event>
<event>
12    1  0.1397649E-007  0.1349928E+04  0.7818608E-02  0.8990882E-01
         -1   -1    0    0    0  501 -0.00000000000E+00  0.00000000000E+00  0.89883223344E+03  0.89883223344E+03  0.00000000000E+00 0. -1.
          1   -1    0    0  501    0  0.00000000000E+00 -0.00000000000E+00 -0.50685377426E+03  0.50685377426E+03  0.00000000000E+00 0.  1.
         23    2    1    2    0    0 -0.14832157584E+03  0.17876867749E+03 -0.19039870096E+03  0.31408901196E+03  0.91884232563E+02 0.  0.
        254    2    1    2    0    0  0.14832157584E+03 -0.17876867749E+03  0.58237716013E+03  0.10915969957E+04  0.89356774480E+03 0.  0.
        -24    2    4    4    0    0 -0.31056809840E+03  0.88403307794E+01  0.48229054120E+03  0.57938468372E+03  0.80942883589E+02 0.  0.
         24    2    4    4    0    0  0.45888967423E+03 -0.18760900827E+03  0.10008661893E+03  0.51221231202E+03  0.81038559940E+02 0.  0.
         11    1    3    3    0    0 -0.86971818830E+02  0.12420759436E+03 -0.17321806740E+03  0.23020886742E+03  0.00000000000E+00 0.  1.
        -11    1    3    3    0    0 -0.61349757007E+02  0.54561083132E+02 -0.17180633561E+02  0.83880144533E+02  0.00000000000E+00 0. -1.
          4    1    6    6  502    0  0.34557313065E+03 -0.11894203521E+03  0.10291651318E+03  0.37968382248E+03  0.00000000000E+00 0. -1.
          1    1    5    5  503    0 -0.19940888473E+03  0.28141641118E+02  0.36348398059E+03  0.41554357103E+03  0.00000000000E+00 0. -1.
         -2    1    5    5    0  503 -0.11115921367E+03 -0.19301310339E+02  0.11880656061E+03  0.16384111269E+03  0.00000000000E+00 0.  1.
         -3    1    6    6    0  502  0.11331654359E+03 -0.68666973068E+02 -0.28298942510E+01  0.13252848955E+03  0.00000000000E+00 0.  1.
<mgrwt>
<rscale>  0 0.13499282E+04</rscale>
<asrwt>0</asrwt>
<pdfrwt beam="1">  1        1 0.77977504E-01 0.13499282E+04</pdfrwt>
<pdfrwt beam="2">  1       -1 0.13828188E+00 0.13499282E+04</pdfrwt>
<totfact> 0.18433553E+01</totfact>
</mgrwt>
</event>
<event>
12    1  0.1397649E-007  0.1402698E+04  0.7818608E-02  0.8951868E-01
         -2   -1    0    0    0  501 -0.00000000000E+00  0.00000000000E+00  0.26409856616E+03  0.26409856616E+03  0.00000000000E+00 0.  1.
          2   -1    0    0  501    0  0.00000000000E+00 -0.00000000000E+00 -0.18625251956E+04  0.18625251956E+04  0.00000000000E+00 0. -1.
         23    2    1    2    0    0  0.13387326083E+03 -0.15136787834E+03  0.55916813519E+02  0.22941240880E+03  0.93107887540E+02 0.  0.
        254    2    1    2    0    0 -0.13387326083E+03  0.15136787834E+03 -0.16543434429E+04  0.18972113529E+04  0.90649015768E+03 0.  0.
        -24    2    4    4    0    0 -0.47874059311E+03  0.23728912020E+03 -0.11917513039E+04  0.13083927807E+04  0.78242035528E+02 0.  0.
         24    2    4    4    0    0  0.34486733228E+03 -0.85921241864E+02 -0.46259213904E+03  0.58881857227E+03  0.79999295410E+02 0.  0.
         13    1    3    3    0    0  0.11792627291E+03 -0.79518501325E+02  0.62829513159E+02  0.15549066088E+03  0.00000000000E+00 0.  1.
        -13    1    3    3    0    0  0.15946987919E+02 -0.71849377011E+02 -0.69126996396E+01  0.73921747929E+02  0.00000000000E+00 0. -1.
          2    1    6    6  502    0  0.33196009987E+03 -0.94151509674E+02 -0.42003045167E+03  0.54358770682E+03  0.00000000000E+00 0. -1.
          3    1    5    5  503    0 -0.47358338982E+03  0.22561079266E+03 -0.11370832194E+04  0.12522538499E+04  0.00000000000E+00 0. -1.
         -4    1    5    5    0  503 -0.51572032864E+01  0.11678327536E+02 -0.54668084506E+02  0.56138930728E+02  0.00000000000E+00 0.  1.
         -1    1    6    6    0  502  0.12907232406E+02  0.82302678098E+01 -0.42561687374E+02  0.45230865443E+02  0.00000000000E+00 0.  1.
<mgrwt>
<rscale>  0 0.14026977E+04</rscale>
<asrwt>0</asrwt>
<pdfrwt beam="1">  1        2 0.28654235E+00 0.14026977E+04</pdfrwt>
<pdfrwt beam="2">  1       -2 0.40630547E-01 0.14026977E+04</pdfrwt>
<totfact> 0.44468121E+01</totfact>
</mgrwt>
</event>
<event>
12    1  0.1397649E-007  0.1369786E+04  0.7818608E-02  0.8975984E-01
         -2   -1    0    0    0  501 -0.00000000000E+00  0.00000000000E+00  0.36278206171E+03  0.36278206171E+03  0.00000000000E+00 0.  1.
          2   -1    0    0  501    0  0.00000000000E+00 -0.00000000000E+00 -0.12930027540E+04  0.12930027540E+04  0.00000000000E+00 0. -1.
         23    2    1    2    0    0 -0.20242895248E+02 -0.27351697756E+03 -0.59821825364E+03  0.66470758298E+03  0.93540259040E+02 0.  0.
        254    2    1    2    0    0  0.20242895248E+02  0.27351697756E+03 -0.33200243869E+03  0.99107723276E+03  0.89262934647E+03 0.  0.
        -24    2    4    4    0    0 -0.25393435163E+03 -0.17684190365E+03  0.65260414984E+02  0.32591772768E+03  0.78789146623E+02 0.  0.
         24    2    4    4    0    0  0.27417724688E+03  0.45035888121E+03 -0.39726285367E+03  0.66515950509E+03  0.81382477896E+02 0.  0.
         11    1    3    3    0    0 -0.16910328676E+01 -0.48998357218E+02 -0.41854590377E+02  0.64463209181E+02  0.00000000000E+00 0.  1.
        -11    1    3    3    0    0 -0.18551862381E+02 -0.22451862034E+03 -0.55636366327E+03  0.60024437380E+03  0.00000000000E+00 0. -1.
          4    1    6    6  502    0  0.11061868571E+03  0.11490023024E+03 -0.13581058986E+03  0.20948287007E+03  0.00000000000E+00 0. -1.
          3    1    5    5  503    0 -0.95404267441E+02 -0.10486199464E+03  0.56157078433E+01  0.14187863948E+03  0.00000000000E+00 0. -1.
         -4    1    5    5    0  503 -0.15853008419E+03 -0.71979909006E+02  0.59644707140E+02  0.18403908820E+03  0.00000000000E+00 0.  1.
         -3    1    6    6    0  502  0.16355856117E+03  0.33545865097E+03 -0.26145226382E+03  0.45567663501E+03  0.00000000000E+00 0.  1.
<mgrwt>
<rscale>  0 0.13697857E+04</rscale>
<asrwt>0</asrwt>
<pdfrwt beam="1">  1        2 0.19892350E+00 0.13697857E+04</pdfrwt>
<pdfrwt beam="2">  1       -2 0.55812624E-01 0.13697857E+04</pdfrwt>
<totfact> 0.49076097E+01</totfact>
</mgrwt>
</event>
<event>
12    1  0.1397649E-007  0.2121111E+04  0.7818608E-02  0.8552001E-01
         -2   -1    0    0    0  501 -0.00000000000E+00  0.00000000000E+00  0.87883215014E+03  0.87883215014E+03  0.00000000000E+00 0.  1.
          2   -1    0    0  501    0  0.00000000000E+00 -0.00000000000E+00 -0.12798550376E+04  0.12798550376E+04  0.00000000000E+00 0. -1.
         23    2    1    2    0    0  0.46707834350E+01  0.84163069491E+03 -0.38352655923E+03  0.92938718786E+03  0.91125630338E+02 0.  0.
        254    2    1    2    0    0 -0.46707834350E+01 -0.84163069491E+03 -0.17496328247E+02  0.12292999999E+04  0.89582829012E+03 0.  0.
        -24    2    4    4    0    0 -0.60631117184E+02 -0.26923213568E+03 -0.43000008597E+03  0.51702920407E+03  0.79101508711E+02 0.  0.
         24    2    4    4    0    0  0.55960333749E+02 -0.57239855923E+03  0.41250375772E+03  0.71227079581E+03  0.79991667521E+02 0.  0.
         13    1    3    3    0    0  0.33252376781E+02  0.34574529236E+03 -0.12280895227E+03  0.36841222361E+03  0.00000000000E+00 0.  1.
        -13    1    3    3    0    0 -0.28581593346E+02  0.49588540255E+03 -0.26071760696E+03  0.56097496425E+03  0.00000000000E+00 0. -1.
          4    1    6    6  502    0  0.24087115138E+02 -0.11767654706E+03  0.51037159196E+02  0.13050957997E+03  0.00000000000E+00 0. -1.
          1    1    5    5  503    0 -0.64602928078E+02 -0.15755519963E+03 -0.21078745595E+03  0.27097699318E+03  0.00000000000E+00 0. -1.
         -2    1    5    5    0  503  0.39718108939E+01 -0.11167693605E+03 -0.21921263002E+03  0.24605221090E+03  0.00000000000E+00 0.  1.
         -3    1    6    6    0  502  0.31873218611E+02 -0.45472201216E+03  0.36146659852E+03  0.58176121584E+03  0.00000000000E+00 0.  1.
<mgrwt>
<rscale>  0 0.21211108E+04</rscale>
<asrwt>0</asrwt>
<pdfrwt beam="1">  1        2 0.19690078E+00 0.21211108E+04</pdfrwt>
<pdfrwt beam="2">  1       -2 0.13520495E+00 0.21211108E+04</pdfrwt>
<totfact> 0.61420707E+00</totfact>
</mgrwt>
</event>
<event>
12    1  0.1397649E-007  0.2159697E+04  0.7818608E-02  0.8535393E-01
          2   -1    0    0  501    0  0.00000000000E+00  0.00000000000E+00  0.15623856483E+04  0.15623856483E+04  0.00000000000E+00 0. -1.
         -2   -1    0    0    0  501 -0.00000000000E+00 -0.00000000000E+00 -0.74634145682E+03  0.74634145682E+03  0.00000000000E+00 0.  1.
         23    2    1    2    0    0  0.74850084377E+03  0.18954943037E+03 -0.13930314650E+03  0.78990432010E+03  0.91438332327E+02 0.  0.
        254    2    1    2    0    0 -0.74850084377E+03 -0.18954943037E+03  0.95534733801E+03  0.15188227850E+04  0.89328137587E+03 0.  0.
        -24    2    4    4    0    0 -0.79814850055E+03  0.83493081194E+02  0.92673156281E+03  0.12284934680E+04  0.79703751173E+02 0.  0.
         24    2    4    4    0    0  0.49647656783E+02 -0.27304251156E+03  0.28615775196E+02  0.29032931702E+03  0.80343928109E+02 0.  0.
         11    1    3    3    0    0  0.50471865766E+03  0.99331456887E+02 -0.58617425941E+02  0.51772933502E+03  0.00000000000E+00 0. -1.
        -11    1    3    3    0    0  0.24378218611E+03  0.90217973482E+02 -0.80685720557E+02  0.27217498509E+03  0.00000000000E+00 0.  1.
          4    1    6    6  502    0  0.57382593454E+02 -0.10227694944E+03  0.17308037736E+01  0.11728739105E+03  0.00000000000E+00 0. -1.
          3    1    5    5  503    0 -0.27405496555E+03  0.55157148445E+02  0.36439484528E+03  0.45927338093E+03  0.00000000000E+00 0. -1.
         -4    1    5    5    0  503 -0.52409353500E+03  0.28335932749E+02  0.56233671753E+03  0.76922008710E+03  0.00000000000E+00 0.  1.
         -3    1    6    6    0  502 -0.77349366703E+01 -0.17076556213E+03  0.26884971422E+02  0.17304192597E+03  0.00000000000E+00 0.  1.
<mgrwt>
<rscale>  0 0.21596974E+04</rscale>
<asrwt>0</asrwt>
<pdfrwt beam="1">  1        2 0.24036702E+00 0.21596974E+04</pdfrwt>
<pdfrwt beam="2">  1       -2 0.11482176E+00 0.21596974E+04</pdfrwt>
<totfact> 0.63554316E+00</totfact>
</mgrwt>
</event>
<event>
12    1  0.1397649E-007  0.1592679E+04  0.7818608E-02  0.8825058E-01
         -2   -1    0    0    0  501 -0.00000000000E+00  0.00000000000E+00  0.41473522434E+03  0.41473522434E+03  0.00000000000E+00 0.  1.
          2   -1    0    0  501    0  0.00000000000E+00 -0.00000000000E+00 -0.15290635911E+04  0.15290635911E+04  0.00000000000E+00 0. -1.
         23    2    1    2    0    0 -0.51153582839E+02  0.18386892347E+03  0.22336826145E+03  0.30809263576E+03  0.92753554839E+02 0.  0.
        254    2    1    2    0    0  0.51153582839E+02 -0.18386892347E+03 -0.13376966282E+04  0.16357061797E+04  0.92177978229E+03 0.  0.
        -24    2    4    4    0    0  0.45386410977E+03 -0.16049648351E+03 -0.47701052369E+03  0.68205660149E+03  0.76879233643E+02 0.  0.
         24    2    4    4    0    0 -0.40271052693E+03 -0.23372439958E+02 -0.86068610450E+03  0.95364957817E+03  0.77103229567E+02 0.  0.
         11    1    3    3    0    0 -0.71906395709E+02  0.12494124180E+03  0.12119497412E+03  0.18833232701E+03  0.00000000000E+00 0. -1.
        -11    1    3    3    0    0  0.20752812869E+02  0.58927681669E+02  0.10217328733E+03  0.11976030875E+03  0.00000000000E+00 0.  1.
          2    1    6    6  502    0 -0.55181444871E+02 -0.11503514907E+02 -0.69972342501E+02  0.89852386882E+02  0.00000000000E+00 0. -1.
          3    1    5    5  503    0  0.75413561833E+01 -0.87562899057E+01 -0.31034197993E+02  0.33115949497E+02  0.00000000000E+00 0. -1.
         -2    1    5    5    0  503  0.44632275359E+03 -0.15174019361E+03 -0.44597632570E+03  0.64894065199E+03  0.00000000000E+00 0.  1.
         -1    1    6    6    0  502 -0.34752908206E+03 -0.11868925051E+02 -0.79071376200E+03  0.86379719129E+03  0.00000000000E+00 0.  1.
<mgrwt>
<rscale>  0 0.15926789E+04</rscale>
<asrwt>0</asrwt>
<pdfrwt beam="1">  1        2 0.23524055E+00 0.15926789E+04</pdfrwt>
<pdfrwt beam="2">  1       -2 0.63805419E-01 0.15926789E+04</pdfrwt>
<totfact> 0.26641760E+01</totfact>
</mgrwt>
</event>
<event>
12    1  0.1397649E-007  0.1917261E+04  0.7818608E-02  0.8646312E-01
         -2   -1    0    0    0  501 -0.00000000000E+00  0.00000000000E+00  0.41944266909E+03  0.41944266909E+03  0.00000000000E+00 0.  1.
          2   -1    0    0  501    0  0.00000000000E+00 -0.00000000000E+00 -0.21909374893E+04  0.21909374893E+04  0.00000000000E+00 0. -1.
         23    2    1    2    0    0  0.10822757038E+03 -0.43137627094E+03 -0.15367772818E+04  0.16023424159E+04  0.89543898351E+02 0.  0.
        254    2    1    2    0    0 -0.10822757038E+03  0.43137627094E+03 -0.23471753840E+03  0.10080377425E+04  0.87364127270E+03 0.  0.
        -24    2    4    4    0    0  0.88651568899E+02  0.63762740673E+03 -0.28333160217E+03  0.70788440930E+03  0.79973305915E+02 0.  0.
         24    2    4    4    0    0 -0.19687913928E+03 -0.20625113579E+03  0.48614063770E+02  0.30015333321E+03  0.80173373011E+02 0.  0.
         11    1    3    3    0    0  0.28261706277E+02 -0.38937471763E+02 -0.10307968194E+03  0.11375531450E+03  0.00000000000E+00 0.  1.
        -11    1    3    3    0    0  0.79965864103E+02 -0.39243879918E+03 -0.14336975998E+04  0.14885871014E+04  0.00000000000E+00 0. -1.
          2    1    6    6  502    0  0.45351364511E+01 -0.16914003906E+02  0.12173072098E+02  0.21326853380E+02  0.00000000000E+00 0. -1.
          1    1    5    5  503    0  0.19505132268E+02  0.35300331349E+03 -0.18428041646E+03  0.39868667072E+03  0.00000000000E+00 0. -1.
         -2    1    5    5    0  503  0.69146436631E+02  0.28462409324E+03 -0.99051185711E+02  0.30919773858E+03  0.00000000000E+00 0.  1.
         -1    1    6    6    0  502 -0.20141427573E+03 -0.18933713188E+03  0.36440991672E+02  0.27882647983E+03  0.00000000000E+00 0.  1.
<mgrwt>
<rscale>  0 0.19172612E+04</rscale>
<asrwt>0</asrwt>
<pdfrwt beam="1">  1        2 0.33706731E+00 0.19172612E+04</pdfrwt>
<pdfrwt beam="2">  1       -2 0.64529641E-01 0.19172612E+04</pdfrwt>
<totfact> 0.10837279E+01</totfact>
</mgrwt>
</event>
<event>
12    1  0.1397649E-007  0.2770645E+04  0.7818608E-02  0.8312440E-01
         -2   -1    0    0    0  501 -0.00000000000E+00  0.00000000000E+00  0.56955522614E+03  0.56955522614E+03  0.00000000000E+00 0.  1.
          2   -1    0    0  501    0  0.00000000000E+00 -0.00000000000E+00 -0.33695037336E+04  0.33695037336E+04  0.00000000000E+00 0. -1.
         23    2    1    2    0    0  0.43921125886E+03 -0.56675217989E+03 -0.26851908483E+04  0.27807925886E+04  0.91885610440E+02 0.  0.
        254    2    1    2    0    0 -0.43921125886E+03  0.56675217989E+03 -0.11475765912E+03  0.11582663711E+04  0.90238412157E+03 0.  0.
        -24    2    4    4    0    0  0.18083975613E+03 -0.11217319825E+02 -0.22499091371E+03  0.29982182934E+03  0.80270619997E+02 0.  0.
         24    2    4    4    0    0 -0.62005101500E+03  0.57796949972E+03  0.11023325460E+03  0.85844454180E+03  0.79143269608E+02 0.  0.
         13    1    3    3    0    0  0.36068787124E+03 -0.49194813736E+03 -0.21578274364E+04  0.22423933543E+04  0.00000000000E+00 0. -1.
        -13    1    3    3    0    0  0.78523387624E+02 -0.74804042527E+02 -0.52736341195E+03  0.53839923426E+03  0.00000000000E+00 0.  1.
          4    1    6    6  502    0 -0.51109453400E+03  0.51461537890E+03  0.95399553740E+02  0.73153789084E+03  0.00000000000E+00 0. -1.
          3    1    5    5  503    0  0.32875326265E+02 -0.29106086853E+02 -0.25408043509E+02  0.50729873288E+02  0.00000000000E+00 0. -1.
         -4    1    5    5    0  503  0.14796442987E+03  0.17888767027E+02 -0.19958287021E+03  0.24909195606E+03  0.00000000000E+00 0.  1.
         -3    1    6    6    0  502 -0.10895648100E+03  0.63354120813E+02  0.14833700856E+02  0.12690665095E+03  0.00000000000E+00 0.  1.
<mgrwt>
<rscale>  0 0.27706450E+04</rscale>
<asrwt>0</asrwt>
<pdfrwt beam="1">  1        2 0.51838520E+00 0.27706450E+04</pdfrwt>
<pdfrwt beam="2">  1       -2 0.87623879E-01 0.27706450E+04</pdfrwt>
<totfact> 0.98027893E-01</totfact>
</mgrwt>
</event>
<event>
12    1  0.1557911E-007  0.1990535E+04  0.7818608E-02  0.8611058E-01
          1   -1    0    0  501    0  0.00000000000E+00  0.00000000000E+00  0.17969080116E+04  0.17969080116E+04  0.00000000000E+00 0. -1.
         -1   -1    0    0    0  501 -0.00000000000E+00 -0.00000000000E+00 -0.55125683833E+03  0.55125683833E+03  0.00000000000E+00 0.  1.
         23    2    1    2    0    0  0.92676247791E+02 -0.53175006033E+03 -0.17898226087E+03  0.57535870330E+03  0.87498423942E+02 0.  0.
        254    2    1    2    0    0 -0.92676247791E+02  0.53175006033E+03  0.14246334342E+04  0.17728061466E+04  0.90659483689E+03 0.  0.
        -24    2    4    4    0    0 -0.39949415174E+02 -0.37104400764E+01 -0.11313873999E+03  0.14169415322E+03  0.75280378795E+02 0.  0.
         24    2    4    4    0    0 -0.52726832617E+02  0.53546050040E+03  0.15377721741E+04  0.16311119934E+04  0.79278049567E+02 0.  0.
         13    1    3    3    0    0  0.54088593633E+02 -0.24515604361E+03 -0.12771123082E+03  0.28166863538E+03  0.00000000000E+00 0.  1.
        -13    1    3    3    0    0  0.38587654158E+02 -0.28659401672E+03 -0.51271030055E+02  0.29369006792E+03  0.00000000000E+00 0. -1.
          4    1    6    6  502    0 -0.69949568980E+01  0.39291860639E+02  0.64373590850E+02  0.75741263083E+02  0.00000000000E+00 0. -1.
          3    1    5    5  503    0 -0.31404282462E+01  0.17590409386E+02  0.29048539163E+01  0.18103120400E+02  0.00000000000E+00 0. -1.
         -4    1    5    5    0  503 -0.36808986928E+02 -0.21300849463E+02 -0.11604359390E+03  0.12359103282E+03  0.00000000000E+00 0.  1.
         -3    1    6    6    0  502 -0.45731875719E+02  0.49616863976E+03  0.14733985833E+04  0.15553707303E+04  0.00000000000E+00 0.  1.
<mgrwt>
<rscale>  0 0.19905354E+04</rscale>
<asrwt>0</asrwt>
<pdfrwt beam="1">  1        1 0.27644738E+00 0.19905354E+04</pdfrwt>
<pdfrwt beam="2">  1       -1 0.84808745E-01 0.19905354E+04</pdfrwt>
<totfact> 0.52284411E+00</totfact>
</mgrwt>
</event>
<event>
12    1  0.1397649E-007  0.1799945E+04  0.7818608E-02  0.8706329E-01
         -2   -1    0    0    0  501 -0.00000000000E+00  0.00000000000E+00  0.31303947327E+03  0.31303947327E+03  0.00000000000E+00 0.  1.
          2   -1    0    0  501    0  0.00000000000E+00 -0.00000000000E+00 -0.25873750519E+04  0.25873750519E+04  0.00000000000E+00 0. -1.
         23    2    1    2    0    0  0.46346139083E+03 -0.16355732412E+03 -0.11916075529E+03  0.51378652570E+03  0.90718516996E+02 0.  0.
        254    2    1    2    0    0 -0.46346139083E+03  0.16355732412E+03 -0.21551748233E+04  0.23866279995E+04  0.89981510859E+03 0.  0.
        -24    2    4    4    0    0  0.19675671401E+02 -0.13910148466E+03 -0.15229420343E+04  0.15315740637E+04  0.81426761906E+02 0.  0.
         24    2    4    4    0    0 -0.48313706224E+03  0.30265880878E+03 -0.63223278899E+03  0.85505393577E+03  0.79844587554E+02 0.  0.
         13    1    3    3    0    0  0.21687631349E+03 -0.71113466626E+02 -0.92464103839E+01  0.22842494739E+03  0.00000000000E+00 0. -1.
        -13    1    3    3    0    0  0.24658507735E+03 -0.92443857493E+02 -0.10991434491E+03  0.28536157831E+03  0.00000000000E+00 0.  1.
          2    1    6    6  502    0 -0.20234581887E+03  0.94071698821E+02 -0.28754184405E+03  0.36396926657E+03  0.00000000000E+00 0. -1.
          1    1    5    5  503    0  0.30632818418E+02 -0.23632555995E+02 -0.62111239780E+03  0.62231622024E+03  0.00000000000E+00 0. -1.
         -4    1    5    5    0  503 -0.10957147016E+02 -0.11546892866E+03 -0.90182963654E+03  0.90925784346E+03  0.00000000000E+00 0.  1.
         -1    1    6    6    0  502 -0.28079124337E+03  0.20858710995E+03 -0.34469094495E+03  0.49108466920E+03  0.00000000000E+00 0.  1.
<mgrwt>
<rscale>  0 0.17999450E+04</rscale>
<asrwt>0</asrwt>
<pdfrwt beam="1">  1        2 0.39805768E+00 0.17999450E+04</pdfrwt>
<pdfrwt beam="2">  1       -2 0.48159922E-01 0.17999450E+04</pdfrwt>
<totfact> 0.11955138E+01</totfact>
</mgrwt>
</event>
<event>
12    1  0.1397649E-007  0.1883199E+04  0.7818608E-02  0.8663265E-01
         -2   -1    0    0    0  501 -0.00000000000E+00  0.00000000000E+00  0.76233641288E+03  0.76233641288E+03  0.00000000000E+00 0.  1.
          2   -1    0    0  501    0  0.00000000000E+00 -0.00000000000E+00 -0.11630166855E+04  0.11630166855E+04  0.00000000000E+00 0. -1.
         23    2    1    2    0    0  0.66473272412E+03  0.18655779235E+02  0.13454228545E+03  0.68445555213E+03  0.90333513490E+02 0.  0.
        254    2    1    2    0    0 -0.66473272412E+03 -0.18655779235E+02 -0.53522255811E+03  0.12408975463E+04  0.90063638672E+03 0.  0.
        -24    2    4    4    0    0 -0.65331788168E+03  0.34768504937E+03 -0.36806928837E+03  0.83050184204E+03  0.80926883782E+02 0.  0.
         24    2    4    4    0    0 -0.11414842439E+02 -0.36634082860E+03 -0.16715326974E+03  0.41039570426E+03  0.78412480897E+02 0.  0.
         11    1    3    3    0    0  0.36182865431E+03  0.56869405695E+01  0.11876371712E+03  0.38086367230E+03  0.00000000000E+00 0.  1.
        -11    1    3    3    0    0  0.30290406981E+03  0.12968838666E+02  0.15778568327E+02  0.30359187983E+03  0.00000000000E+00 0. -1.
          4    1    6    6  502    0 -0.11381140760E+02 -0.60288964280E+01 -0.13593132908E+02  0.18725683416E+02  0.00000000000E+00 0. -1.
          3    1    5    5  503    0 -0.26150902893E+03  0.18448836378E+03 -0.15591522253E+03  0.35599506345E+03  0.00000000000E+00 0. -1.
         -4    1    5    5    0  503 -0.39180885275E+03  0.16319668558E+03 -0.21215406584E+03  0.47450677859E+03  0.00000000000E+00 0.  1.
         -3    1    6    6    0  502 -0.33701678134E-01 -0.36031193217E+03 -0.15356013684E+03  0.39167002084E+03  0.00000000000E+00 0.  1.
<mgrwt>
<rscale>  0 0.18831994E+04</rscale>
<asrwt>0</asrwt>
<pdfrwt beam="1">  1        2 0.17892564E+00 0.18831994E+04</pdfrwt>
<pdfrwt beam="2">  1       -2 0.11728253E+00 0.18831994E+04</pdfrwt>
<totfact> 0.10508383E+01</totfact>
</mgrwt>
</event>
<event>
12    1  0.1397649E-007  0.1548815E+04  0.7818608E-02  0.8852625E-01
          2   -1    0    0  501    0  0.00000000000E+00  0.00000000000E+00  0.23729146377E+04  0.23729146377E+04  0.00000000000E+00 0. -1.
         -2   -1    0    0    0  501 -0.00000000000E+00 -0.00000000000E+00 -0.25272999822E+03  0.25272999822E+03  0.00000000000E+00 0.  1.
         23    2    1    2    0    0 -0.15268682718E+03 -0.45461020569E+03  0.42653633098E+03  0.64804515137E+03  0.89697102838E+02 0.  0.
        254    2    1    2    0    0  0.15268682718E+03  0.45461020569E+03  0.16936483085E+04  0.19775994846E+04  0.90137196659E+03 0.  0.
        -24    2    4    4    0    0  0.19352064456E+03 -0.23719320190E+03  0.42963270514E+03  0.53364892381E+03  0.80536064310E+02 0.  0.
         24    2    4    4    0    0 -0.40833817383E+02  0.69180340758E+03  0.12640156034E+04  0.14439505608E+04  0.83656565744E+02 0.  0.
         13    1    3    3    0    0 -0.87666823458E+02 -0.34997070156E+03  0.35202267950E+03  0.50406837906E+03  0.00000000000E+00 0.  1.
        -13    1    3    3    0    0 -0.65020003719E+02 -0.10463950413E+03  0.74513651484E+02  0.14397677231E+03  0.00000000000E+00 0. -1.
          2    1    6    6  502    0 -0.41747578662E+02  0.13686393272E+03  0.25618971212E+03  0.29344124625E+03  0.00000000000E+00 0. -1.
          1    1    5    5  503    0  0.28627848027E+02 -0.86320249425E+01  0.18399653337E+02  0.35108585562E+02  0.00000000000E+00 0. -1.
         -2    1    5    5    0  503  0.16489279653E+03 -0.22856117695E+03  0.41123305180E+03  0.49854033824E+03  0.00000000000E+00 0.  1.
         -1    1    6    6    0  502  0.91376127891E+00  0.55493947486E+03  0.10078258913E+04  0.11505093145E+04  0.00000000000E+00 0.  1.
<mgrwt>
<rscale>  0 0.15488147E+04</rscale>
<asrwt>0</asrwt>
<pdfrwt beam="1">  1        2 0.36506378E+00 0.15488147E+04</pdfrwt>
<pdfrwt beam="2">  1       -2 0.38881540E-01 0.15488147E+04</pdfrwt>
<totfact> 0.24837286E+01</totfact>
</mgrwt>
</event>
<event>
12    1  0.1397649E-007  0.2026025E+04  0.7818608E-02  0.8594549E-01
         -2   -1    0    0    0  501 -0.00000000000E+00  0.00000000000E+00  0.36521942658E+03  0.36521942658E+03  0.00000000000E+00 0. -1.
          2   -1    0    0  501    0  0.00000000000E+00 -0.00000000000E+00 -0.28098032870E+04  0.28098032870E+04  0.00000000000E+00 0.  1.
         23    2    1    2    0    0  0.32488037466E+03 -0.71374677948E+03 -0.13085935195E+04  0.15283198106E+04  0.91447915797E+02 0.  0.
        254    2    1    2    0    0 -0.32488037466E+03  0.71374677948E+03 -0.11359903410E+04  0.16467029030E+04  0.89787230318E+03 0.  0.
        -24    2    4    4    0    0 -0.55455809736E+03  0.74936483167E+03 -0.80334963111E+03  0.12332199285E+04  0.79865060801E+02 0.  0.
         24    2    4    4    0    0  0.22967772270E+03 -0.35618052185E+02 -0.33264070985E+03  0.41348297448E+03  0.79358845648E+02 0.  0.
         13    1    3    3    0    0  0.13440757628E+03 -0.26058457027E+03 -0.40987997284E+03  0.50395565971E+03  0.00000000000E+00 0. -1.
        -13    1    3    3    0    0  0.19047279838E+03 -0.45316220921E+03 -0.89871354664E+03  0.10243641509E+04  0.00000000000E+00 0.  1.
          4    1    6    6  502    0  0.20961221239E+03 -0.37732252860E+02 -0.33051659271E+03  0.39319488876E+03  0.00000000000E+00 0. -1.
          1    1    5    5  503    0 -0.38353432047E+03  0.53947534493E+03 -0.52424312228E+03  0.84437140763E+03  0.00000000000E+00 0. -1.
         -2    1    5    5    0  503 -0.17102377689E+03  0.20988948674E+03 -0.27910650884E+03  0.38884852087E+03  0.00000000000E+00 0.  1.
         -3    1    6    6    0  502  0.20065510311E+02  0.21142006751E+01 -0.21241171469E+01  0.20288085720E+02  0.00000000000E+00 0.  1.
<mgrwt>
<rscale>  0 0.20260254E+04</rscale>
<asrwt>0</asrwt>
<pdfrwt beam="1">  1        2 0.43227742E+00 0.20260254E+04</pdfrwt>
<pdfrwt beam="2">  1       -2 0.56187605E-01 0.20260254E+04</pdfrwt>
<totfact> 0.62969915E+00</totfact>
</mgrwt>
</event>
<event>
12    1  0.1397649E-007  0.2101100E+04  0.7818608E-02  0.8560759E-01
          1   -1    0    0  501    0  0.00000000000E+00  0.00000000000E+00  0.16340175377E+04  0.16340175377E+04  0.00000000000E+00 0. -1.
         -1   -1    0    0    0  501 -0.00000000000E+00 -0.00000000000E+00 -0.67542428519E+03  0.67542428519E+03  0.00000000000E+00 0.  1.
         23    2    1    2    0    0 -0.56813937231E+03  0.26636663213E+03 -0.24900351942E+03  0.68222756289E+03  0.98479265880E+02 0.  0.
        254    2    1    2    0    0  0.56813937231E+03 -0.26636663213E+03  0.12075967719E+04  0.16272142600E+04  0.89207777425E+03 0.  0.
        -24    2    4    4    0    0  0.38765310578E+03 -0.44029640650E+01  0.21588382305E+02  0.39664399380E+03  0.81031370799E+02 0.  0.
         24    2    4    4    0    0  0.18048626653E+03 -0.26196366806E+03  0.11860083896E+04  0.12305702662E+04  0.80542063726E+02 0.  0.
         13    1    3    3    0    0 -0.53580180897E+03  0.26684993217E+03 -0.21691014851E+03  0.63666512181E+03  0.00000000000E+00 0.  1.
        -13    1    3    3    0    0 -0.32337563335E+02 -0.48330004304E+00 -0.32093370907E+02  0.45562441085E+02  0.00000000000E+00 0. -1.
          4    1    6    6  502    0  0.16555505871E+03 -0.23957025157E+03  0.96649999445E+03  0.10094179621E+04  0.00000000000E+00 0. -1.
          1    1    5    5  503    0  0.30725371980E+03 -0.35392525771E+02  0.78080985161E+01  0.30938397763E+03  0.00000000000E+00 0. -1.
         -2    1    5    5    0  503  0.80399385972E+02  0.30989561706E+02  0.13780283789E+02  0.87260016163E+02  0.00000000000E+00 0.  1.
         -3    1    6    6    0  502  0.14931207827E+02 -0.22393416491E+02  0.21950839517E+03  0.22115230413E+03  0.00000000000E+00 0.  1.
<mgrwt>
<rscale>  0 0.21010998E+04</rscale>
<asrwt>0</asrwt>
<pdfrwt beam="1">  1        1 0.25138731E+00 0.21010998E+04</pdfrwt>
<pdfrwt beam="2">  1       -1 0.10391143E+00 0.21010998E+04</pdfrwt>
<totfact> 0.42413887E+00</totfact>
</mgrwt>
</event>
<event>
12    1  0.1397649E-007  0.2907317E+04  0.7818608E-02  0.8270704E-01
          1   -1    0    0  501    0  0.00000000000E+00  0.00000000000E+00  0.12809113838E+04  0.12809113838E+04  0.00000000000E+00 0. -1.
         -1   -1    0    0    0  501 -0.00000000000E+00 -0.00000000000E+00 -0.16497031429E+04  0.16497031429E+04  0.00000000000E+00 0.  1.
         23    2    1    2    0    0  0.67523017743E+03 -0.23191119770E+02 -0.13015958195E+04  0.14694228719E+04  0.92618997475E+02 0.  0.
        254    2    1    2    0    0 -0.67523017743E+03  0.23191119770E+02  0.93280406032E+03  0.14611916548E+04  0.89915739261E+03 0.  0.
        -24    2    4    4    0    0 -0.49587415684E+03 -0.32768312679E+03  0.21246363095E+03  0.63617916644E+03  0.79471544150E+02 0.  0.
         24    2    4    4    0    0 -0.17935602059E+03  0.35087424656E+03  0.72034042937E+03  0.82501248841E+03  0.80460877587E+02 0.  0.
         13    1    3    3    0    0  0.78386993655E+02  0.30001245882E+01 -0.96417950201E+02  0.12429779822E+03  0.00000000000E+00 0. -1.
        -13    1    3    3    0    0  0.59684318377E+03 -0.26191244359E+02 -0.12051778693E+04  0.13451250737E+04  0.00000000000E+00 0.  1.
          4    1    6    6  502    0  0.48157756660E+00  0.24320607741E+02  0.19452527733E+02  0.31146825088E+02  0.00000000000E+00 0. -1.
          3    1    5    5  503    0 -0.15784095242E+03 -0.14217941508E+03  0.98074362604E+02  0.23398147990E+03  0.00000000000E+00 0. -1.
         -4    1    5    5    0  503 -0.33803320442E+03 -0.18550371171E+03  0.11438926835E+03  0.40219768654E+03  0.00000000000E+00 0.  1.
         -3    1    6    6    0  502 -0.17983759816E+03  0.32655363882E+03  0.70088790164E+03  0.79386566332E+03  0.00000000000E+00 0.  1.
<mgrwt>
<rscale>  0 0.29073173E+04</rscale>
<asrwt>0</asrwt>
<pdfrwt beam="1">  1        1 0.19706329E+00 0.29073173E+04</pdfrwt>
<pdfrwt beam="2">  1       -1 0.25380048E+00 0.29073173E+04</pdfrwt>
<totfact> 0.52728463E-01</totfact>
</mgrwt>
</event>
<event>
12    1  0.1397649E-007  0.1210539E+04  0.7818608E-02  0.9103682E-01
         -2   -1    0    0    0  501 -0.00000000000E+00  0.00000000000E+00  0.77277095556E+03  0.77277095556E+03  0.00000000000E+00 0.  1.
          2   -1    0    0  501    0  0.00000000000E+00 -0.00000000000E+00 -0.47407467729E+03  0.47407467729E+03  0.00000000000E+00 0. -1.
         23    2    1    2    0    0  0.57436070778E+02 -0.24565805147E+03  0.68120897650E+01  0.26791111418E+03  0.89906507330E+02 0.  0.
        254    2    1    2    0    0 -0.57436070778E+02  0.24565805147E+03  0.29188418850E+03  0.97893451866E+03  0.89970530278E+03 0.  0.
        -24    2    4    4    0    0 -0.14168468563E+03  0.45811194985E+03  0.47152014625E+03  0.67731072496E+03  0.80482675733E+02 0.  0.
         24    2    4    4    0    0  0.84248614853E+02 -0.21245389838E+03 -0.17963595775E+03  0.30162379370E+03  0.80457116331E+02 0.  0.
         13    1    3    3    0    0 -0.24073896120E+02 -0.48070741272E+02 -0.39000771078E+01  0.53903239627E+02  0.00000000000E+00 0. -1.
        -13    1    3    3    0    0  0.81509966899E+02 -0.19758731019E+03  0.10712166873E+02  0.21400787456E+03  0.00000000000E+00 0.  1.
          2    1    6    6  502    0  0.19776651258E+02 -0.62103199367E+02 -0.99660421103E+01  0.65933643172E+02  0.00000000000E+00 0. -1.
          1    1    5    5  503    0 -0.23032846778E+02  0.75985516095E+02  0.40266931727E+02  0.89026605448E+02  0.00000000000E+00 0. -1.
         -2    1    5    5    0  503 -0.11865183885E+03  0.38212643375E+03  0.43125321452E+03  0.58828411951E+03  0.00000000000E+00 0.  1.
         -1    1    6    6    0  502  0.64471963595E+02 -0.15035069902E+03 -0.16966991564E+03  0.23569015053E+03  0.00000000000E+00 0.  1.
<mgrwt>
<rscale>  0 0.12105390E+04</rscale>
<asrwt>0</asrwt>
<pdfrwt beam="1">  1        2 0.72934566E-01 0.12105390E+04</pdfrwt>
<pdfrwt beam="2">  1       -2 0.11888784E+00 0.12105390E+04</pdfrwt>
<totfact> 0.35089471E+01</totfact>
</mgrwt>
</event>
<event>
12    1  0.1397649E-007  0.1745142E+04  0.7818608E-02  0.8736029E-01
          1   -1    0    0  501    0  0.00000000000E+00  0.00000000000E+00  0.67318947110E+03  0.67318947110E+03  0.00000000000E+00 0. -1.
         -1   -1    0    0    0  501 -0.00000000000E+00 -0.00000000000E+00 -0.11310041746E+04  0.11310041746E+04  0.00000000000E+00 0.  1.
         23    2    1    2    0    0  0.32871757540E+03  0.40672136316E+02 -0.72196692885E+03  0.79924408354E+03  0.88574215589E+02 0.  0.
        254    2    1    2    0    0 -0.32871757540E+03 -0.40672136316E+02  0.26415222533E+03  0.10049495622E+04  0.91128357679E+03 0.  0.
        -24    2    4    4    0    0 -0.50427807541E+03 -0.27623804634E+02  0.49009639345E+03  0.70829015856E+03  0.80131279260E+02 0.  0.
         24    2    4    4    0    0  0.17556050001E+03 -0.13048331682E+02 -0.22594416812E+03  0.29665940362E+03  0.77228793362E+02 0.  0.
         11    1    3    3    0    0  0.29461074688E+03  0.13951733981E+02 -0.57805317623E+03  0.64894962640E+03  0.00000000000E+00 0.  1.
        -11    1    3    3    0    0  0.34106828524E+02  0.26720402335E+02 -0.14391375262E+03  0.15029445714E+03  0.00000000000E+00 0. -1.
          2    1    6    6  502    0  0.25206050470E+01 -0.16015525154E+02 -0.72204845165E+01  0.17747841909E+02  0.00000000000E+00 0. -1.
          3    1    5    5  503    0 -0.17561970956E+02 -0.61992395920E+00  0.76463119025E+00  0.17589536391E+02  0.00000000000E+00 0. -1.
         -4    1    5    5    0  503 -0.48671610446E+03 -0.27003880675E+02  0.48933176226E+03  0.69070062217E+03  0.00000000000E+00 0.  1.
         -1    1    6    6    0  502  0.17303989496E+03  0.29671934727E+01 -0.21872368360E+03  0.27891156171E+03  0.00000000000E+00 0.  1.
<mgrwt>
<rscale>  0 0.17451419E+04</rscale>
<asrwt>0</asrwt>
<pdfrwt beam="1">  1        1 0.10356761E+00 0.17451419E+04</pdfrwt>
<pdfrwt beam="2">  1       -1 0.17400064E+00 0.17451419E+04</pdfrwt>
<totfact> 0.63018408E+00</totfact>
</mgrwt>
</event>
<event>
12    1  0.1397649E-007  0.1654838E+04  0.7818608E-02  0.8787549E-01
          2   -1    0    0  501    0  0.00000000000E+00  0.00000000000E+00  0.11890721799E+04  0.11890721799E+04  0.00000000000E+00 0.  1.
         -2   -1    0    0    0  501 -0.00000000000E+00 -0.00000000000E+00 -0.57576191157E+03  0.57576191157E+03  0.00000000000E+00 0. -1.
         23    2    1    2    0    0 -0.50761082334E+03  0.22899472463E+03  0.34516690735E+03  0.66245271519E+03  0.97959553181E+02 0.  0.
        254    2    1    2    0    0  0.50761082334E+03 -0.22899472463E+03  0.26814336101E+03  0.11023813763E+04  0.91281789251E+03 0.  0.
        -24    2    4    4    0    0  0.61366995426E+03  0.76760471468E+02 -0.70053513889E+02  0.62722329990E+03  0.77579574597E+02 0.  0.
         24    2    4    4    0    0 -0.10605913092E+03 -0.30575519610E+03  0.33819687490E+03  0.47515807640E+03  0.81628991086E+02 0.  0.
         11    1    3    3    0    0 -0.42439508566E+03  0.20259589873E+03  0.24739536876E+03  0.53137628419E+03  0.00000000000E+00 0. -1.
        -11    1    3    3    0    0 -0.83215737677E+02  0.26398825894E+02  0.97771538592E+02  0.13107643100E+03  0.00000000000E+00 0.  1.
          4    1    6    6  502    0 -0.58680910587E+02 -0.19214760741E+03  0.15189699098E+03  0.25186672700E+03  0.00000000000E+00 0. -1.
          1    1    5    5  503    0  0.20086617960E+03  0.91990736034E+01  0.10044968840E+02  0.20132746077E+03  0.00000000000E+00 0. -1.
         -2    1    5    5    0  503  0.41280377466E+03  0.67561397865E+02 -0.80098482729E+02  0.42589583913E+03  0.00000000000E+00 0.  1.
         -3    1    6    6    0  502 -0.47378220332E+02 -0.11360758869E+03  0.18629988392E+03  0.22329134940E+03  0.00000000000E+00 0.  1.
<mgrwt>
<rscale>  0 0.16548383E+04</rscale>
<asrwt>0</asrwt>
<pdfrwt beam="1">  1        2 0.18293418E+00 0.16548383E+04</pdfrwt>
<pdfrwt beam="2">  1       -2 0.88578756E-01 0.16548383E+04</pdfrwt>
<totfact> 0.20133106E+01</totfact>
</mgrwt>
</event>
<event>
12    1  0.1397649E-007  0.2688179E+04  0.7818608E-02  0.8338851E-01
          2   -1    0    0  501    0  0.00000000000E+00  0.00000000000E+00  0.15032199058E+04  0.15032199058E+04  0.00000000000E+00 0. -1.
         -2   -1    0    0    0  501 -0.00000000000E+00 -0.00000000000E+00 -0.12018041879E+04  0.12018041879E+04  0.00000000000E+00 0.  1.
         23    2    1    2    0    0  0.62526943051E+03  0.10134659080E+04  0.60545375903E+02  0.11958791895E+04  0.91576667473E+02 0.  0.
        254    2    1    2    0    0 -0.62526943051E+03 -0.10134659080E+04  0.24087034195E+03  0.15091449042E+04  0.89522333128E+03 0.  0.
        -24    2    4    4    0    0  0.21152961635E+03 -0.98088925655E+02  0.42954939713E+02  0.25041915077E+03  0.80612705550E+02 0.  0.
         24    2    4    4    0    0 -0.83679904686E+03 -0.91537698230E+03  0.19791540224E+03  0.12587257534E+04  0.84097272885E+02 0.  0.
         11    1    3    3    0    0  0.44084518080E+03  0.78559832492E+03  0.33047774535E+02  0.90144403983E+03  0.00000000000E+00 0. -1.
        -11    1    3    3    0    0  0.18442424971E+03  0.22786758304E+03  0.27497601368E+02  0.29443514968E+03  0.00000000000E+00 0.  1.
          2    1    6    6  502    0 -0.50967183758E+03 -0.58255863593E+03  0.16092510459E+03  0.79059271158E+03  0.00000000000E+00 0. -1.
          3    1    5    5  503    0  0.21059333613E+03 -0.76216822854E+02  0.33034881896E+02  0.22638432086E+03  0.00000000000E+00 0. -1.
         -4    1    5    5    0  503  0.93628021752E+00 -0.21872102801E+02  0.99200578163E+01  0.24034829907E+02  0.00000000000E+00 0.  1.
         -1    1    6    6    0  502 -0.32712720929E+03 -0.33281834638E+03  0.36990297645E+02  0.46813304184E+03  0.00000000000E+00 0.  1.
<mgrwt>
<rscale>  0 0.26881785E+04</rscale>
<asrwt>0</asrwt>
<pdfrwt beam="1">  1        2 0.23126460E+00 0.26881785E+04</pdfrwt>
<pdfrwt beam="2">  1       -2 0.18489295E+00 0.26881785E+04</pdfrwt>
<totfact> 0.18632736E+00</totfact>
</mgrwt>
</event>
<event>
12    1  0.1397649E-007  0.1276322E+04  0.7818608E-02  0.9048556E-01
          4   -1    0    0  501    0  0.00000000000E+00  0.00000000000E+00  0.20382035558E+04  0.20382035558E+04  0.00000000000E+00 0.  1.
         -4   -1    0    0    0  501 -0.00000000000E+00 -0.00000000000E+00 -0.19980800549E+03  0.19980800549E+03  0.00000000000E+00 0. -1.
         23    2    1    2    0    0 -0.17329011358E+03 -0.22016141762E+03  0.72015848275E+03  0.77815160227E+03  0.91603289013E+02 0.  0.
        254    2    1    2    0    0  0.17329011358E+03  0.22016141762E+03  0.11182370675E+04  0.14598599590E+04  0.89567653056E+03 0.  0.
        -24    2    4    4    0    0  0.13088679464E+03  0.29265686847E+03  0.12444797699E+04  0.12876658556E+04  0.81080590835E+02 0.  0.
         24    2    4    4    0    0  0.42403318938E+02 -0.72495450851E+02 -0.12624270236E+03  0.17219410344E+03  0.81608562722E+02 0.  0.
         11    1    3    3    0    0 -0.33270285458E+02  0.15624933661E+00  0.96010815547E+02  0.10161207118E+03  0.00000000000E+00 0. -1.
        -11    1    3    3    0    0 -0.14001982812E+03 -0.22031766696E+03  0.62414766720E+03  0.67653953108E+03  0.00000000000E+00 0.  1.
          4    1    6    6  502    0  0.28215609787E+02 -0.33022321007E+02 -0.12262810248E+03  0.13009321981E+03  0.00000000000E+00 0. -1.
          1    1    5    5  503    0  0.83407295685E+02  0.24857896164E+03  0.91247671790E+03  0.94940088363E+03  0.00000000000E+00 0. -1.
         -2    1    5    5    0  503  0.47479498958E+02  0.44077906829E+02  0.33200305200E+03  0.33826497193E+03  0.00000000000E+00 0.  1.
         -3    1    6    6    0  502  0.14187709151E+02 -0.39473129844E+02 -0.36145998754E+01  0.42100883635E+02  0.00000000000E+00 0.  1.
<mgrwt>
<rscale>  0 0.12763219E+04</rscale>
<asrwt>0</asrwt>
<pdfrwt beam="1">  1        4 0.31356976E+00 0.12763219E+04</pdfrwt>
<pdfrwt beam="2">  1       -4 0.30739695E-01 0.12763219E+04</pdfrwt>
<totfact> 0.51755252E-01</totfact>
</mgrwt>
</event>
<event>
12    1  0.1397649E-007  0.1630411E+04  0.7818608E-02  0.8802080E-01
          3   -1    0    0  501    0  0.00000000000E+00  0.00000000000E+00  0.48472820039E+03  0.48472820039E+03  0.00000000000E+00 0. -1.
         -3   -1    0    0    0  501 -0.00000000000E+00 -0.00000000000E+00 -0.13709953066E+04  0.13709953066E+04  0.00000000000E+00 0.  1.
         23    2    1    2    0    0  0.55894936445E+03  0.64797758380E+01 -0.26884626233E+03  0.62706393079E+03  0.92002614169E+02 0.  0.
        254    2    1    2    0    0 -0.55894936445E+03 -0.64797758380E+01 -0.61742084383E+03  0.12286595762E+04  0.90328814682E+03 0.  0.
        -24    2    4    4    0    0 -0.24792707611E+03  0.43927823548E+03 -0.25824301924E+03  0.57218063438E+03  0.79170816208E+02 0.  0.
         24    2    4    4    0    0 -0.31102228833E+03 -0.44575801131E+03 -0.35917782459E+03  0.65647894178E+03  0.80751611967E+02 0.  0.
         13    1    3    3    0    0  0.21974558726E+03  0.41470491657E+02 -0.13162695643E+03  0.25948714892E+03  0.00000000000E+00 0.  1.
        -13    1    3    3    0    0  0.33920377719E+03 -0.34990715819E+02 -0.13721930590E+03  0.36757678186E+03  0.00000000000E+00 0. -1.
          4    1    6    6  502    0 -0.93592218491E+02 -0.76497149505E+02 -0.73677578410E+02  0.14156165726E+03  0.00000000000E+00 0. -1.
          3    1    5    5  503    0 -0.33331508531E+02  0.18382211981E+02 -0.16639644910E+02  0.41542423630E+02  0.00000000000E+00 0. -1.
         -4    1    5    5    0  503 -0.21459556758E+03  0.42089602349E+03 -0.24160337433E+03  0.53063821075E+03  0.00000000000E+00 0.  1.
         -3    1    6    6    0  502 -0.21743006984E+03 -0.36926086181E+03 -0.28550024618E+03  0.51491728453E+03  0.00000000000E+00 0.  1.
<mgrwt>
<rscale>  0 0.16304111E+04</rscale>
<asrwt>0</asrwt>
<pdfrwt beam="1">  1        3 0.74573570E-01 0.16304111E+04</pdfrwt>
<pdfrwt beam="2">  1       -3 0.21092235E+00 0.16304111E+04</pdfrwt>
<totfact> 0.53276887E-01</totfact>
</mgrwt>
</event>
<event>
12    1  0.1397649E-007  0.1372962E+04  0.7818608E-02  0.8973626E-01
         -2   -1    0    0    0  501 -0.00000000000E+00  0.00000000000E+00  0.68741256151E+03  0.68741256151E+03  0.00000000000E+00 0.  1.
          2   -1    0    0  501    0  0.00000000000E+00 -0.00000000000E+00 -0.68555097509E+03  0.68555097509E+03  0.00000000000E+00 0. -1.
         23    2    1    2    0    0 -0.23544880947E+03  0.19682312310E+03 -0.24043447240E+03  0.39731850750E+03  0.76666662974E+02 0.  0.
        254    2    1    2    0    0  0.23544880947E+03 -0.19682312310E+03  0.24229605882E+03  0.97564502910E+03  0.89386820003E+03 0.  0.
        -24    2    4    4    0    0 -0.46616516347E+01  0.33578509526E+03  0.15907336826E+03  0.38016959805E+03  0.80319521919E+02 0.  0.
         24    2    4    4    0    0  0.24011046111E+03 -0.53260821836E+03  0.83222690557E+02  0.59547543104E+03  0.79626785406E+02 0.  0.
         11    1    3    3    0    0 -0.71252022914E+02  0.96530486441E+02 -0.62647909749E+02  0.13535045688E+03  0.00000000000E+00 0.  1.
        -11    1    3    3    0    0 -0.16419678656E+03  0.10029263666E+03 -0.17778656265E+03  0.26196805062E+03  0.00000000000E+00 0. -1.
          2    1    6    6  502    0  0.79241588636E+01 -0.36083306611E+02 -0.12598143938E+02  0.39032173144E+02  0.00000000000E+00 0. -1.
          1    1    5    5  503    0  0.31749035993E+02  0.82670933856E+02  0.53867194984E+02  0.10365403652E+03  0.00000000000E+00 0. -1.
         -2    1    5    5    0  503 -0.36410687628E+02  0.25311416140E+03  0.10520617328E+03  0.27651556154E+03  0.00000000000E+00 0.  1.
         -1    1    6    6    0  502  0.23218630224E+03 -0.49652491175E+03  0.95820834496E+02  0.55644325790E+03  0.00000000000E+00 0.  1.
<mgrwt>
<rscale>  0 0.13729623E+04</rscale>
<asrwt>0</asrwt>
<pdfrwt beam="1">  1        2 0.10546938E+00 0.13729623E+04</pdfrwt>
<pdfrwt beam="2">  1       -2 0.10575578E+00 0.13729623E+04</pdfrwt>
<totfact> 0.29644739E+01</totfact>
</mgrwt>
</event>
<event>
12    1  0.1397649E-007  0.1361334E+04  0.7818608E-02  0.8982292E-01
          2   -1    0    0  501    0  0.00000000000E+00  0.00000000000E+00  0.17801536235E+04  0.17801536235E+04  0.00000000000E+00 0. -1.
         -2   -1    0    0    0  501 -0.00000000000E+00 -0.00000000000E+00 -0.26026273641E+03  0.26026273641E+03  0.00000000000E+00 0.  1.
         23    2    1    2    0    0  0.83522606886E+02 -0.30742693958E+03  0.20514764921E+03  0.39268157567E+03  0.10308206852E+03 0.  0.
        254    2    1    2    0    0 -0.83522606886E+02  0.30742693958E+03  0.13147432379E+04  0.16477347843E+04  0.94074055331E+03 0.  0.
        -24    2    4    4    0    0 -0.12797651148E+02  0.19453120700E+03 -0.93436954719E+02  0.23099354199E+03  0.81371872045E+02 0.  0.
         24    2    4    4    0    0 -0.70724955738E+02  0.11289573258E+03  0.14081801926E+04  0.14167412423E+04  0.80229837921E+02 0.  0.
         13    1    3    3    0    0  0.77099624746E+02 -0.24998236848E+03  0.11538558822E+03  0.28591846854E+03  0.00000000000E+00 0.  1.
        -13    1    3    3    0    0  0.64229821402E+01 -0.57444571103E+02  0.89762060991E+02  0.10676310712E+03  0.00000000000E+00 0. -1.
          2    1    6    6  502    0 -0.48859236687E+02  0.11368396594E+03  0.13237980874E+04  0.13295685937E+04  0.00000000000E+00 0. -1.
          1    1    5    5  503    0 -0.64864339373E+01  0.19541445982E+03 -0.10183414519E+03  0.22045198583E+03  0.00000000000E+00 0. -1.
         -2    1    5    5    0  503 -0.63112172111E+01 -0.88325281644E+00  0.83971904753E+01  0.10541556152E+02  0.00000000000E+00 0.  1.
         -3    1    6    6    0  502 -0.21865719051E+02 -0.78823335349E+00  0.84382105279E+02  0.87172648651E+02  0.00000000000E+00 0.  1.
<mgrwt>
<rscale>  0 0.13613341E+04</rscale>
<asrwt>0</asrwt>
<pdfrwt beam="1">  1        2 0.27386978E+00 0.13613341E+04</pdfrwt>
<pdfrwt beam="2">  1       -2 0.40040422E-01 0.13613341E+04</pdfrwt>
<totfact> 0.50987564E+01</totfact>
</mgrwt>
</event>
<event>
12    1  0.1397649E-007  0.2036497E+04  0.7818608E-02  0.8589745E-01
         -2   -1    0    0    0  501 -0.00000000000E+00  0.00000000000E+00  0.26160097703E+03  0.26160097703E+03  0.00000000000E+00 0.  1.
          2   -1    0    0  501    0  0.00000000000E+00 -0.00000000000E+00 -0.39634008860E+04  0.39634008860E+04  0.00000000000E+00 0. -1.
         23    2    1    2    0    0 -0.59674950468E+03 -0.26187282443E+03 -0.66330457304E+03  0.93417777063E+03  0.89598007846E+02 0.  0.
        254    2    1    2    0    0  0.59674950468E+03  0.26187282443E+03 -0.30384953360E+04  0.32908240924E+04  0.10827658810E+04 0.  0.
        -24    2    4    4    0    0  0.87403787300E+03  0.52563830325E+02 -0.18272500298E+04  0.20276760659E+04  0.76957113761E+02 0.  0.
         24    2    4    4    0    0 -0.27728836832E+03  0.20930899410E+03 -0.12112453062E+04  0.12631480265E+04  0.87912745726E+02 0.  0.
         11    1    3    3    0    0 -0.57352856903E+03 -0.25367757617E+03 -0.60723226781E+03  0.87293662955E+03  0.00000000000E+00 0.  1.
        -11    1    3    3    0    0 -0.23220935654E+02 -0.81952482596E+01 -0.56072305234E+02  0.61241141081E+02  0.00000000000E+00 0. -1.
          2    1    6    6  502    0 -0.18502500580E+03  0.10204330721E+03 -0.83068353264E+03  0.85713605729E+03  0.00000000000E+00 0. -1.
          1    1    5    5  503    0  0.57356768400E+03  0.40782886476E+02 -0.11146092179E+04  0.12541917080E+04  0.00000000000E+00 0. -1.
         -2    1    5    5    0  503  0.30047018901E+03  0.11780943849E+02 -0.71264081189E+03  0.77348435789E+03  0.00000000000E+00 0.  1.
         -1    1    6    6    0  502 -0.92263362522E+02  0.10726568689E+03 -0.38056177356E+03  0.40601196921E+03  0.00000000000E+00 0.  1.
<mgrwt>
<rscale>  0 0.20364965E+04</rscale>
<asrwt>0</asrwt>
<pdfrwt beam="1">  1        2 0.60975401E+00 0.20364965E+04</pdfrwt>
<pdfrwt beam="2">  1       -2 0.40246302E-01 0.20364965E+04</pdfrwt>
<totfact> 0.20008857E+00</totfact>
</mgrwt>
</event>
<event>
12    1  0.1397649E-007  0.1435547E+04  0.7818608E-02  0.8928482E-01
         -1   -1    0    0    0  501 -0.00000000000E+00  0.00000000000E+00  0.23715736808E+03  0.23715736808E+03  0.00000000000E+00 0.  1.
          1   -1    0    0  501    0  0.00000000000E+00 -0.00000000000E+00 -0.21723914846E+04  0.21723914846E+04  0.00000000000E+00 0. -1.
         23    2    1    2    0    0 -0.33499508519E+03 -0.14847762127E+03 -0.22441982147E+03  0.43914359573E+03  0.90639562469E+02 0.  0.
        254    2    1    2    0    0  0.33499508519E+03  0.14847762127E+03 -0.17108142951E+04  0.19704052570E+04  0.90628031722E+03 0.  0.
        -24    2    4    4    0    0  0.52958474483E+03 -0.19639495351E+03 -0.92657544701E+03  0.10883447558E+04  0.83194163089E+02 0.  0.
         24    2    4    4    0    0 -0.19458965964E+03  0.34487257477E+03 -0.78423884809E+03  0.88206050119E+03  0.78726923188E+02 0.  0.
         11    1    3    3    0    0 -0.69136565172E+02 -0.31213466361E+02 -0.68895327561E+01  0.76168305664E+02  0.00000000000E+00 0. -1.
        -11    1    3    3    0    0 -0.26585852002E+03 -0.11726415491E+03 -0.21753028871E+03  0.36297529007E+03  0.00000000000E+00 0.  1.
          4    1    6    6  502    0 -0.44641208448E+02  0.12998246880E+03 -0.33318361358E+03  0.36041587096E+03  0.00000000000E+00 0. -1.
          3    1    5    5  503    0  0.59078427570E+02 -0.23369271692E+02 -0.60992394083E+02  0.88070742018E+02  0.00000000000E+00 0. -1.
         -4    1    5    5    0  503  0.47050631726E+03 -0.17302568182E+03 -0.86558305292E+03  0.10002740138E+04  0.00000000000E+00 0.  1.
         -3    1    6    6    0  502 -0.14994845119E+03  0.21489010598E+03 -0.45105523452E+03  0.52164463023E+03  0.00000000000E+00 0.  1.
<mgrwt>
<rscale>  0 0.14355468E+04</rscale>
<asrwt>0</asrwt>
<pdfrwt beam="1">  1        1 0.33421407E+00 0.14355468E+04</pdfrwt>
<pdfrwt beam="2">  1       -1 0.36485749E-01 0.14355468E+04</pdfrwt>
<totfact> 0.15950744E+01</totfact>
</mgrwt>
</event>
<event>
12    1  0.1397649E-007  0.1444791E+04  0.7818608E-02  0.8922020E-01
         -1   -1    0    0    0  501 -0.00000000000E+00  0.00000000000E+00  0.13304017873E+04  0.13304017873E+04  0.00000000000E+00 0.  1.
          1   -1    0    0  501    0  0.00000000000E+00 -0.00000000000E+00 -0.39225371419E+03  0.39225371419E+03  0.00000000000E+00 0. -1.
         23    2    1    2    0    0  0.29503404116E+03 -0.12079041990E+03 -0.61034761996E+02  0.33749943941E+03  0.92440350763E+02 0.  0.
        254    2    1    2    0    0 -0.29503404116E+03  0.12079041990E+03  0.99918283514E+03  0.13851560621E+04  0.90479587055E+03 0.  0.
        -24    2    4    4    0    0 -0.55181824494E+03  0.13400856044E+03  0.95257205532E+03  0.11118329817E+04  0.79482003711E+02 0.  0.
         24    2    4    4    0    0  0.25678420378E+03 -0.13218140542E+02  0.46610779816E+02  0.27332308040E+03  0.80125494900E+02 0.  0.
         11    1    3    3    0    0  0.28065833891E+03 -0.12135113727E+03 -0.77695723089E+02  0.31548665123E+03  0.00000000000E+00 0. -1.
        -11    1    3    3    0    0  0.14375702252E+02  0.56071737143E+00  0.16660961093E+02  0.22012788186E+02  0.00000000000E+00 0.  1.
          2    1    6    6  502    0  0.18661159970E+03  0.21329185151E+02  0.52089219188E+02  0.19491564852E+03  0.00000000000E+00 0. -1.
          1    1    5    5  503    0 -0.42435018640E+03  0.68061798821E+02  0.72310643661E+03  0.84118274342E+03  0.00000000000E+00 0. -1.
         -2    1    5    5    0  503 -0.12746805854E+03  0.65946761619E+02  0.22946561871E+03  0.27065023829E+03  0.00000000000E+00 0.  1.
         -1    1    6    6    0  502  0.70172604076E+02 -0.34547325693E+02 -0.54784393727E+01  0.78407431875E+02  0.00000000000E+00 0.  1.
<mgrwt>
<rscale>  0 0.14447907E+04</rscale>
<asrwt>0</asrwt>
<pdfrwt beam="1">  1        1 0.60346726E-01 0.14447907E+04</pdfrwt>
<pdfrwt beam="2">  1       -1 0.20467720E+00 0.14447907E+04</pdfrwt>
<totfact> 0.83619581E+00</totfact>
</mgrwt>
</event>
<event>
12    1  0.1397649E-007  0.3285616E+04  0.7818608E-02  0.8166565E-01
         -2   -1    0    0    0  501 -0.00000000000E+00  0.00000000000E+00  0.12545612960E+04  0.12545612960E+04  0.00000000000E+00 0.  1.
          2   -1    0    0  501    0  0.00000000000E+00 -0.00000000000E+00 -0.21512049325E+04  0.21512049325E+04  0.00000000000E+00 0. -1.
         23    2    1    2    0    0 -0.13131134494E+04 -0.54237477849E+03  0.14082639744E+03  0.14304486893E+04  0.88960931850E+02 0.  0.
        254    2    1    2    0    0  0.13131134494E+04  0.54237477849E+03 -0.10374700339E+04  0.19753175392E+04  0.89838631892E+03 0.  0.
        -24    2    4    4    0    0  0.10237547191E+04  0.76006348851E+03 -0.63055275954E+03  0.14246914834E+04  0.79867445049E+02 0.  0.
         24    2    4    4    0    0  0.28935873022E+03 -0.21768871001E+03 -0.40691727439E+03  0.55062605577E+03  0.80563862130E+02 0.  0.
         13    1    3    3    0    0 -0.86820987658E+03 -0.34010566966E+03  0.13116249515E+03  0.94162830058E+03  0.00000000000E+00 0.  1.
        -13    1    3    3    0    0 -0.44490357277E+03 -0.20226910883E+03  0.96639022855E+01  0.48882038875E+03  0.00000000000E+00 0. -1.
          4    1    6    6  502    0 -0.12666745036E+01 -0.12037834332E+02 -0.35574272775E+01  0.12616227983E+02  0.00000000000E+00 0. -1.
          3    1    5    5  503    0  0.29895258018E+03  0.21889801822E+03 -0.22411084208E+03  0.43302962614E+03  0.00000000000E+00 0. -1.
         -4    1    5    5    0  503  0.72480213895E+03  0.54116547029E+03 -0.40644191747E+03  0.99166185725E+03  0.00000000000E+00 0.  1.
         -3    1    6    6    0  502  0.29062540472E+03 -0.20565087568E+03 -0.40335984711E+03  0.53800982779E+03  0.00000000000E+00 0.  1.
<mgrwt>
<rscale>  0 0.32856162E+04</rscale>
<asrwt>0</asrwt>
<pdfrwt beam="1">  1        2 0.33095460E+00 0.32856162E+04</pdfrwt>
<pdfrwt beam="2">  1       -2 0.19300943E+00 0.32856162E+04</pdfrwt>
<totfact> 0.68059323E-01</totfact>
</mgrwt>
</event>
<event>
12    1  0.1397649E-007  0.2209438E+04  0.7818608E-02  0.8514510E-01
          2   -1    0    0  501    0  0.00000000000E+00  0.00000000000E+00  0.30111525130E+04  0.30111525130E+04  0.00000000000E+00 0. -1.
         -2   -1    0    0    0  501 -0.00000000000E+00 -0.00000000000E+00 -0.40529478422E+03  0.40529478422E+03  0.00000000000E+00 0.  1.
         23    2    1    2    0    0  0.51052359230E+03 -0.74310818940E+03  0.80687180067E+03  0.12130275172E+04  0.86888061901E+02 0.  0.
        254    2    1    2    0    0 -0.51052359230E+03  0.74310818940E+03  0.17989859281E+04  0.22034197801E+04  0.89769941413E+03 0.  0.
        -24    2    4    4    0    0 -0.61582788205E+03  0.67432310116E+03  0.87161542789E+03  0.12649166123E+04  0.79655237954E+02 0.  0.
         24    2    4    4    0    0  0.10530428976E+03  0.68785088235E+02  0.92737050025E+03  0.93850316774E+03  0.70368809318E+02 0.  0.
         11    1    3    3    0    0  0.47801722437E+03 -0.70349747070E+03  0.78460315490E+03  0.11571565446E+04  0.00000000000E+00 0. -1.
        -11    1    3    3    0    0  0.32506367927E+02 -0.39610718699E+02  0.22268645771E+02  0.55870972572E+02  0.00000000000E+00 0.  1.
          4    1    6    6  502    0  0.39595188217E+02  0.48290662684E+02  0.63845059024E+03  0.64149740701E+03  0.00000000000E+00 0. -1.
          3    1    5    5  503    0 -0.51094507959E+03  0.52707161023E+03  0.66660417484E+03  0.99157979134E+03  0.00000000000E+00 0. -1.
         -4    1    5    5    0  503 -0.10488280246E+03  0.14725149093E+03  0.20501125305E+03  0.27333682099E+03  0.00000000000E+00 0.  1.
         -3    1    6    6    0  502  0.65709101541E+02  0.20494425551E+02  0.28891991001E+03  0.29700576073E+03  0.00000000000E+00 0.  1.
<mgrwt>
<rscale>  0 0.22094383E+04</rscale>
<asrwt>0</asrwt>
<pdfrwt beam="1">  1        2 0.46325422E+00 0.22094383E+04</pdfrwt>
<pdfrwt beam="2">  1       -2 0.62353046E-01 0.22094383E+04</pdfrwt>
<totfact> 0.37391469E+00</totfact>
</mgrwt>
</event>
<event>
12    1  0.1397649E-007  0.1169828E+04  0.7818608E-02  0.9139684E-01
          2   -1    0    0  501    0  0.00000000000E+00  0.00000000000E+00  0.15960075590E+04  0.15960075590E+04  0.00000000000E+00 0. -1.
         -2   -1    0    0    0  501 -0.00000000000E+00 -0.00000000000E+00 -0.21436253395E+03  0.21436253395E+03  0.00000000000E+00 0.  1.
         23    2    1    2    0    0  0.60804133405E+02  0.92616734397E+01 -0.65515506510E+02  0.12693826600E+03  0.89655566191E+02 0.  0.
        254    2    1    2    0    0 -0.60804133405E+02 -0.92616734397E+01  0.14471605316E+04  0.16834318269E+04  0.85783809115E+03 0.  0.
        -24    2    4    4    0    0  0.34581249592E+03  0.87922662463E+02  0.34906002422E+03  0.50575129401E+03  0.81392837352E+02 0.  0.
         24    2    4    4    0    0 -0.40661662932E+03 -0.97184335903E+02  0.10981005073E+04  0.11776805329E+04  0.79528831575E+02 0.  0.
         13    1    3    3    0    0 -0.11949767818E+02  0.27331758102E+02 -0.42657326121E+01  0.30133344098E+02  0.00000000000E+00 0. -1.
        -13    1    3    3    0    0  0.72753901222E+02 -0.18070084662E+02 -0.61249773898E+02  0.96804921906E+02  0.00000000000E+00 0.  1.
          2    1    6    6  502    0 -0.11797429792E+03 -0.19020751841E+02  0.22460156194E+03  0.25441223555E+03  0.00000000000E+00 0. -1.
          1    1    5    5  503    0  0.80166127251E+02  0.40729006759E+02  0.13075227272E+03  0.15868716637E+03  0.00000000000E+00 0. -1.
         -2    1    5    5    0  503  0.26564636867E+03  0.47193655705E+02  0.21830775150E+03  0.34706412764E+03  0.00000000000E+00 0.  1.
         -1    1    6    6    0  502 -0.28864233141E+03 -0.78163584062E+02  0.87349894540E+03  0.92326829739E+03  0.00000000000E+00 0.  1.
<mgrwt>
<rscale>  0 0.11698277E+04</rscale>
<asrwt>0</asrwt>
<pdfrwt beam="1">  1        2 0.24553962E+00 0.11698277E+04</pdfrwt>
<pdfrwt beam="2">  1       -2 0.32978852E-01 0.11698277E+04</pdfrwt>
<totfact> 0.95049040E+01</totfact>
</mgrwt>
</event>
<event>
12    1  0.1397649E-007  0.1391803E+04  0.7818608E-02  0.8959773E-01
         -2   -1    0    0    0  501 -0.00000000000E+00  0.00000000000E+00  0.71854609233E+03  0.71854609233E+03  0.00000000000E+00 0. -1.
          2   -1    0    0  501    0  0.00000000000E+00 -0.00000000000E+00 -0.67397055405E+03  0.67397055405E+03  0.00000000000E+00 0.  1.
         23    2    1    2    0    0  0.63206274697E+02 -0.39191248325E+03  0.46842461297E+02  0.40989287639E+03  0.90705712277E+02 0.  0.
        254    2    1    2    0    0 -0.63206274697E+02  0.39191248325E+03 -0.22669230124E+01  0.98262376999E+03  0.89886256276E+03 0.  0.
        -24    2    4    4    0    0  0.20729580939E+03 -0.11412790041E+03 -0.24815566651E+03  0.35232874051E+03  0.80978863428E+02 0.  0.
         24    2    4    4    0    0 -0.27050208409E+03  0.50604038367E+03  0.24588874350E+03  0.63029502948E+03  0.86961500760E+02 0.  0.
         11    1    3    3    0    0  0.68488303381E+02 -0.39092995336E+03  0.36905072659E+02  0.39859611203E+03  0.00000000000E+00 0. -1.
        -11    1    3    3    0    0 -0.52820286847E+01 -0.98252989306E+00  0.99373886386E+01  0.11296764359E+02  0.00000000000E+00 0.  1.
          2    1    6    6  502    0 -0.27283438892E+03  0.50618552086E+03  0.23847417818E+03  0.62252093857E+03  0.00000000000E+00 0. -1.
          3    1    5    5  503    0  0.11637813020E+03 -0.10422455960E+03 -0.17954500980E+03  0.23799798015E+03  0.00000000000E+00 0. -1.
         -4    1    5    5    0  503  0.90917679197E+02 -0.99033408168E+01 -0.68610656708E+02  0.11433076036E+03  0.00000000000E+00 0.  1.
         -3    1    6    6    0  502  0.23323048262E+01 -0.14513719423E+00  0.74145653193E+01  0.77740909103E+01  0.00000000000E+00 0.  1.
<mgrwt>
<rscale>  0 0.13918030E+04</rscale>
<asrwt>0</asrwt>
<pdfrwt beam="1">  1        2 0.10368778E+00 0.13918030E+04</pdfrwt>
<pdfrwt beam="2">  1       -2 0.11054555E+00 0.13918030E+04</pdfrwt>
<totfact> 0.27173156E+01</totfact>
</mgrwt>
</event>
<event>
12    1  0.1397649E-007  0.1713969E+04  0.7818608E-02  0.8753437E-01
          2   -1    0    0  501    0  0.00000000000E+00  0.00000000000E+00  0.17604126949E+04  0.17604126949E+04  0.00000000000E+00 0. -1.
         -2   -1    0    0    0  501 -0.00000000000E+00 -0.00000000000E+00 -0.41718785574E+03  0.41718785574E+03  0.00000000000E+00 0.  1.
         23    2    1    2    0    0 -0.31061770328E+02  0.60246971567E+03  0.36398157471E+03  0.71031352313E+03  0.90156100940E+02 0.  0.
        254    2    1    2    0    0  0.31061770328E+02 -0.60246971567E+03  0.97924326441E+03  0.14672870275E+04  0.91108685548E+03 0.  0.
        -24    2    4    4    0    0 -0.36486601112E+03 -0.17725590399E+03  0.71226384468E+03  0.82308129839E+03  0.74807604886E+02 0.  0.
         24    2    4    4    0    0  0.39592778145E+03 -0.42521381168E+03  0.26697941973E+03  0.64420572909E+03  0.78469210909E+02 0.  0.
         11    1    3    3    0    0 -0.48185662187E+02  0.56694986917E+03  0.35212172414E+03  0.66913654870E+03  0.00000000000E+00 0.  1.
        -11    1    3    3    0    0  0.17123891859E+02  0.35519846506E+02  0.11859850571E+02  0.41176974436E+02  0.00000000000E+00 0. -1.
          2    1    6    6  502    0  0.36906894417E+03 -0.38672532377E+03  0.22084749450E+03  0.57839603856E+03  0.00000000000E+00 0. -1.
          1    1    5    5  503    0 -0.13130977793E+03 -0.30273713999E+02  0.19893499785E+03  0.24027877332E+03  0.00000000000E+00 0. -1.
         -2    1    5    5    0  503 -0.23355623319E+03 -0.14698218999E+03  0.51332884683E+03  0.58280252506E+03  0.00000000000E+00 0.  1.
         -1    1    6    6    0  502  0.26858837283E+02 -0.38488487912E+02  0.46131925233E+02  0.65809690530E+02  0.00000000000E+00 0.  1.
<mgrwt>
<rscale>  0 0.17139694E+04</rscale>
<asrwt>0</asrwt>
<pdfrwt beam="1">  1        2 0.27083272E+00 0.17139694E+04</pdfrwt>
<pdfrwt beam="2">  1       -2 0.64182748E-01 0.17139694E+04</pdfrwt>
<totfact> 0.19352833E+01</totfact>
</mgrwt>
</event>
<event>
12    1  0.1397649E-007  0.1606401E+04  0.7818608E-02  0.8816625E-01
         -1   -1    0    0    0  501 -0.00000000000E+00  0.00000000000E+00  0.21144955871E+04  0.21144955871E+04  0.00000000000E+00 0.  1.
          1   -1    0    0  501    0  0.00000000000E+00 -0.00000000000E+00 -0.30509911927E+03  0.30509911927E+03  0.00000000000E+00 0. -1.
         23    2    1    2    0    0  0.49082324267E+03 -0.76061871988E+01  0.27304898832E+03  0.57250235916E+03  0.11062500437E+03 0.  0.
        254    2    1    2    0    0 -0.49082324267E+03  0.76061871988E+01  0.15363474795E+04  0.18470923472E+04  0.90023399829E+03 0.  0.
        -24    2    4    4    0    0 -0.37052900845E+02  0.23579036655E+03  0.28092737342E+02  0.25368157592E+03  0.81210378980E+02 0.  0.
         24    2    4    4    0    0 -0.45377034182E+03 -0.22818417935E+03  0.15082547421E+04  0.15934107712E+04  0.78421782436E+02 0.  0.
         11    1    3    3    0    0  0.37832593008E+03  0.84684106088E+01  0.15585595096E+03  0.40925945414E+03  0.00000000000E+00 0. -1.
        -11    1    3    3    0    0  0.11249731259E+03 -0.16074597808E+02  0.11719303736E+03  0.16324290502E+03  0.00000000000E+00 0.  1.
          4    1    6    6  502    0 -0.55023363868E+02 -0.21931105518E+02  0.11111955272E+03  0.12592100284E+03  0.00000000000E+00 0. -1.
          1    1    5    5  503    0  0.10218319396E+02  0.10516614341E+03  0.42778940931E+02  0.11399284872E+03  0.00000000000E+00 0. -1.
         -2    1    5    5    0  503 -0.47271220241E+02  0.13062422313E+03 -0.14686203589E+02  0.13968872720E+03  0.00000000000E+00 0.  1.
         -3    1    6    6    0  502 -0.39874697795E+03 -0.20625307383E+03  0.13971351894E+04  0.14674897684E+04  0.00000000000E+00 0.  1.
<mgrwt>
<rscale>  0 0.16064006E+04</rscale>
<asrwt>0</asrwt>
<pdfrwt beam="1">  1        1 0.46938327E-01 0.16064006E+04</pdfrwt>
<pdfrwt beam="2">  1       -1 0.32530700E+00 0.16064006E+04</pdfrwt>
<totfact> 0.18640324E+00</totfact>
</mgrwt>
</event>
<event>
12    1  0.1397649E-007  0.1919592E+04  0.7818608E-02  0.8645165E-01
         -2   -1    0    0    0  501 -0.00000000000E+00  0.00000000000E+00  0.59845821647E+03  0.59845821647E+03  0.00000000000E+00 0.  1.
          2   -1    0    0  501    0  0.00000000000E+00 -0.00000000000E+00 -0.15393028621E+04  0.15393028621E+04  0.00000000000E+00 0. -1.
         23    2    1    2    0    0 -0.48256017600E+03  0.30631121639E+03 -0.89659266458E+03  0.10672248981E+04  0.91649835225E+02 0.  0.
        254    2    1    2    0    0  0.48256017600E+03 -0.30631121639E+03 -0.44251981068E+02  0.10705361804E+04  0.90410098500E+03 0.  0.
        -24    2    4    4    0    0  0.59511013854E+03  0.68500184292E+01 -0.27267019631E+03  0.65928343943E+03  0.78119253776E+02 0.  0.
         24    2    4    4    0    0 -0.11254996253E+03 -0.31316123482E+03  0.22841821524E+03  0.41125274102E+03  0.78844675662E+02 0.  0.
         11    1    3    3    0    0 -0.62891374944E+02  0.10862394057E+02 -0.12792576523E+03  0.14296264567E+03  0.00000000000E+00 0.  1.
        -11    1    3    3    0    0 -0.41966880106E+03  0.29544882233E+03 -0.76866689935E+03  0.92426225248E+03  0.00000000000E+00 0. -1.
          4    1    6    6  502    0 -0.11347369413E+02 -0.14690904312E+03  0.99653396588E+02  0.17788150324E+03  0.00000000000E+00 0. -1.
          3    1    5    5  503    0  0.50838969874E+02 -0.34556218177E+01 -0.11779060172E+01  0.50969889568E+02  0.00000000000E+00 0. -1.
         -4    1    5    5    0  503  0.54427116866E+03  0.10305640247E+02 -0.27149229029E+03  0.60831354986E+03  0.00000000000E+00 0.  1.
         -3    1    6    6    0  502 -0.10120259312E+03 -0.16625219169E+03  0.12876481866E+03  0.23337123778E+03  0.00000000000E+00 0.  1.
<mgrwt>
<rscale>  0 0.19195921E+04</rscale>
<asrwt>0</asrwt>
<pdfrwt beam="1">  1        2 0.23681583E+00 0.19195921E+04</pdfrwt>
<pdfrwt beam="2">  1       -2 0.92070494E-01 0.19195921E+04</pdfrwt>
<totfact> 0.11308988E+01</totfact>
</mgrwt>
</event>
<event>
12    1  0.1397649E-007  0.1234143E+04  0.7818608E-02  0.9083485E-01
         -2   -1    0    0    0  501 -0.00000000000E+00  0.00000000000E+00  0.13873572083E+03  0.13873572083E+03  0.00000000000E+00 0.  1.
          2   -1    0    0  501    0  0.00000000000E+00 -0.00000000000E+00 -0.27446249358E+04  0.27446249358E+04  0.00000000000E+00 0. -1.
         23    2    1    2    0    0 -0.25076373466E+03  0.10116942907E+02 -0.33939283195E+03  0.43165691972E+03  0.90307246723E+02 0.  0.
        254    2    1    2    0    0  0.25076373466E+03 -0.10116942907E+02 -0.22664963830E+04  0.24517037369E+04  0.90047795984E+03 0.  0.
        -24    2    4    4    0    0 -0.19421131050E+03  0.25764625780E+02 -0.17564729103E+04  0.17692042461E+04  0.80651910006E+02 0.  0.
         24    2    4    4    0    0  0.44497504516E+03 -0.35881568688E+02 -0.51002347265E+03  0.68249949078E+03  0.79945822092E+02 0.  0.
         11    1    3    3    0    0 -0.46522826028E+02 -0.14644470396E+02 -0.12659915539E+03  0.13566937753E+03  0.00000000000E+00 0. -1.
        -11    1    3    3    0    0 -0.20424090863E+03  0.24761413303E+02 -0.21279367656E+03  0.29598754219E+03  0.00000000000E+00 0.  1.
          2    1    6    6  502    0  0.27012369739E+03  0.10206844796E+02 -0.33930673795E+03  0.43382030149E+03  0.00000000000E+00 0. -1.
          3    1    5    5  503    0 -0.18701576650E+03  0.62116049830E+01 -0.14499701758E+04  0.14619941832E+04  0.00000000000E+00 0. -1.
         -4    1    5    5    0  503 -0.71955440071E+01  0.19553020797E+02 -0.30650273450E+03  0.30721006288E+03  0.00000000000E+00 0.  1.
         -1    1    6    6    0  502  0.17485134777E+03 -0.46088413484E+02 -0.17071673470E+03  0.24867918928E+03  0.00000000000E+00 0.  1.
<mgrwt>
<rscale>  0 0.12341435E+04</rscale>
<asrwt>0</asrwt>
<pdfrwt beam="1">  1        2 0.42224997E+00 0.12341435E+04</pdfrwt>
<pdfrwt beam="2">  1       -2 0.21343958E-01 0.12341435E+04</pdfrwt>
<totfact> 0.47276016E+01</totfact>
</mgrwt>
</event>
<event>
12    1  0.1397649E-007  0.1133328E+04  0.7818608E-02  0.9173303E-01
         -2   -1    0    0    0  501 -0.00000000000E+00  0.00000000000E+00  0.36906755068E+03  0.36906755068E+03  0.00000000000E+00 0. -1.
          2   -1    0    0  501    0  0.00000000000E+00 -0.00000000000E+00 -0.87005234890E+03  0.87005234890E+03  0.00000000000E+00 0.  1.
         23    2    1    2    0    0 -0.12263767612E+03 -0.28410634855E+02  0.39731601925E+02  0.16351536333E+03  0.96496166129E+02 0.  0.
        254    2    1    2    0    0  0.12263767612E+03  0.28410634855E+02 -0.54071640014E+03  0.10756045362E+04  0.92125117597E+03 0.  0.
        -24    2    4    4    0    0 -0.12077491329E+03  0.42907686041E+03 -0.22624598142E+03  0.50580008317E+03  0.77155351147E+02 0.  0.
         24    2    4    4    0    0  0.24341258941E+03 -0.40066622555E+03 -0.31447041872E+03  0.56980445307E+03  0.77474883067E+02 0.  0.
         13    1    3    3    0    0  0.47469806329E+01  0.20267132620E+02  0.13029288836E+02  0.24557134551E+02  0.00000000000E+00 0.  1.
        -13    1    3    3    0    0 -0.12738465675E+03 -0.48677767475E+02  0.26702313089E+02  0.13895822878E+03  0.00000000000E+00 0. -1.
          4    1    6    6  502    0  0.15107202245E+02 -0.15141005575E+01 -0.12701294047E+02  0.19795022875E+02  0.00000000000E+00 0. -1.
          1    1    5    5  503    0 -0.79539500078E+02  0.15915865086E+03 -0.69960214926E+02  0.19118692395E+03  0.00000000000E+00 0. -1.
         -4    1    5    5    0  503 -0.41235413213E+02  0.26991820955E+03 -0.15628576650E+03  0.31461315923E+03  0.00000000000E+00 0.  1.
         -3    1    6    6    0  502  0.22830538716E+03 -0.39915212500E+03 -0.30176912468E+03  0.55000943020E+03  0.00000000000E+00 0.  1.
<mgrwt>
<rscale>  0 0.11333280E+04</rscale>
<asrwt>0</asrwt>
<pdfrwt beam="1">  1        2 0.13385421E+00 0.11333280E+04</pdfrwt>
<pdfrwt beam="2">  1       -2 0.56779624E-01 0.11333280E+04</pdfrwt>
<totfact> 0.88613420E+01</totfact>
</mgrwt>
</event>
<event>
12    1  0.1397649E-007  0.1918733E+04  0.7818608E-02  0.8645588E-01
         -2   -1    0    0    0  501 -0.00000000000E+00  0.00000000000E+00  0.59625208932E+03  0.59625208932E+03  0.00000000000E+00 0.  1.
          2   -1    0    0  501    0  0.00000000000E+00 -0.00000000000E+00 -0.15436155261E+04  0.15436155261E+04  0.00000000000E+00 0. -1.
         23    2    1    2    0    0 -0.73803773080E+02 -0.50223038448E+01 -0.12073003584E+04  0.12130425889E+04  0.91792954905E+02 0.  0.
        254    2    1    2    0    0  0.73803773080E+02  0.50223038448E+01  0.25993692165E+03  0.92682502651E+03  0.88654678729E+03 0.  0.
        -24    2    4    4    0    0 -0.30068978866E+03  0.27875697352E+03  0.14890799710E+03  0.44351621129E+03  0.80082699675E+02 0.  0.
         24    2    4    4    0    0  0.37449356174E+03 -0.27373466968E+03  0.11102892456E+03  0.48330881521E+03  0.77999305183E+02 0.  0.
         13    1    3    3    0    0 -0.21314328121E+02  0.22420921954E+02 -0.87215838782E+03  0.87270685329E+03  0.00000000000E+00 0. -1.
        -13    1    3    3    0    0 -0.52489444959E+02 -0.27443225799E+02 -0.33514197056E+03  0.34033573557E+03  0.00000000000E+00 0.  1.
          2    1    6    6  502    0  0.35030705521E+02 -0.27087451558E+01  0.74591417745E+00  0.35143193048E+02  0.00000000000E+00 0. -1.
          1    1    5    5  503    0  0.45970873118E+01  0.10091257961E+02  0.44839389378E+01  0.11961287865E+02  0.00000000000E+00 0. -1.
         -4    1    5    5    0  503 -0.30528687597E+03  0.26866571556E+03  0.14442405816E+03  0.43155492343E+03  0.00000000000E+00 0.  1.
         -3    1    6    6    0  502  0.33946285622E+03 -0.27102592452E+03  0.11028301038E+03  0.44816562217E+03  0.00000000000E+00 0.  1.
<mgrwt>
<rscale>  0 0.19187329E+04</rscale>
<asrwt>0</asrwt>
<pdfrwt beam="1">  1        2 0.23747931E+00 0.19187329E+04</pdfrwt>
<pdfrwt beam="2">  1       -2 0.91731092E-01 0.19187329E+04</pdfrwt>
<totfact> 0.11343513E+01</totfact>
</mgrwt>
</event>
<event>
12    1  0.1397649E-007  0.1620353E+04  0.7818608E-02  0.8808141E-01
         -2   -1    0    0    0  501 -0.00000000000E+00  0.00000000000E+00  0.18382047914E+03  0.18382047914E+03  0.00000000000E+00 0.  1.
          2   -1    0    0  501    0  0.00000000000E+00 -0.00000000000E+00 -0.35707991552E+04  0.35707991552E+04  0.00000000000E+00 0. -1.
         23    2    1    2    0    0  0.81229035514E+01 -0.15106027423E+02 -0.24681799686E+04  0.24699391824E+04  0.91613502182E+02 0.  0.
        254    2    1    2    0    0 -0.81229035514E+01  0.15106027423E+02 -0.91879870744E+03  0.12846804519E+04  0.89772970603E+03 0.  0.
        -24    2    4    4    0    0  0.87100689706E+02 -0.32744686325E+03 -0.84359011161E+03  0.91237572882E+03  0.77312455245E+02 0.  0.
         24    2    4    4    0    0 -0.95223593257E+02  0.34255289067E+03 -0.75208595827E+02  0.37230472308E+03  0.80897826459E+02 0.  0.
         11    1    3    3    0    0  0.96792042934E+01  0.24907558458E+02 -0.25487535116E+03  0.25627235140E+03  0.00000000000E+00 0.  1.
        -11    1    3    3    0    0 -0.15563007420E+01 -0.40013585881E+02 -0.22133046174E+04  0.22136668310E+04  0.00000000000E+00 0. -1.
          4    1    6    6  502    0 -0.73718902397E+02  0.21705266057E+03 -0.10485115840E+02  0.22946954413E+03  0.00000000000E+00 0. -1.
          1    1    5    5  503    0  0.36957678554E+02 -0.21237890443E+03 -0.61356549597E+03  0.65033321221E+03  0.00000000000E+00 0. -1.
         -2    1    5    5    0  503  0.50143011152E+02 -0.11506795882E+03 -0.23002461564E+03  0.26204251661E+03  0.00000000000E+00 0.  1.
         -3    1    6    6    0  502 -0.21504690861E+02  0.12550023010E+03 -0.64723479987E+02  0.14283517895E+03  0.00000000000E+00 0.  1.
<mgrwt>
<rscale>  0 0.16203531E+04</rscale>
<asrwt>0</asrwt>
<pdfrwt beam="1">  1        2 0.54935369E+00 0.16203531E+04</pdfrwt>
<pdfrwt beam="2">  1       -2 0.28280075E-01 0.16203531E+04</pdfrwt>
<totfact> 0.80378064E+00</totfact>
</mgrwt>
</event>
<event>
12    1  0.1501422E-007  0.1436056E+04  0.7818608E-02  0.8928125E-01
         -4   -1    0    0    0  501 -0.00000000000E+00  0.00000000000E+00  0.87123887362E+03  0.87123887362E+03  0.00000000000E+00 0.  1.
          4   -1    0    0  501    0  0.00000000000E+00 -0.00000000000E+00 -0.59175989041E+03  0.59175989041E+03  0.00000000000E+00 0. -1.
         23    2    1    2    0    0 -0.32338518564E+03  0.11920373974E+03 -0.17471845575E+03  0.39747897832E+03  0.93142308134E+02 0.  0.
        254    2    1    2    0    0  0.32338518564E+03 -0.11920373974E+03  0.45419743895E+03  0.10655197857E+04  0.90013865061E+03 0.  0.
        -24    2    4    4    0    0  0.41174036139E+03  0.13701441237E+03 -0.92600608407E+02  0.44977562389E+03  0.73621768352E+02 0.  0.
         24    2    4    4    0    0 -0.88355175748E+02 -0.25621815212E+03  0.54679804736E+03  0.61574416182E+03  0.81843690394E+02 0.  0.
         13    1    3    3    0    0 -0.48032048017E+02  0.46954848201E+02 -0.81721185175E+01  0.67665492885E+02  0.00000000000E+00 0.  1.
        -13    1    3    3    0    0 -0.27535313762E+03  0.72248891541E+02 -0.16654633723E+03  0.32981348543E+03  0.00000000000E+00 0. -1.
          4    1    6    6  502    0 -0.69329871610E+02 -0.25471272986E+03  0.50699728978E+03  0.57160428418E+03  0.00000000000E+00 0. -1.
          3    1    5    5  503    0  0.39684156582E+03  0.14496917383E+03 -0.94019527160E+02  0.43282671037E+03  0.00000000000E+00 0. -1.
         -4    1    5    5    0  503  0.14898795571E+02 -0.79547614519E+01  0.14189187524E+01  0.16948913524E+02  0.00000000000E+00 0.  1.
         -3    1    6    6    0  502 -0.19025304138E+02 -0.15054222602E+01  0.39800757583E+02  0.44139877638E+02  0.00000000000E+00 0.  1.
<mgrwt>
<rscale>  0 0.14360560E+04</rscale>
<asrwt>0</asrwt>
<pdfrwt beam="1">  1        4 0.91039983E-01 0.14360560E+04</pdfrwt>
<pdfrwt beam="2">  1       -4 0.13403675E+00 0.14360560E+04</pdfrwt>
<totfact> 0.79970144E-01</totfact>
</mgrwt>
</event>
<event>
12    1  0.1397649E-007  0.3580954E+04  0.7818608E-02  0.8094868E-01
         -2   -1    0    0    0  501 -0.00000000000E+00  0.00000000000E+00  0.23376427011E+04  0.23376427011E+04  0.00000000000E+00 0.  1.
          2   -1    0    0  501    0  0.00000000000E+00 -0.00000000000E+00 -0.13713848612E+04  0.13713848612E+04  0.00000000000E+00 0. -1.
         23    2    1    2    0    0 -0.63090455300E+03  0.99678966589E+03  0.16056318264E+04  0.19945539524E+04  0.92529531297E+02 0.  0.
        254    2    1    2    0    0  0.63090455300E+03 -0.99678966589E+03 -0.63937398649E+03  0.17144736099E+04  0.10672349654E+04 0.  0.
        -24    2    4    4    0    0 -0.17655175237E+03 -0.56930885671E+03 -0.87788618361E+01  0.60147772438E+03  0.80095498728E+02 0.  0.
         24    2    4    4    0    0  0.80745630537E+03 -0.42748080918E+03 -0.63059512466E+03  0.11129958855E+04  0.79900579389E+02 0.  0.
         11    1    3    3    0    0 -0.50103659323E+03  0.71645656945E+03  0.11961087755E+04  0.14815613003E+04  0.00000000000E+00 0.  1.
        -11    1    3    3    0    0 -0.12986795977E+03  0.28033309644E+03  0.40952305087E+03  0.51299265212E+03  0.00000000000E+00 0. -1.
          4    1    6    6  502    0  0.52941920205E+02 -0.51861363087E+02 -0.56866311636E+02  0.93414267087E+02  0.00000000000E+00 0. -1.
          1    1    5    5  503    0 -0.16036189843E+03 -0.39719641692E+03  0.67365389916E+00  0.42834727254E+03  0.00000000000E+00 0. -1.
         -2    1    5    5    0  503 -0.16189853941E+02 -0.17211243978E+03 -0.94525157352E+01  0.17313045183E+03  0.00000000000E+00 0.  1.
         -3    1    6    6    0  502  0.75451438517E+03 -0.37561944609E+03 -0.57372881302E+03  0.10195816184E+04  0.00000000000E+00 0.  1.
<mgrwt>
<rscale>  0 0.35809540E+04</rscale>
<asrwt>0</asrwt>
<pdfrwt beam="1">  1        2 0.21098229E+00 0.35809540E+04</pdfrwt>
<pdfrwt beam="2">  1       -2 0.35963734E+00 0.35809540E+04</pdfrwt>
<totfact> 0.16577079E-01</totfact>
</mgrwt>
</event>
<event>
12    1  0.1397649E-007  0.1355618E+04  0.7818608E-02  0.8986586E-01
         -2   -1    0    0    0  501 -0.00000000000E+00  0.00000000000E+00  0.19028731549E+03  0.19028731549E+03  0.00000000000E+00 0.  1.
          2   -1    0    0  501    0  0.00000000000E+00 -0.00000000000E+00 -0.24143743264E+04  0.24143743264E+04  0.00000000000E+00 0. -1.
         23    2    1    2    0    0  0.20652075427E+03 -0.20684988955E+03 -0.10859419162E+04  0.11278948877E+04  0.86251571403E+02 0.  0.
        254    2    1    2    0    0 -0.20652075427E+03  0.20684988955E+03 -0.11381450947E+04  0.14767667542E+04  0.89444289420E+03 0.  0.
        -24    2    4    4    0    0 -0.19900694669E+02  0.53867269745E+02  0.14159675465E+03  0.17257495968E+03  0.80216927024E+02 0.  0.
         24    2    4    4    0    0 -0.18662005960E+03  0.15298261980E+03 -0.12797418494E+04  0.13041917946E+04  0.70329988547E+02 0.  0.
         13    1    3    3    0    0  0.13550332743E+03 -0.15081067557E+03 -0.59247152438E+03  0.62620086139E+03  0.00000000000E+00 0. -1.
        -13    1    3    3    0    0  0.71017426832E+02 -0.56039213982E+02 -0.49347039183E+03  0.50169402631E+03  0.00000000000E+00 0.  1.
          2    1    6    6  502    0 -0.16192899975E+03  0.99891879144E+02 -0.10505050134E+04  0.10675955094E+04  0.00000000000E+00 0. -1.
          3    1    5    5  503    0 -0.78783453049E+00  0.39673820272E+02  0.12945988717E+02  0.41740044587E+02  0.00000000000E+00 0. -1.
         -4    1    5    5    0  503 -0.19112860138E+02  0.14193449473E+02  0.12865076594E+03  0.13083491509E+03  0.00000000000E+00 0.  1.
         -1    1    6    6    0  502 -0.24691059849E+02  0.53090740659E+02 -0.22923683598E+03  0.23659628515E+03  0.00000000000E+00 0.  1.
<mgrwt>
<rscale>  0 0.13556177E+04</rscale>
<asrwt>0</asrwt>
<pdfrwt beam="1">  1        2 0.37144220E+00 0.13556177E+04</pdfrwt>
<pdfrwt beam="2">  1       -2 0.29274972E-01 0.13556177E+04</pdfrwt>
<totfact> 0.41015742E+01</totfact>
</mgrwt>
</event>
<event>
12    1  0.1397649E-007  0.1771113E+04  0.7818608E-02  0.8721814E-01
         -1   -1    0    0    0  501 -0.00000000000E+00  0.00000000000E+00  0.14683257727E+04  0.14683257727E+04  0.00000000000E+00 0.  1.
          1   -1    0    0  501    0  0.00000000000E+00 -0.00000000000E+00 -0.53408494534E+03  0.53408494534E+03  0.00000000000E+00 0. -1.
         23    2    1    2    0    0 -0.18611001652E+03  0.61188501811E+03  0.13731013547E+03  0.66036350527E+03  0.90474704468E+02 0.  0.
        254    2    1    2    0    0  0.18611001652E+03 -0.61188501811E+03  0.79693069189E+03  0.13420472128E+04  0.87002987305E+03 0.  0.
        -24    2    4    4    0    0  0.43750762384E+02  0.12612804452E+03 -0.87846481082E+02  0.17832664855E+03  0.79126332671E+02 0.  0.
         24    2    4    4    0    0  0.14235925414E+03 -0.73801306263E+03  0.88477717297E+03  0.11637205642E+04  0.80532403035E+02 0.  0.
         13    1    3    3    0    0 -0.83106348646E+02  0.27242909305E+03  0.10727285375E+03  0.30435463045E+03  0.00000000000E+00 0.  1.
        -13    1    3    3    0    0 -0.10300366787E+03  0.33945592506E+03  0.30037281719E+02  0.35600887481E+03  0.00000000000E+00 0. -1.
          2    1    6    6  502    0  0.59849297250E+02 -0.16693745029E+03  0.17713556315E+03  0.25065326335E+03  0.00000000000E+00 0. -1.
          3    1    5    5  503    0 -0.23182791926E+02  0.38094764014E+02 -0.24611907991E+02  0.50935242237E+02  0.00000000000E+00 0. -1.
         -4    1    5    5    0  503  0.66933554310E+02  0.88033280504E+02 -0.63234573092E+02  0.12739140632E+03  0.00000000000E+00 0.  1.
         -1    1    6    6    0  502  0.82509956885E+02 -0.57107561233E+03  0.70764160981E+03  0.91306730087E+03  0.00000000000E+00 0.  1.
<mgrwt>
<rscale>  0 0.17711134E+04</rscale>
<asrwt>0</asrwt>
<pdfrwt beam="1">  1        1 0.82166915E-01 0.17711134E+04</pdfrwt>
<pdfrwt beam="2">  1       -1 0.22589627E+00 0.17711134E+04</pdfrwt>
<totfact> 0.38434588E+00</totfact>
</mgrwt>
</event>
<event>
12    1  0.1397649E-007  0.2436432E+04  0.7818608E-02  0.8425989E-01
          2   -1    0    0  501    0  0.00000000000E+00  0.00000000000E+00  0.11077736790E+04  0.11077736790E+04  0.00000000000E+00 0.  1.
         -2   -1    0    0    0  501 -0.00000000000E+00 -0.00000000000E+00 -0.13396687135E+04  0.13396687135E+04  0.00000000000E+00 0. -1.
         23    2    1    2    0    0  0.70188226226E+03  0.65139265134E+03  0.32985433999E+03  0.10169547574E+04  0.91880338620E+02 0.  0.
        254    2    1    2    0    0 -0.70188226226E+03 -0.65139265134E+03 -0.56174937453E+03  0.14304876351E+04  0.90209834169E+03 0.  0.
        -24    2    4    4    0    0  0.97977438121E+02  0.87337674891E+02 -0.25228925621E+03  0.29568160266E+03  0.80933883610E+02 0.  0.
         24    2    4    4    0    0 -0.79985970038E+03 -0.73873032623E+03 -0.30946011832E+03  0.11348060324E+04  0.80753521443E+02 0.  0.
         11    1    3    3    0    0  0.41884621313E+03  0.38183099192E+03  0.14750188847E+03  0.58564824233E+03  0.00000000000E+00 0. -1.
        -11    1    3    3    0    0  0.28303604913E+03  0.26956165942E+03  0.18235245152E+03  0.43130651504E+03  0.00000000000E+00 0.  1.
          2    1    6    6  502    0 -0.66577281428E+03 -0.59436619979E+03 -0.28136991891E+03  0.93578504527E+03  0.00000000000E+00 0. -1.
          1    1    5    5  503    0 -0.67710966517E+01 -0.46190060398E+01 -0.45949402129E+02  0.46674731094E+02  0.00000000000E+00 0. -1.
         -2    1    5    5    0  503  0.10474853477E+03  0.91956680931E+02 -0.20633985409E+03  0.24900687157E+03  0.00000000000E+00 0.  1.
         -1    1    6    6    0  502 -0.13408688610E+03 -0.14436412644E+03 -0.28090199414E+02  0.19902098716E+03  0.00000000000E+00 0.  1.
<mgrwt>
<rscale>  0 0.24364316E+04</rscale>
<asrwt>0</asrwt>
<pdfrwt beam="1">  1        2 0.17042672E+00 0.24364316E+04</pdfrwt>
<pdfrwt beam="2">  1       -2 0.20610288E+00 0.24364316E+04</pdfrwt>
<totfact> 0.23438119E+00</totfact>
</mgrwt>
</event>
<event>
12    1  0.1397649E-007  0.1888547E+04  0.7818608E-02  0.8660578E-01
          1   -1    0    0  501    0  0.00000000000E+00  0.00000000000E+00  0.24558745397E+04  0.24558745397E+04  0.00000000000E+00 0. -1.
         -1   -1    0    0    0  501 -0.00000000000E+00 -0.00000000000E+00 -0.36306920939E+03  0.36306920939E+03  0.00000000000E+00 0.  1.
         23    2    1    2    0    0  0.11921825612E+03 -0.31586310556E+03  0.17669881849E+04  0.18011563344E+04  0.89075257337E+02 0.  0.
        254    2    1    2    0    0 -0.11921825612E+03  0.31586310556E+03  0.32581714548E+03  0.10177874147E+04  0.90318985559E+03 0.  0.
        -24    2    4    4    0    0 -0.20135063254E+03 -0.28126593601E+03  0.11293027721E+03  0.37359400295E+03  0.84655936268E+02 0.  0.
         24    2    4    4    0    0  0.82132376427E+02  0.59712904157E+03  0.21288686827E+03  0.64419341177E+03  0.79721474842E+02 0.  0.
         13    1    3    3    0    0  0.10354601672E+03 -0.30903837181E+03  0.15726620068E+04  0.16060797865E+04  0.00000000000E+00 0. -1.
        -13    1    3    3    0    0  0.15672239398E+02 -0.68247337447E+01  0.19432617802E+03  0.19507654790E+03  0.00000000000E+00 0.  1.
          4    1    6    6  502    0  0.37140349109E+01  0.17705026018E+01  0.92168176097E+01  0.10093486099E+02  0.00000000000E+00 0. -1.
          1    1    5    5  503    0 -0.37477200466E+02 -0.11818585838E+03  0.26580791760E+02  0.12680290283E+03  0.00000000000E+00 0. -1.
         -2    1    5    5    0  503 -0.16387343208E+03 -0.16308007763E+03  0.86349485451E+02  0.24679110012E+03  0.00000000000E+00 0.  1.
         -3    1    6    6    0  502  0.78418341516E+02  0.59535853897E+03  0.20367005066E+03  0.63409992568E+03  0.00000000000E+00 0.  1.
<mgrwt>
<rscale>  0 0.18885470E+04</rscale>
<asrwt>0</asrwt>
<pdfrwt beam="1">  1        1 0.37782684E+00 0.18885470E+04</pdfrwt>
<pdfrwt beam="2">  1       -1 0.55856803E-01 0.18885470E+04</pdfrwt>
<totfact> 0.44165245E+00</totfact>
</mgrwt>
</event>
<event>
12    1  0.1397649E-007  0.1645903E+04  0.7818608E-02  0.8792834E-01
          2   -1    0    0  501    0  0.00000000000E+00  0.00000000000E+00  0.19548535535E+04  0.19548535535E+04  0.00000000000E+00 0. -1.
         -2   -1    0    0    0  501 -0.00000000000E+00 -0.00000000000E+00 -0.34644484714E+03  0.34644484714E+03  0.00000000000E+00 0.  1.
         23    2    1    2    0    0  0.19702635139E+03  0.19981234708E+03 -0.11234482342E+03  0.31603721683E+03  0.92270287114E+02 0.  0.
        254    2    1    2    0    0 -0.19702635139E+03 -0.19981234708E+03  0.17207535298E+04  0.19852611838E+04  0.94948665103E+03 0.  0.
        -24    2    4    4    0    0 -0.27879614610E+03 -0.37002847151E+03  0.31797537471E+03  0.56771493771E+03  0.80892216976E+02 0.  0.
         24    2    4    4    0    0  0.81769794703E+02  0.17021612443E+03  0.14027781551E+04  0.14175462461E+04  0.77401415590E+02 0.  0.
         13    1    3    3    0    0  0.15144470747E+03  0.17047381040E+03 -0.12546345160E+03  0.26026505171E+03  0.00000000000E+00 0.  1.
        -13    1    3    3    0    0  0.45581643923E+02  0.29338536681E+02  0.13118628180E+02  0.55772165124E+02  0.00000000000E+00 0. -1.
          4    1    6    6  502    0  0.92776935371E+02  0.13774972394E+03  0.10431776344E+04  0.10563153521E+04  0.00000000000E+00 0. -1.
          1    1    5    5  503    0 -0.15191585549E+03 -0.21379896477E+03  0.22691193127E+03  0.34681039349E+03  0.00000000000E+00 0. -1.
         -2    1    5    5    0  503 -0.12688029061E+03 -0.15622950675E+03  0.91063443445E+02  0.22090454422E+03  0.00000000000E+00 0.  1.
         -3    1    6    6    0  502 -0.11007140669E+02  0.32466400495E+02  0.35960052062E+03  0.36123089394E+03  0.00000000000E+00 0.  1.
<mgrwt>
<rscale>  0 0.16459027E+04</rscale>
<asrwt>0</asrwt>
<pdfrwt beam="1">  1        2 0.30074669E+00 0.16459027E+04</pdfrwt>
<pdfrwt beam="2">  1       -2 0.53299209E-01 0.16459027E+04</pdfrwt>
<totfact> 0.22448726E+01</totfact>
</mgrwt>
</event>
<event>
12    1  0.1397649E-007  0.1712819E+04  0.7818608E-02  0.8754087E-01
         -2   -1    0    0    0  501 -0.00000000000E+00  0.00000000000E+00  0.49626134143E+03  0.49626134143E+03  0.00000000000E+00 0.  1.
          2   -1    0    0  501    0  0.00000000000E+00 -0.00000000000E+00 -0.14779250546E+04  0.14779250546E+04  0.00000000000E+00 0. -1.
         23    2    1    2    0    0  0.26371853148E+02 -0.12796261635E+03  0.33703745497E+03  0.37272578176E+03  0.90886503454E+02 0.  0.
        254    2    1    2    0    0 -0.26371853148E+02  0.12796261635E+03 -0.13187011682E+04  0.16014606143E+04  0.89924046973E+03 0.  0.
        -24    2    4    4    0    0  0.18004112246E+03  0.43811947716E+03 -0.97939038816E+03  0.10911387484E+04  0.83754127241E+02 0.  0.
         24    2    4    4    0    0 -0.20641297561E+03 -0.31015686081E+03 -0.33931078002E+03  0.51032186589E+03  0.80579194333E+02 0.  0.
         11    1    3    3    0    0 -0.18244582453E+02 -0.11406141696E+02  0.12192201384E+02  0.24730843735E+02  0.00000000000E+00 0. -1.
        -11    1    3    3    0    0  0.44616435601E+02 -0.11655647466E+03  0.32484525359E+03  0.34799493802E+03  0.00000000000E+00 0.  1.
          2    1    6    6  502    0 -0.30648485452E+02 -0.10820025281E+03 -0.83939779589E+02  0.14033000736E+03  0.00000000000E+00 0. -1.
          1    1    5    5  503    0  0.14143545549E+03  0.40668326616E+03 -0.85941466603E+03  0.96124337981E+03  0.00000000000E+00 0. -1.
         -2    1    5    5    0  503  0.38605666971E+02  0.31436211004E+02 -0.11997572213E+03  0.12989536861E+03  0.00000000000E+00 0.  1.
         -1    1    6    6    0  502 -0.17576449016E+03 -0.20195660800E+03 -0.25537100043E+03  0.36999185852E+03  0.00000000000E+00 0.  1.
<mgrwt>
<rscale>  0 0.17128188E+04</rscale>
<asrwt>0</asrwt>
<pdfrwt beam="1">  1        2 0.22737308E+00 0.17128188E+04</pdfrwt>
<pdfrwt beam="2">  1       -2 0.76347900E-01 0.17128188E+04</pdfrwt>
<totfact> 0.19059985E+01</totfact>
</mgrwt>
</event>
<event>
12    1  0.1397649E-007  0.2015531E+04  0.7818608E-02  0.8599394E-01
         -2   -1    0    0    0  501 -0.00000000000E+00  0.00000000000E+00  0.44927222900E+03  0.44927222900E+03  0.00000000000E+00 0.  1.
          2   -1    0    0  501    0  0.00000000000E+00 -0.00000000000E+00 -0.22605259366E+04  0.22605259366E+04  0.00000000000E+00 0. -1.
         23    2    1    2    0    0 -0.58234178689E+03 -0.24468606876E+03 -0.13605170938E+04  0.15011098787E+04  0.57713745369E+02 0.  0.
        254    2    1    2    0    0  0.58234178689E+03  0.24468606876E+03 -0.45073661389E+03  0.12086882870E+04  0.92669879195E+03 0.  0.
        -24    2    4    4    0    0  0.69642098440E+03  0.11666940328E+03 -0.62904220533E+03  0.94883863694E+03  0.77373934160E+02 0.  0.
         24    2    4    4    0    0 -0.11407919752E+03  0.12801666548E+03  0.17830559145E+03  0.25984965005E+03  0.79540095175E+02 0.  0.
         13    1    3    3    0    0 -0.14856017637E+03 -0.50968870842E+02 -0.39389068904E+03  0.42404932108E+03  0.00000000000E+00 0.  1.
        -13    1    3    3    0    0 -0.43378161052E+03 -0.19371719792E+03 -0.96662640471E+03  0.10770605576E+04  0.00000000000E+00 0. -1.
          2    1    6    6  502    0  0.65385799384E+01  0.20075120254E+02  0.31353564922E+01  0.21344646663E+02  0.00000000000E+00 0. -1.
          1    1    5    5  503    0  0.78635619422E+02  0.38249820287E+02 -0.70842812516E+02  0.11254027492E+03  0.00000000000E+00 0. -1.
         -2    1    5    5    0  503  0.61778536498E+03  0.78419582991E+02 -0.55819939282E+03  0.83629836202E+03  0.00000000000E+00 0.  1.
         -1    1    6    6    0  502 -0.12061777745E+03  0.10794154523E+03  0.17517023496E+03  0.23850500338E+03  0.00000000000E+00 0.  1.
<mgrwt>
<rscale>  0 0.20155312E+04</rscale>
<asrwt>0</asrwt>
<pdfrwt beam="1">  1        2 0.34777323E+00 0.20155312E+04</pdfrwt>
<pdfrwt beam="2">  1       -2 0.69118804E-01 0.20155312E+04</pdfrwt>
<totfact> 0.84649074E+00</totfact>
</mgrwt>
</event>
<event>
12    1  0.1397649E-007  0.1795519E+04  0.7818608E-02  0.8708686E-01
         -2   -1    0    0    0  501 -0.00000000000E+00  0.00000000000E+00  0.26502337898E+03  0.26502337898E+03  0.00000000000E+00 0.  1.
          2   -1    0    0  501    0  0.00000000000E+00 -0.00000000000E+00 -0.30411375007E+04  0.30411375007E+04  0.00000000000E+00 0. -1.
         23    2    1    2    0    0 -0.26043824753E+03  0.15038271353E+03  0.53852277716E+02  0.32060846610E+03  0.97194029713E+02 0.  0.
        254    2    1    2    0    0  0.26043824753E+03 -0.15038271353E+03 -0.28299663994E+04  0.29855524136E+04  0.90242470658E+03 0.  0.
        -24    2    4    4    0    0  0.49344740763E+03  0.17591481426E+03 -0.13685429914E+04  0.14675316342E+04  0.79390251681E+02 0.  0.
         24    2    4    4    0    0 -0.23300916010E+03 -0.32629752779E+03 -0.14614234080E+04  0.15180207794E+04  0.88686886264E+02 0.  0.
         11    1    3    3    0    0 -0.74510052731E+02  0.21139194536E+01 -0.77748249380E+01  0.74944409506E+02  0.00000000000E+00 0. -1.
        -11    1    3    3    0    0 -0.18592819480E+03  0.14826879408E+03  0.61627102654E+02  0.24566405659E+03  0.00000000000E+00 0.  1.
          2    1    6    6  502    0 -0.21155286849E+03 -0.26574022828E+03 -0.11112358742E+04  0.11619886631E+04  0.00000000000E+00 0. -1.
          3    1    5    5  503    0  0.38583355773E+03  0.16127673017E+03 -0.11456702809E+04  0.12196057193E+04  0.00000000000E+00 0. -1.
         -4    1    5    5    0  503  0.10761384991E+03  0.14638084086E+02 -0.22287271047E+03  0.24792591488E+03  0.00000000000E+00 0.  1.
         -1    1    6    6    0  502 -0.21456291609E+02 -0.60557299519E+02 -0.35018753378E+03  0.35603211623E+03  0.00000000000E+00 0.  1.
<mgrwt>
<rscale>  0 0.17955195E+04</rscale>
<asrwt>0</asrwt>
<pdfrwt beam="1">  1        2 0.46786733E+00 0.17955195E+04</pdfrwt>
<pdfrwt beam="2">  1       -2 0.40772826E-01 0.17955195E+04</pdfrwt>
<totfact> 0.88611277E+00</totfact>
</mgrwt>
</event>
<event>
12    1  0.1397649E-007  0.2680136E+04  0.7818608E-02  0.8341479E-01
         -1   -1    0    0    0  501 -0.00000000000E+00  0.00000000000E+00  0.52051596729E+03  0.52051596729E+03  0.00000000000E+00 0.  1.
          1   -1    0    0  501    0  0.00000000000E+00 -0.00000000000E+00 -0.34500051982E+04  0.34500051982E+04  0.00000000000E+00 0. -1.
         23    2    1    2    0    0  0.78816138491E+03  0.52143345931E+03 -0.23821232206E+04  0.25643274985E+04  0.90406088150E+02 0.  0.
        254    2    1    2    0    0 -0.78816138491E+03 -0.52143345931E+03 -0.54736601033E+03  0.14061936669E+04  0.88582157259E+03 0.  0.
        -24    2    4    4    0    0 -0.67380328875E+03 -0.40497648420E+02 -0.59441077207E+03  0.90299437024E+03  0.80148208174E+02 0.  0.
         24    2    4    4    0    0 -0.11435809616E+03 -0.48093581089E+03  0.47044761744E+02  0.50319929668E+03  0.81359045092E+02 0.  0.
         11    1    3    3    0    0  0.51973390478E+03  0.37555370343E+03 -0.15220071726E+04  0.16515658477E+04  0.00000000000E+00 0. -1.
        -11    1    3    3    0    0  0.26842748013E+03  0.14587975588E+03 -0.86011604796E+03  0.91276165082E+03  0.00000000000E+00 0.  1.
          2    1    6    6  502    0 -0.27530257543E+02 -0.28880260871E+03  0.30452177561E+02  0.29170566844E+03  0.00000000000E+00 0. -1.
          1    1    5    5  503    0 -0.26277322770E+03 -0.20949788568E+00 -0.18428329226E+03  0.32095193549E+03  0.00000000000E+00 0. -1.
         -2    1    5    5    0  503 -0.41103006105E+03 -0.40288150534E+02 -0.41012747981E+03  0.58204243475E+03  0.00000000000E+00 0.  1.
         -1    1    6    6    0  502 -0.86827838620E+02 -0.19213320218E+03  0.16592584183E+02  0.21149362825E+03  0.00000000000E+00 0.  1.
<mgrwt>
<rscale>  0 0.26801364E+04</rscale>
<asrwt>0</asrwt>
<pdfrwt beam="1">  1        1 0.53077003E+00 0.26801364E+04</pdfrwt>
<pdfrwt beam="2">  1       -1 0.80079379E-01 0.26801364E+04</pdfrwt>
<totfact> 0.37241581E-01</totfact>
</mgrwt>
</event>
<event>
12    1  0.1397649E-007  0.2008659E+04  0.7818608E-02  0.8602583E-01
         -1   -1    0    0    0  501 -0.00000000000E+00  0.00000000000E+00  0.18961013739E+04  0.18961013739E+04  0.00000000000E+00 0.  1.
          1   -1    0    0  501    0  0.00000000000E+00 -0.00000000000E+00 -0.53197476812E+03  0.53197476812E+03  0.00000000000E+00 0. -1.
         23    2    1    2    0    0  0.77252270876E+02  0.19991203449E+03 -0.38510178215E+03  0.44978955490E+03  0.89858367383E+02 0.  0.
        254    2    1    2    0    0 -0.77252270876E+02 -0.19991203449E+03  0.17492283880E+04  0.19782865871E+04  0.89882430584E+03 0.  0.
        -24    2    4    4    0    0  0.39126009918E+03 -0.12890308070E+03  0.10421046055E+04  0.11233891175E+04  0.79502396350E+02 0.  0.
         24    2    4    4    0    0 -0.46851237006E+03 -0.71008953798E+02  0.70712378243E+03  0.85489746965E+03  0.79243469879E+02 0.  0.
         11    1    3    3    0    0 -0.14365020221E+02  0.42614359399E+02 -0.12051080090E+03  0.12862810956E+03  0.00000000000E+00 0. -1.
        -11    1    3    3    0    0  0.91617291097E+02  0.15729767509E+03 -0.26459098124E+03  0.32116144534E+03  0.00000000000E+00 0.  1.
          2    1    6    6  502    0 -0.36298318002E+03 -0.33019025472E+02  0.58345189678E+03  0.68794124813E+03  0.00000000000E+00 0. -1.
          3    1    5    5  503    0  0.32617681070E+03 -0.13611736231E+03  0.85580579072E+03  0.92591727470E+03  0.00000000000E+00 0. -1.
         -4    1    5    5    0  503  0.65083288483E+02  0.72142816107E+01  0.18629881481E+03  0.19747184280E+03  0.00000000000E+00 0.  1.
         -1    1    6    6    0  502 -0.10552919004E+03 -0.37989928326E+02  0.12367188564E+03  0.16695622152E+03  0.00000000000E+00 0.  1.
<mgrwt>
<rscale>  0 0.20086593E+04</rscale>
<asrwt>0</asrwt>
<pdfrwt beam="1">  1        1 0.81842273E-01 0.20086593E+04</pdfrwt>
<pdfrwt beam="2">  1       -1 0.29170790E+00 0.20086593E+04</pdfrwt>
<totfact> 0.14092973E+00</totfact>
</mgrwt>
</event>
<event>
12    1  0.1397649E-007  0.1979246E+04  0.7818608E-02  0.8616386E-01
         -1   -1    0    0    0  501 -0.00000000000E+00  0.00000000000E+00  0.42675252085E+03  0.42675252085E+03  0.00000000000E+00 0.  1.
          1   -1    0    0  501    0  0.00000000000E+00 -0.00000000000E+00 -0.22948995193E+04  0.22948995193E+04  0.00000000000E+00 0. -1.
         23    2    1    2    0    0  0.75660327905E+02 -0.45596414462E+03  0.11785618276E+03  0.48599767092E+03  0.93144349937E+02 0.  0.
        254    2    1    2    0    0 -0.75660327905E+02  0.45596414462E+03 -0.19860031812E+04  0.22356543693E+04  0.91668644394E+03 0.  0.
        -24    2    4    4    0    0 -0.28803367001E+03 -0.18156862375E+03 -0.66577836558E+03  0.75196840361E+03  0.79152307363E+02 0.  0.
         24    2    4    4    0    0  0.21237334211E+03  0.63753276837E+03 -0.13202248157E+04  0.14836859657E+04  0.82340838049E+02 0.  0.
         13    1    3    3    0    0  0.92371648036E+02 -0.34879567963E+03  0.70481167771E+02  0.36763914713E+03  0.00000000000E+00 0. -1.
        -13    1    3    3    0    0 -0.16711320131E+02 -0.10716846499E+03  0.47375014990E+02  0.11835852379E+03  0.00000000000E+00 0.  1.
          2    1    6    6  502    0  0.63379218936E+02  0.26060034610E+03 -0.45340625387E+03  0.52678904395E+03  0.00000000000E+00 0. -1.
          1    1    5    5  503    0 -0.23388337538E+02 -0.13337127163E+02 -0.11560986419E+03  0.11870355509E+03  0.00000000000E+00 0. -1.
         -2    1    5    5    0  503 -0.26464533247E+03 -0.16823149659E+03 -0.55016850139E+03  0.63326484852E+03  0.00000000000E+00 0.  1.
         -1    1    6    6    0  502  0.14899412317E+03  0.37693242228E+03 -0.86681856179E+03  0.95689692170E+03  0.00000000000E+00 0.  1.
<mgrwt>
<rscale>  0 0.19792465E+04</rscale>
<asrwt>0</asrwt>
<pdfrwt beam="1">  1        1 0.35306145E+00 0.19792465E+04</pdfrwt>
<pdfrwt beam="2">  1       -1 0.65654236E-01 0.19792465E+04</pdfrwt>
<totfact> 0.41009297E+00</totfact>
</mgrwt>
</event>
<event>
12    1  0.1397649E-007  0.2394277E+04  0.7818608E-02  0.8441649E-01
          2   -1    0    0  501    0  0.00000000000E+00  0.00000000000E+00  0.98975386284E+03  0.98975386284E+03  0.00000000000E+00 0. -1.
         -2   -1    0    0    0  501 -0.00000000000E+00 -0.00000000000E+00 -0.14479764410E+04  0.14479764410E+04  0.00000000000E+00 0.  1.
         23    2    1    2    0    0 -0.72919999264E+03 -0.54938939712E+03  0.27714889577E+03  0.95848212015E+03  0.91187308791E+02 0.  0.
        254    2    1    2    0    0  0.72919999264E+03  0.54938939712E+03 -0.73537147395E+03  0.14792481837E+04  0.90213227709E+03 0.  0.
        -24    2    4    4    0    0  0.20061026141E+03 -0.14719412034E+03 -0.51092955704E+03  0.57288279228E+03  0.72353958994E+02 0.  0.
         24    2    4    4    0    0  0.52858973123E+03  0.69658351746E+03 -0.22444191691E+03  0.90636539143E+03  0.80550282216E+02 0.  0.
         11    1    3    3    0    0 -0.31905782146E+03 -0.18588016367E+03  0.10091549898E+03  0.38279663872E+03  0.00000000000E+00 0.  1.
        -11    1    3    3    0    0 -0.41014217118E+03 -0.36350923345E+03  0.17623339679E+03  0.57568548143E+03  0.00000000000E+00 0. -1.
          4    1    6    6  502    0  0.48838609478E+03  0.66170821706E+03 -0.19378352936E+03  0.84494425754E+03  0.00000000000E+00 0. -1.
          1    1    5    5  503    0  0.90053524290E+02 -0.10681481176E+03 -0.30979644840E+03  0.33984243509E+03  0.00000000000E+00 0. -1.
         -2    1    5    5    0  503  0.11055673712E+03 -0.40379308572E+02 -0.20113310865E+03  0.23304035719E+03  0.00000000000E+00 0.  1.
         -3    1    6    6    0  502  0.40203636450E+02  0.34875300399E+02 -0.30658387545E+02  0.61421133892E+02  0.00000000000E+00 0.  1.
<mgrwt>
<rscale>  0 0.23942767E+04</rscale>
<asrwt>0</asrwt>
<pdfrwt beam="1">  1        2 0.15226982E+00 0.23942767E+04</pdfrwt>
<pdfrwt beam="2">  1       -2 0.22276561E+00 0.23942767E+04</pdfrwt>
<totfact> 0.21838072E+00</totfact>
</mgrwt>
</event>
<event>
12    1  0.1397649E-007  0.1542027E+04  0.7818608E-02  0.8856977E-01
         -1   -1    0    0    0  501 -0.00000000000E+00  0.00000000000E+00  0.24165754457E+03  0.24165754457E+03  0.00000000000E+00 0.  1.
          1   -1    0    0  501    0  0.00000000000E+00 -0.00000000000E+00 -0.24599341375E+04  0.24599341375E+04  0.00000000000E+00 0. -1.
         23    2    1    2    0    0  0.40096230545E+03  0.30885980998E+03 -0.84119147584E+03  0.98594140923E+03  0.91171326615E+02 0.  0.
        254    2    1    2    0    0 -0.40096230545E+03 -0.30885980998E+03 -0.13770851171E+04  0.17156502729E+04  0.88934092809E+03 0.  0.
        -24    2    4    4    0    0 -0.19331951066E+03 -0.57049915436E+03 -0.54728287811E+03  0.81763422623E+03  0.78520448899E+02 0.  0.
         24    2    4    4    0    0 -0.20764279479E+03  0.26163934438E+03 -0.82980223900E+03  0.89801604663E+03  0.79311962544E+02 0.  0.
         11    1    3    3    0    0  0.33441492146E+02  0.32601492153E+02 -0.36945722263E+02  0.59549786575E+02  0.00000000000E+00 0.  1.
        -11    1    3    3    0    0  0.36752081330E+03  0.27625831783E+03 -0.80424575358E+03  0.92639162266E+03  0.00000000000E+00 0. -1.
          2    1    6    6  502    0 -0.21254404526E+03  0.25861475837E+03 -0.79289268376E+03  0.86065984708E+03  0.00000000000E+00 0. -1.
          1    1    5    5  503    0 -0.18283935496E+03 -0.48783280940E+03 -0.49864292844E+03  0.72114897888E+03  0.00000000000E+00 0. -1.
         -2    1    5    5    0  503 -0.10480155702E+02 -0.82666344956E+02 -0.48639949670E+02  0.96485247348E+02  0.00000000000E+00 0.  1.
         -1    1    6    6    0  502  0.49012504668E+01  0.30245860092E+01 -0.36909555243E+02  0.37356199551E+02  0.00000000000E+00 0.  1.
<mgrwt>
<rscale>  0 0.15420268E+04</rscale>
<asrwt>0</asrwt>
<pdfrwt beam="1">  1        1 0.37845141E+00 0.15420268E+04</pdfrwt>
<pdfrwt beam="2">  1       -1 0.37178083E-01 0.15420268E+04</pdfrwt>
<totfact> 0.97106316E+00</totfact>
</mgrwt>
</event>
<event>
12    1  0.1397649E-007  0.1102159E+04  0.7818608E-02  0.9203090E-01
          1   -1    0    0  501    0  0.00000000000E+00  0.00000000000E+00  0.50929517779E+03  0.50929517779E+03  0.00000000000E+00 0. -1.
         -1   -1    0    0    0  501 -0.00000000000E+00 -0.00000000000E+00 -0.59629227919E+03  0.59629227919E+03  0.00000000000E+00 0.  1.
         23    2    1    2    0    0 -0.11014883219E+03 -0.14275933333E+03  0.12637727611E+02  0.20275903911E+03  0.91861435298E+02 0.  0.
        254    2    1    2    0    0  0.11014883219E+03  0.14275933333E+03 -0.99634829007E+02  0.90282841787E+03  0.87901027324E+03 0.  0.
        -24    2    4    4    0    0 -0.34673502153E+03  0.46593931681E+02  0.12300346033E+03  0.37934283077E+03  0.79843361542E+02 0.  0.
         24    2    4    4    0    0  0.45688385372E+03  0.96165401654E+02 -0.22263828934E+03  0.52348558709E+03  0.80490445096E+02 0.  0.
         11    1    3    3    0    0 -0.32593811441E+01 -0.22281193540E+01 -0.22406904071E+02  0.22752086308E+02  0.00000000000E+00 0.  1.
        -11    1    3    3    0    0 -0.10688945105E+03 -0.14053121398E+03  0.35044631682E+02  0.18000695280E+03  0.00000000000E+00 0. -1.
          2    1    6    6  502    0  0.31481220945E+03  0.39804044992E+02 -0.11938118018E+03  0.33903238104E+03  0.00000000000E+00 0. -1.
          1    1    5    5  503    0 -0.10970341416E+03  0.25510929524E+02  0.78402360219E+02  0.13723183556E+03  0.00000000000E+00 0. -1.
         -2    1    5    5    0  503 -0.23703160737E+03  0.21083002157E+02  0.44601100110E+02  0.24211099521E+03  0.00000000000E+00 0.  1.
         -1    1    6    6    0  502  0.14207164427E+03  0.56361356661E+02 -0.10325710916E+03  0.18445320605E+03  0.00000000000E+00 0.  1.
<mgrwt>
<rscale>  0 0.11021593E+04</rscale>
<asrwt>0</asrwt>
<pdfrwt beam="1">  1        1 0.78353105E-01 0.11021593E+04</pdfrwt>
<pdfrwt beam="2">  1       -1 0.91737273E-01 0.11021593E+04</pdfrwt>
<totfact> 0.49869914E+01</totfact>
</mgrwt>
</event>
<event>
12    1  0.1397649E-007  0.1090933E+04  0.7818608E-02  0.9214074E-01
          1   -1    0    0  501    0  0.00000000000E+00  0.00000000000E+00  0.38957314111E+03  0.38957314111E+03  0.00000000000E+00 0. -1.
         -1   -1    0    0    0  501 -0.00000000000E+00 -0.00000000000E+00 -0.76374351803E+03  0.76374351803E+03  0.00000000000E+00 0.  1.
         23    2    1    2    0    0  0.79588534630E+02  0.14382776911E+03 -0.12285073920E+03  0.22537973075E+03  0.93182385125E+02 0.  0.
        254    2    1    2    0    0 -0.79588534630E+02 -0.14382776911E+03 -0.25131963771E+03  0.92793692839E+03  0.87800035351E+03 0.  0.
        -24    2    4    4    0    0 -0.22049232167E+03  0.60511794094E+02 -0.50746968894E+03  0.56217269201E+03  0.78956375978E+02 0.  0.
         24    2    4    4    0    0  0.14090378704E+03 -0.20433956320E+03  0.25615005124E+03  0.36576423638E+03  0.81006750149E+02 0.  0.
         11    1    3    3    0    0  0.57800895791E+02  0.13931950757E+03 -0.66589410252E+02  0.16487879882E+03  0.00000000000E+00 0. -1.
        -11    1    3    3    0    0  0.21787638839E+02  0.45082615394E+01 -0.56261328952E+02  0.60500931925E+02  0.00000000000E+00 0.  1.
          4    1    6    6  502    0 -0.64660860146E+01 -0.38498453734E+02  0.43560463706E+02  0.58493206499E+02  0.00000000000E+00 0. -1.
          1    1    5    5  503    0 -0.11828671597E+03 -0.64138914013E+01 -0.22115647230E+03  0.25088457589E+03  0.00000000000E+00 0. -1.
         -2    1    5    5    0  503 -0.10220560570E+03  0.66925685495E+02 -0.28631321664E+03  0.31128811612E+03  0.00000000000E+00 0.  1.
         -3    1    6    6    0  502  0.14736987306E+03 -0.16584110947E+03  0.21258958753E+03  0.30727102988E+03  0.00000000000E+00 0.  1.
<mgrwt>
<rscale>  0 0.10909335E+04</rscale>
<asrwt>0</asrwt>
<pdfrwt beam="1">  1        1 0.59934329E-01 0.10909335E+04</pdfrwt>
<pdfrwt beam="2">  1       -1 0.11749900E+00 0.10909335E+04</pdfrwt>
<totfact> 0.40399730E+01</totfact>
</mgrwt>
</event>
<event>
12    1  0.1397649E-007  0.2075387E+04  0.7818608E-02  0.8572164E-01
          2   -1    0    0  501    0  0.00000000000E+00  0.00000000000E+00  0.22041832555E+04  0.22041832555E+04  0.00000000000E+00 0. -1.
         -2   -1    0    0    0  501 -0.00000000000E+00 -0.00000000000E+00 -0.48852918346E+03  0.48852918346E+03  0.00000000000E+00 0.  1.
         23    2    1    2    0    0  0.29428401300E+03  0.41047526838E+03 -0.16938027139E+03  0.54056644186E+03  0.91811630380E+02 0.  0.
        254    2    1    2    0    0 -0.29428401300E+03 -0.41047526838E+03  0.18850343434E+04  0.21521459971E+04  0.90735047837E+03 0.  0.
        -24    2    4    4    0    0 -0.20590670782E+03  0.10545648525E+03  0.57702287044E+02  0.24962921186E+03  0.73936099963E+02 0.  0.
         24    2    4    4    0    0 -0.88377305184E+02 -0.51593175363E+03  0.18273320564E+04  0.19025167852E+04  0.80196953126E+02 0.  0.
         11    1    3    3    0    0  0.59494666805E+02  0.15619729259E+03 -0.60241795469E+02  0.17766902800E+03  0.00000000000E+00 0.  1.
        -11    1    3    3    0    0  0.23478934620E+03  0.25427797579E+03 -0.10913847592E+03  0.36289741386E+03  0.00000000000E+00 0. -1.
          2    1    6    6  502    0 -0.21459285807E+02 -0.20458163151E+03  0.58883019726E+03  0.62372682009E+03  0.00000000000E+00 0. -1.
          1    1    5    5  503    0 -0.23531692122E+02  0.44081723336E+02  0.56490568694E+01  0.50287679505E+02  0.00000000000E+00 0. -1.
         -2    1    5    5    0  503 -0.18237501570E+03  0.61374761915E+02  0.52053230175E+02  0.19934153236E+03  0.00000000000E+00 0.  1.
         -1    1    6    6    0  502 -0.66918019377E+02 -0.31135012212E+03  0.12385018591E+04  0.12787899651E+04  0.00000000000E+00 0.  1.
<mgrwt>
<rscale>  0 0.20753870E+04</rscale>
<asrwt>0</asrwt>
<pdfrwt beam="1">  1        2 0.33910511E+00 0.20753870E+04</pdfrwt>
<pdfrwt beam="2">  1       -2 0.75158337E-01 0.20753870E+04</pdfrwt>
<totfact> 0.75371671E+00</totfact>
</mgrwt>
</event>
<event>
12    1  0.1397649E-007  0.3256671E+04  0.7818608E-02  0.8174009E-01
         -1   -1    0    0    0  501 -0.00000000000E+00  0.00000000000E+00  0.67332336028E+03  0.67332336028E+03  0.00000000000E+00 0.  1.
          1   -1    0    0  501    0  0.00000000000E+00 -0.00000000000E+00 -0.39378937927E+04  0.39378937927E+04  0.00000000000E+00 0. -1.
         23    2    1    2    0    0 -0.13654491859E+04 -0.62594359371E+03 -0.14690058557E+04  0.21029830549E+04  0.91118952490E+02 0.  0.
        254    2    1    2    0    0  0.13654491859E+04  0.62594359371E+03 -0.17955645768E+04  0.25082340981E+04  0.90051611856E+03 0.  0.
        -24    2    4    4    0    0  0.30628163975E+03  0.61193231609E+03 -0.68723716745E+03  0.97303576135E+03  0.78956103077E+02 0.  0.
         24    2    4    4    0    0  0.10591675461E+04  0.14011277621E+02 -0.11083274093E+04  0.15351983367E+04  0.80075465880E+02 0.  0.
         11    1    3    3    0    0 -0.97493743554E+03 -0.48725146559E+03 -0.10888011418E+04  0.15405859017E+04  0.00000000000E+00 0.  1.
        -11    1    3    3    0    0 -0.39051175033E+03 -0.13869212812E+03 -0.38020471385E+03  0.56239715325E+03  0.00000000000E+00 0. -1.
          2    1    6    6  502    0  0.15625097943E+03  0.77260026696E+01 -0.12545950476E+03  0.20053465292E+03  0.00000000000E+00 0. -1.
          3    1    5    5  503    0  0.58049211529E+02  0.69089079905E+02 -0.68378410902E+02  0.11321934021E+03  0.00000000000E+00 0. -1.
         -4    1    5    5    0  503  0.24823242822E+03  0.54284323619E+03 -0.61885875655E+03  0.85981642113E+03  0.00000000000E+00 0.  1.
         -1    1    6    6    0  502  0.90291656669E+03  0.62852749518E+01 -0.98286790454E+03  0.13346636838E+04  0.00000000000E+00 0.  1.
<mgrwt>
<rscale>  0 0.32566706E+04</rscale>
<asrwt>0</asrwt>
<pdfrwt beam="1">  1        1 0.60582981E+00 0.32566706E+04</pdfrwt>
<pdfrwt beam="2">  1       -1 0.10358821E+00 0.32566706E+04</pdfrwt>
<totfact> 0.79394547E-02</totfact>
</mgrwt>
</event>
<event>
12    1  0.1397649E-007  0.1936259E+04  0.7818608E-02  0.8637016E-01
         -1   -1    0    0    0  501 -0.00000000000E+00  0.00000000000E+00  0.45205858583E+03  0.45205858583E+03  0.00000000000E+00 0.  1.
          1   -1    0    0  501    0  0.00000000000E+00 -0.00000000000E+00 -0.20733470562E+04  0.20733470562E+04  0.00000000000E+00 0. -1.
         23    2    1    2    0    0  0.69034433121E+03 -0.27830467043E+03 -0.51645195341E+03  0.91059304808E+03  0.91805739506E+02 0.  0.
        254    2    1    2    0    0 -0.69034433121E+03  0.27830467043E+03 -0.11048365170E+04  0.16148125940E+04  0.91264845323E+03 0.  0.
        -24    2    4    4    0    0 -0.11145189135E+03  0.11155805461E+03  0.14308423121E+03  0.22680111950E+03  0.78095626961E+02 0.  0.
         24    2    4    4    0    0 -0.57889243986E+03  0.16674661582E+03 -0.12479207482E+04  0.13880114745E+04  0.79679160913E+02 0.  0.
         13    1    3    3    0    0  0.22753344749E+03 -0.12850782061E+03 -0.21422791458E+03  0.33790431940E+03  0.00000000000E+00 0. -1.
        -13    1    3    3    0    0  0.46281088372E+03 -0.14979684983E+03 -0.30222403884E+03  0.57268872868E+03  0.00000000000E+00 0.  1.
          4    1    6    6  502    0 -0.15743092290E+03  0.25971197703E+02 -0.40149884367E+03  0.43204203507E+03  0.00000000000E+00 0. -1.
          3    1    5    5  503    0  0.26935809384E+00  0.19004209314E+01  0.38470099520E+02  0.38517953094E+02  0.00000000000E+00 0. -1.
         -4    1    5    5    0  503 -0.11172124945E+03  0.10965763368E+03  0.10461413169E+03  0.18828316640E+03  0.00000000000E+00 0.  1.
         -3    1    6    6    0  502 -0.42146151696E+03  0.14077541812E+03 -0.84642190454E+03  0.95596943943E+03  0.00000000000E+00 0.  1.
<mgrwt>
<rscale>  0 0.19362586E+04</rscale>
<asrwt>0</asrwt>
<pdfrwt beam="1">  1        1 0.31897647E+00 0.19362586E+04</pdfrwt>
<pdfrwt beam="2">  1       -1 0.69547475E-01 0.19362586E+04</pdfrwt>
<totfact> 0.51820669E+00</totfact>
</mgrwt>
</event>
<event>
12    1  0.1397649E-007  0.1236808E+04  0.7818608E-02  0.9081235E-01
          1   -1    0    0  501    0  0.00000000000E+00  0.00000000000E+00  0.23623172035E+04  0.23623172035E+04  0.00000000000E+00 0. -1.
         -1   -1    0    0    0  501 -0.00000000000E+00 -0.00000000000E+00 -0.16188496201E+03  0.16188496201E+03  0.00000000000E+00 0.  1.
         23    2    1    2    0    0  0.44806731274E+01  0.11605975685E+03  0.10539643422E+02  0.15404026202E+03  0.10063485802E+03 0.  0.
        254    2    1    2    0    0 -0.44806731274E+01 -0.11605975685E+03  0.21898925980E+04  0.23701619035E+04  0.89919292375E+03 0.  0.
        -24    2    4    4    0    0 -0.23703374041E+03 -0.13383426009E+03  0.20821877776E+04  0.21014838748E+04  0.81436671090E+02 0.  0.
         24    2    4    4    0    0  0.23255306728E+03  0.17774503242E+02  0.10770482041E+03  0.26867802868E+03  0.78680955079E+02 0.  0.
         13    1    3    3    0    0  0.13010405390E+02  0.18999317082E+02  0.45115896911E+02  0.50652629271E+02  0.00000000000E+00 0. -1.
        -13    1    3    3    0    0 -0.85297322621E+01  0.97060439765E+02 -0.34576253489E+02  0.10338763275E+03  0.00000000000E+00 0.  1.
          4    1    6    6  502    0  0.30505390749E+02 -0.24204292152E+02  0.25485092156E+02  0.46539408522E+02  0.00000000000E+00 0. -1.
          1    1    5    5  503    0  0.29835483083E+01 -0.15485535154E+02  0.85461768476E+02  0.86904644471E+02  0.00000000000E+00 0. -1.
         -2    1    5    5    0  503 -0.24001728871E+03 -0.11834872494E+03  0.19967260091E+04  0.20145792303E+04  0.00000000000E+00 0.  1.
         -3    1    6    6    0  502  0.20204767653E+03  0.41978795394E+02  0.82219728250E+02  0.22213862016E+03  0.00000000000E+00 0.  1.
<mgrwt>
<rscale>  0 0.12368082E+04</rscale>
<asrwt>0</asrwt>
<pdfrwt beam="1">  1        1 0.36343339E+00 0.12368082E+04</pdfrwt>
<pdfrwt beam="2">  1       -1 0.24905381E-01 0.12368082E+04</pdfrwt>
<totfact> 0.23572786E+01</totfact>
</mgrwt>
</event>
<event>
12    1  0.1397649E-007  0.1334098E+04  0.7818608E-02  0.9002954E-01
         -1   -1    0    0    0  501 -0.00000000000E+00  0.00000000000E+00  0.14769249647E+03  0.14769249647E+03  0.00000000000E+00 0.  1.
          1   -1    0    0  501    0  0.00000000000E+00 -0.00000000000E+00 -0.30127077841E+04  0.30127077841E+04  0.00000000000E+00 0. -1.
         23    2    1    2    0    0  0.29042528762E+03  0.17614107829E+03 -0.56971225322E+03  0.67045311967E+03  0.97789606095E+02 0.  0.
        254    2    1    2    0    0 -0.29042528762E+03 -0.17614107829E+03 -0.22953030345E+04  0.24899471609E+04  0.90335392683E+03 0.  0.
        -24    2    4    4    0    0  0.26929345203E+03  0.52687764356E+02 -0.12289879923E+04  0.12618540303E+04  0.81050259929E+02 0.  0.
         24    2    4    4    0    0 -0.55971873965E+03 -0.22882884264E+03 -0.10663150421E+04  0.12280931306E+04  0.74412779463E+02 0.  0.
         11    1    3    3    0    0  0.19765166595E+03  0.78214094720E+02 -0.28637307471E+03  0.35664150570E+03  0.00000000000E+00 0.  1.
        -11    1    3    3    0    0  0.92773621670E+02  0.97926983567E+02 -0.28333917851E+03  0.31381161397E+03  0.00000000000E+00 0. -1.
          4    1    6    6  502    0 -0.29372826260E+03 -0.83990421592E+02 -0.56846193213E+03  0.64535234674E+03  0.00000000000E+00 0. -1.
          1    1    5    5  503    0  0.15841091881E+03  0.43203206069E+02 -0.89138151994E+03  0.90637826005E+03  0.00000000000E+00 0. -1.
         -2    1    5    5    0  503  0.11088253322E+03  0.94845582874E+01 -0.33760647240E+03  0.35547577024E+03  0.00000000000E+00 0.  1.
         -3    1    6    6    0  502 -0.26599047705E+03 -0.14483842105E+03 -0.49785310999E+03  0.58274078390E+03  0.00000000000E+00 0.  1.
<mgrwt>
<rscale>  0 0.13340979E+04</rscale>
<asrwt>0</asrwt>
<pdfrwt beam="1">  1        1 0.46349345E+00 0.13340979E+04</pdfrwt>
<pdfrwt beam="2">  1       -1 0.22721925E-01 0.13340979E+04</pdfrwt>
<totfact> 0.95459360E+00</totfact>
</mgrwt>
</event>
<event>
12    1  0.1397649E-007  0.1683941E+04  0.7818608E-02  0.8770577E-01
         -1   -1    0    0    0  501 -0.00000000000E+00  0.00000000000E+00  0.10090737648E+04  0.10090737648E+04  0.00000000000E+00 0.  1.
          1   -1    0    0  501    0  0.00000000000E+00 -0.00000000000E+00 -0.70253959749E+03  0.70253959749E+03  0.00000000000E+00 0. -1.
         23    2    1    2    0    0  0.13335178275E+03 -0.58423517306E+03  0.69662016609E+02  0.61000985544E+03  0.90254040188E+02 0.  0.
        254    2    1    2    0    0 -0.13335178275E+03  0.58423517306E+03  0.23687215071E+03  0.11016035069E+04  0.89348107710E+03 0.  0.
        -24    2    4    4    0    0 -0.42649127325E+03  0.59118122110E+03  0.29886264284E+03  0.79192237822E+03  0.80200570460E+02 0.  0.
         24    2    4    4    0    0  0.29313949050E+03 -0.69460480418E+01 -0.61990492125E+02  0.30968112864E+03  0.77978021563E+02 0.  0.
         11    1    3    3    0    0  0.16981039481E+02 -0.41313126509E+02 -0.17469259384E+02  0.47961496507E+02  0.00000000000E+00 0. -1.
        -11    1    3    3    0    0  0.11637074326E+03 -0.54292204655E+03  0.87131275993E+02  0.56204835893E+03  0.00000000000E+00 0.  1.
          2    1    6    6  502    0  0.12290408913E+03 -0.34214971566E+02 -0.35061605013E+01  0.12762590867E+03  0.00000000000E+00 0. -1.
          1    1    5    5  503    0 -0.42237990816E+03  0.57138910487E+03  0.30082529308E+03  0.77161269620E+03  0.00000000000E+00 0. -1.
         -2    1    5    5    0  503 -0.41113650912E+01  0.19792116237E+02 -0.19626502394E+01  0.20309682026E+02  0.00000000000E+00 0.  1.
         -1    1    6    6    0  502  0.17023540137E+03  0.27268923524E+02 -0.58484331624E+02  0.18205521996E+03  0.00000000000E+00 0.  1.
<mgrwt>
<rscale>  0 0.16839409E+04</rscale>
<asrwt>0</asrwt>
<pdfrwt beam="1">  1        1 0.10808301E+00 0.16839409E+04</pdfrwt>
<pdfrwt beam="2">  1       -1 0.15524212E+00 0.16839409E+04</pdfrwt>
<totfact> 0.82041571E+00</totfact>
</mgrwt>
</event>
<event>
12    1  0.1397649E-007  0.1237002E+04  0.7818608E-02  0.9081071E-01
         -1   -1    0    0    0  501 -0.00000000000E+00  0.00000000000E+00  0.73427017508E+03  0.73427017508E+03  0.00000000000E+00 0.  1.
          1   -1    0    0  501    0  0.00000000000E+00 -0.00000000000E+00 -0.52098471608E+03  0.52098471608E+03  0.00000000000E+00 0. -1.
         23    2    1    2    0    0  0.75674048194E+02 -0.50040073199E+02  0.28998117100E+03  0.31753681784E+03  0.92249556386E+02 0.  0.
        254    2    1    2    0    0 -0.75674048194E+02  0.50040073199E+02 -0.76695711993E+02  0.93771807332E+03  0.93016255692E+03 0.  0.
        -24    2    4    4    0    0  0.31197160100E+03  0.21760287663E+03 -0.26281087011E+03  0.46905450673E+03  0.79153553849E+02 0.  0.
         24    2    4    4    0    0 -0.38764564919E+03 -0.16756280343E+03  0.18611515812E+03  0.46866356660E+03  0.81610318859E+02 0.  0.
         13    1    3    3    0    0  0.86173216843E+02 -0.53842863129E+02  0.28898177225E+03  0.30632554889E+03  0.00000000000E+00 0.  1.
        -13    1    3    3    0    0 -0.10499168650E+02  0.38027899300E+01  0.99939875106E+00  0.11211268949E+02  0.00000000000E+00 0. -1.
          2    1    6    6  502    0 -0.25642160139E+03 -0.12625457517E+03  0.85858807403E+02  0.29843590638E+03  0.00000000000E+00 0. -1.
          1    1    5    5  503    0  0.14715523161E+02 -0.17731667904E+00  0.25761378612E+01  0.14940366441E+02  0.00000000000E+00 0. -1.
         -2    1    5    5    0  503  0.29725607784E+03  0.21778019331E+03 -0.26538700797E+03  0.45411414029E+03  0.00000000000E+00 0.  1.
         -1    1    6    6    0  502 -0.13122404780E+03 -0.41308228263E+02  0.10025635071E+03  0.17022766022E+03  0.00000000000E+00 0.  1.
<mgrwt>
<rscale>  0 0.12370021E+04</rscale>
<asrwt>0</asrwt>
<pdfrwt beam="1">  1        1 0.80151495E-01 0.12370021E+04</pdfrwt>
<pdfrwt beam="2">  1       -1 0.11296464E+00 0.12370021E+04</pdfrwt>
<totfact> 0.29616128E+01</totfact>
</mgrwt>
</event>
<event>
12    1  0.1397649E-007  0.2349795E+04  0.7818608E-02  0.8458542E-01
          2   -1    0    0  501    0  0.00000000000E+00  0.00000000000E+00  0.37906848195E+04  0.37906848195E+04  0.00000000000E+00 0. -1.
         -2   -1    0    0    0  501 -0.00000000000E+00 -0.00000000000E+00 -0.36415170573E+03  0.36415170573E+03  0.00000000000E+00 0.  1.
         23    2    1    2    0    0 -0.50082245677E+03  0.55502558295E+03  0.26325821733E+04  0.27385552929E+04  0.10158573678E+03 0.  0.
        254    2    1    2    0    0  0.50082245677E+03 -0.55502558295E+03  0.79395094044E+03  0.14162812323E+04  0.90366913320E+03 0.  0.
        -24    2    4    4    0    0  0.38079982168E+02  0.23194115859E+03  0.10258160636E+03  0.26851378328E+03  0.79560541470E+02 0.  0.
         24    2    4    4    0    0  0.46274247460E+03 -0.78696674154E+03  0.69136933409E+03  0.11477674491E+04  0.77015004351E+02 0.  0.
         11    1    3    3    0    0 -0.47143393960E+03  0.49671949759E+03  0.23073122393E+04  0.24067966238E+04  0.00000000000E+00 0. -1.
        -11    1    3    3    0    0 -0.29388517175E+02  0.58306085361E+02  0.32526993405E+03  0.33175866911E+03  0.00000000000E+00 0.  1.
          4    1    6    6  502    0  0.23140017738E+03 -0.44051888186E+03  0.41385079898E+03  0.64720584916E+03  0.00000000000E+00 0. -1.
          1    1    5    5  503    0  0.44934761796E+02  0.16136134112E+03  0.36175470811E+02  0.17136300626E+03  0.00000000000E+00 0. -1.
         -2    1    5    5    0  503 -0.68547796282E+01  0.70579817478E+02  0.66406135549E+02  0.97150777030E+02  0.00000000000E+00 0.  1.
         -3    1    6    6    0  502  0.23134229722E+03 -0.34644785969E+03  0.27751853511E+03  0.50056159990E+03  0.00000000000E+00 0.  1.
<mgrwt>
<rscale>  0 0.23497952E+04</rscale>
<asrwt>0</asrwt>
<pdfrwt beam="1">  1        2 0.58318226E+00 0.23497952E+04</pdfrwt>
<pdfrwt beam="2">  1       -2 0.56023342E-01 0.23497952E+04</pdfrwt>
<totfact> 0.13536762E+00</totfact>
</mgrwt>
</event>
<event>
12    1  0.1397649E-007  0.1289481E+04  0.7818608E-02  0.9037949E-01
          1   -1    0    0  501    0  0.00000000000E+00  0.00000000000E+00  0.17526825427E+04  0.17526825427E+04  0.00000000000E+00 0. -1.
         -1   -1    0    0    0  501 -0.00000000000E+00 -0.00000000000E+00 -0.23717374060E+03  0.23717374060E+03  0.00000000000E+00 0.  1.
         23    2    1    2    0    0 -0.15478049381E+03 -0.97545973775E+02 -0.15602489595E+02  0.20338948942E+03  0.87473587222E+02 0.  0.
        254    2    1    2    0    0  0.15478049381E+03  0.97545973775E+02  0.15311112917E+04  0.17864667939E+04  0.90204744877E+03 0.  0.
        -24    2    4    4    0    0 -0.26990984014E+03 -0.22350135799E+03  0.81405388385E+03  0.88983759144E+03  0.79517510602E+02 0.  0.
         24    2    4    4    0    0  0.42469033395E+03  0.32104733177E+03  0.71705740788E+03  0.89662920248E+03  0.79619919330E+02 0.  0.
         13    1    3    3    0    0 -0.99093427300E+02 -0.10745912762E+03 -0.13336525379E+02  0.14678158724E+03  0.00000000000E+00 0.  1.
        -13    1    3    3    0    0 -0.55687066515E+02  0.99131538442E+01 -0.22659642156E+01  0.56607902187E+02  0.00000000000E+00 0. -1.
          4    1    6    6  502    0  0.11315029604E+03  0.44059903122E+02  0.16415208183E+03  0.20418170958E+03  0.00000000000E+00 0. -1.
          1    1    5    5  503    0 -0.41616982363E+02 -0.68814097467E+02  0.13829908436E+03  0.15998121754E+03  0.00000000000E+00 0. -1.
         -2    1    5    5    0  503 -0.22829285778E+03 -0.15468726053E+03  0.67575479949E+03  0.72985637390E+03  0.00000000000E+00 0.  1.
         -3    1    6    6    0  502  0.31154003792E+03  0.27698742865E+03  0.55290532605E+03  0.69244749290E+03  0.00000000000E+00 0.  1.
<mgrwt>
<rscale>  0 0.12894809E+04</rscale>
<asrwt>0</asrwt>
<pdfrwt beam="1">  1        1 0.26964346E+00 0.12894809E+04</pdfrwt>
<pdfrwt beam="2">  1       -1 0.36488269E-01 0.12894809E+04</pdfrwt>
<totfact> 0.31070385E+01</totfact>
</mgrwt>
</event>
<event>
12    1  0.1397649E-007  0.1274121E+04  0.7818608E-02  0.9050343E-01
         -1   -1    0    0    0  501 -0.00000000000E+00  0.00000000000E+00  0.52795250343E+03  0.52795250343E+03  0.00000000000E+00 0.  1.
          1   -1    0    0  501    0  0.00000000000E+00 -0.00000000000E+00 -0.76871704740E+03  0.76871704740E+03  0.00000000000E+00 0. -1.
         23    2    1    2    0    0 -0.12872175045E+03 -0.44022861376E+02 -0.34359564430E+03  0.38058466755E+03  0.90991323913E+02 0.  0.
        254    2    1    2    0    0  0.12872175045E+03  0.44022861376E+02  0.10283110034E+03  0.91608488328E+03  0.90007220645E+03 0.  0.
        -24    2    4    4    0    0 -0.32227444298E+03  0.21455574234E+03  0.15417644880E+03  0.42448428008E+03  0.80756074068E+02 0.  0.
         24    2    4    4    0    0  0.45099619343E+03 -0.17053288096E+03 -0.51345348466E+02  0.49160060321E+03  0.80967760800E+02 0.  0.
         11    1    3    3    0    0 -0.63335803604E+02 -0.21642440412E+01 -0.25513130787E+03  0.26288418025E+03  0.00000000000E+00 0. -1.
        -11    1    3    3    0    0 -0.65385946847E+02 -0.41858617335E+02 -0.88464336436E+02  0.11770048730E+03  0.00000000000E+00 0.  1.
          4    1    6    6  502    0  0.43432439373E+02  0.76446177511E+01 -0.50678775898E+01  0.44390318243E+02  0.00000000000E+00 0. -1.
          3    1    5    5  503    0 -0.80266013275E+02  0.25544296452E+02  0.59570420263E+02  0.10316869166E+03  0.00000000000E+00 0. -1.
         -4    1    5    5    0  503 -0.24200842970E+03  0.18901144589E+03  0.94606028538E+02  0.32131558842E+03  0.00000000000E+00 0.  1.
         -3    1    6    6    0  502  0.40756375405E+03 -0.17817749872E+03 -0.46277470877E+02  0.44721028496E+03  0.00000000000E+00 0.  1.
<mgrwt>
<rscale>  0 0.12741210E+04</rscale>
<asrwt>0</asrwt>
<pdfrwt beam="1">  1        1 0.11826416E+00 0.12741210E+04</pdfrwt>
<pdfrwt beam="2">  1       -1 0.81223462E-01 0.12741210E+04</pdfrwt>
<totfact> 0.35041424E+01</totfact>
</mgrwt>
</event>
<event>
12    1  0.1397649E-007  0.2077466E+04  0.7818608E-02  0.8571235E-01
          2   -1    0    0  501    0  0.00000000000E+00  0.00000000000E+00  0.11020898992E+04  0.11020898992E+04  0.00000000000E+00 0. -1.
         -2   -1    0    0    0  501 -0.00000000000E+00 -0.00000000000E+00 -0.97901851493E+03  0.97901851493E+03  0.00000000000E+00 0.  1.
         23    2    1    2    0    0 -0.83670115121E+03  0.31556110473E+02  0.38648684063E+02  0.84318267748E+03  0.91644433939E+02 0.  0.
        254    2    1    2    0    0  0.83670115121E+03 -0.31556110473E+02  0.84422700259E+02  0.12379257367E+04  0.90789224731E+03 0.  0.
        -24    2    4    4    0    0  0.15133803546E+03  0.25437106121E+03  0.33111294904E+03  0.45126289822E+03  0.79966121155E+02 0.  0.
         24    2    4    4    0    0  0.68536311575E+03 -0.28592717168E+03 -0.24669024878E+03  0.78666283848E+03  0.80656026823E+02 0.  0.
         11    1    3    3    0    0 -0.77853667385E+03  0.35255774448E+02  0.58714477958E+02  0.78154316073E+03  0.00000000000E+00 0.  1.
        -11    1    3    3    0    0 -0.58164477356E+02 -0.36996639746E+01 -0.20065793895E+02  0.61639516743E+02  0.00000000000E+00 0. -1.
          4    1    6    6  502    0  0.22509900795E+02 -0.24155553442E+02 -0.17104786382E+01  0.33062246340E+02  0.00000000000E+00 0. -1.
          1    1    5    5  503    0  0.10290186011E+02 -0.39291985285E+01  0.21109044913E+02  0.23810046333E+02  0.00000000000E+00 0. -1.
         -2    1    5    5    0  503  0.14104784945E+03  0.25830025974E+03  0.31000390412E+03  0.42745285189E+03  0.00000000000E+00 0.  1.
         -3    1    6    6    0  502  0.66285321496E+03 -0.26177161824E+03 -0.24497977014E+03  0.75360059214E+03  0.00000000000E+00 0.  1.
<mgrwt>
<rscale>  0 0.20774662E+04</rscale>
<asrwt>0</asrwt>
<pdfrwt beam="1">  1        2 0.16955229E+00 0.20774662E+04</pdfrwt>
<pdfrwt beam="2">  1       -2 0.15061823E+00 0.20774662E+04</pdfrwt>
<totfact> 0.59433268E+00</totfact>
</mgrwt>
</event>
<event>
12    1  0.1397649E-007  0.2504298E+04  0.7818608E-02  0.8401456E-01
          2   -1    0    0  501    0  0.00000000000E+00  0.00000000000E+00  0.26412998696E+04  0.26412998696E+04  0.00000000000E+00 0. -1.
         -2   -1    0    0    0  501 -0.00000000000E+00 -0.00000000000E+00 -0.59360048427E+03  0.59360048427E+03  0.00000000000E+00 0.  1.
         23    2    1    2    0    0  0.47003724520E+03  0.84351836946E+01 -0.37656396120E+03  0.61071615232E+03  0.10083470454E+03 0.  0.
        254    2    1    2    0    0 -0.47003724520E+03 -0.84351836946E+01  0.24242633465E+04  0.26241842015E+04  0.88785347108E+03 0.  0.
        -24    2    4    4    0    0  0.15079126093E+03 -0.27257020430E+03  0.67307554375E+03  0.74594312499E+03  0.79799357636E+02 0.  0.
         24    2    4    4    0    0 -0.62082850612E+03  0.26413502060E+03  0.17511878028E+04  0.18782410765E+04  0.77042053017E+02 0.  0.
         13    1    3    3    0    0  0.10802299743E+02  0.18035464927E+02 -0.22211016658E+02  0.30582624738E+02  0.00000000000E+00 0. -1.
        -13    1    3    3    0    0  0.45923494545E+03 -0.96002812328E+01 -0.35435294454E+03  0.58013352758E+03  0.00000000000E+00 0.  1.
          4    1    6    6  502    0 -0.61106200152E+03  0.24665049126E+03  0.16946241824E+04  0.18182366056E+04  0.00000000000E+00 0. -1.
          1    1    5    5  503    0  0.91910370537E+02 -0.23284893437E+03  0.51313239859E+03  0.57093870156E+03  0.00000000000E+00 0. -1.
         -2    1    5    5    0  503  0.58880890392E+02 -0.39721269931E+02  0.15994314515E+03  0.17500442343E+03  0.00000000000E+00 0.  1.
         -3    1    6    6    0  502 -0.97665046022E+01  0.17484529345E+02  0.56563620387E+02  0.60004470916E+02  0.00000000000E+00 0.  1.
<mgrwt>
<rscale>  0 0.25042978E+04</rscale>
<asrwt>0</asrwt>
<pdfrwt beam="1">  1        2 0.40635382E+00 0.25042978E+04</pdfrwt>
<pdfrwt beam="2">  1       -2 0.91323153E-01 0.25042978E+04</pdfrwt>
<totfact> 0.26206907E+00</totfact>
</mgrwt>
</event>
<event>
12    1  0.1397649E-007  0.3215430E+04  0.7818608E-02  0.8184754E-01
          2   -1    0    0  501    0  0.00000000000E+00  0.00000000000E+00  0.24426080177E+04  0.24426080177E+04  0.00000000000E+00 0. -1.
         -2   -1    0    0    0  501 -0.00000000000E+00 -0.00000000000E+00 -0.10581919963E+04  0.10581919963E+04  0.00000000000E+00 0.  1.
         23    2    1    2    0    0  0.38106504019E+03 -0.10923226991E+04  0.16435953908E+04  0.20116115501E+04  0.82436497265E+02 0.  0.
        254    2    1    2    0    0 -0.38106504019E+03  0.10923226991E+04 -0.25917936942E+03  0.14891884638E+04  0.90118194132E+03 0.  0.
        -24    2    4    4    0    0 -0.40506810171E+03  0.12115028512E+04 -0.33821433581E+03  0.13237833645E+04  0.78702819787E+02 0.  0.
         24    2    4    4    0    0  0.24003061524E+02 -0.11918015202E+03  0.79034966398E+02  0.16540509931E+03  0.79575532460E+02 0.  0.
         13    1    3    3    0    0  0.35404964865E+02 -0.19549363595E+03  0.27898226944E+03  0.34249435017E+03  0.00000000000E+00 0.  1.
        -13    1    3    3    0    0  0.34566007532E+03 -0.89682906319E+03  0.13646131213E+04  0.16691172000E+04  0.00000000000E+00 0. -1.
          2    1    6    6  502    0 -0.88857900876E+00  0.11504225078E+02  0.11176544837E+02  0.16063994578E+02  0.00000000000E+00 0. -1.
          1    1    5    5  503    0 -0.15806168978E+03  0.39357435341E+03 -0.84117635648E+02  0.43238876728E+03  0.00000000000E+00 0. -1.
         -2    1    5    5    0  503 -0.24700641193E+03  0.81792849774E+03 -0.25409670017E+03  0.89139459724E+03  0.00000000000E+00 0.  1.
         -1    1    6    6    0  502  0.24891640533E+02 -0.13068437710E+03  0.67858421561E+02  0.14934110473E+03  0.00000000000E+00 0.  1.
<mgrwt>
<rscale>  0 0.32154305E+04</rscale>
<asrwt>0</asrwt>
<pdfrwt beam="1">  1        2 0.37578585E+00 0.32154305E+04</pdfrwt>
<pdfrwt beam="2">  1       -2 0.16279877E+00 0.32154305E+04</pdfrwt>
<totfact> 0.75901328E-01</totfact>
</mgrwt>
</event>
<event>
12    1  0.1397649E-007  0.1431296E+04  0.7818608E-02  0.8931471E-01
          2   -1    0    0  501    0  0.00000000000E+00  0.00000000000E+00  0.12349599147E+04  0.12349599147E+04  0.00000000000E+00 0. -1.
         -2   -1    0    0    0  501 -0.00000000000E+00 -0.00000000000E+00 -0.41471146019E+03  0.41471146019E+03  0.00000000000E+00 0.  1.
         23    2    1    2    0    0 -0.61942303599E+02  0.42369029872E+03  0.31790462251E+03  0.54131446374E+03  0.92777591273E+02 0.  0.
        254    2    1    2    0    0  0.61942303599E+02 -0.42369029872E+03  0.50234383199E+03  0.11083569111E+04  0.89036812541E+03 0.  0.
        -24    2    4    4    0    0 -0.19854639734E+03 -0.43150213784E+03 -0.58397214923E+02  0.48472919687E+03  0.77054479015E+02 0.  0.
         24    2    4    4    0    0  0.26048870094E+03  0.78118391212E+01  0.56074104691E+03  0.62362771427E+03  0.81028489846E+02 0.  0.
         13    1    3    3    0    0 -0.38564841029E+02  0.13752897510E+03  0.58427129323E+02  0.15432172691E+03  0.00000000000E+00 0. -1.
        -13    1    3    3    0    0 -0.23377462570E+02  0.28616132361E+03  0.25947749319E+03  0.38699273683E+03  0.00000000000E+00 0.  1.
          4    1    6    6  502    0  0.81532945876E+02  0.55591668515E+01  0.27114299393E+03  0.28319083452E+03  0.00000000000E+00 0. -1.
          1    1    5    5  503    0 -0.61417346508E+01 -0.64406648236E+02  0.72379670169E+01  0.65102422444E+02  0.00000000000E+00 0. -1.
         -2    1    5    5    0  503 -0.19240466269E+03 -0.36709548960E+03 -0.65635181940E+02  0.41962677443E+03  0.00000000000E+00 0.  1.
         -3    1    6    6    0  502  0.17895575506E+03  0.22526722697E+01  0.28959805298E+03  0.34043687975E+03  0.00000000000E+00 0.  1.
<mgrwt>
<rscale>  0 0.14312960E+04</rscale>
<asrwt>0</asrwt>
<pdfrwt beam="1">  1        2 0.18999383E+00 0.14312960E+04</pdfrwt>
<pdfrwt beam="2">  1       -2 0.63801764E-01 0.14312960E+04</pdfrwt>
<totfact> 0.39837120E+01</totfact>
</mgrwt>
</event>
<event>
12    1  0.1397649E-007  0.1508613E+04  0.7818608E-02  0.8878745E-01
         -2   -1    0    0    0  501 -0.00000000000E+00  0.00000000000E+00  0.38339627819E+03  0.38339627819E+03  0.00000000000E+00 0.  1.
          2   -1    0    0  501    0  0.00000000000E+00 -0.00000000000E+00 -0.14840479828E+04  0.14840479828E+04  0.00000000000E+00 0. -1.
         23    2    1    2    0    0  0.18807502206E+03 -0.13308812679E+03 -0.88921651692E+03  0.92328838082E+03  0.93116898473E+02 0.  0.
        254    2    1    2    0    0 -0.18807502206E+03  0.13308812679E+03 -0.21143518770E+03  0.94415588018E+03  0.89086521095E+03 0.  0.
        -24    2    4    4    0    0  0.10227763668E+03 -0.20713193848E+03 -0.38653070382E+03  0.45669115900E+03  0.76134583545E+02 0.  0.
         24    2    4    4    0    0 -0.29035265873E+03  0.34022006527E+03  0.17509551612E+03  0.48746472118E+03  0.83120727798E+02 0.  0.
         11    1    3    3    0    0  0.42720313511E+02 -0.85435901458E+02 -0.34734352965E+03  0.36023859599E+03  0.00000000000E+00 0. -1.
        -11    1    3    3    0    0  0.14535470855E+03 -0.47652225330E+02 -0.54187298727E+03  0.56304978484E+03  0.00000000000E+00 0.  1.
          4    1    6    6  502    0 -0.18314247614E+03  0.15501114168E+03  0.10861103031E+03  0.26337421384E+03  0.00000000000E+00 0. -1.
          1    1    5    5  503    0  0.68788721867E+02 -0.73615175911E+02 -0.11979488206E+03  0.15653081533E+03  0.00000000000E+00 0. -1.
         -2    1    5    5    0  503  0.33488914809E+02 -0.13351676257E+03 -0.26673582176E+03  0.30016034367E+03  0.00000000000E+00 0.  1.
         -3    1    6    6    0  502 -0.10721018260E+03  0.18520892359E+03  0.66484485813E+02  0.22409050735E+03  0.00000000000E+00 0.  1.
<mgrwt>
<rscale>  0 0.15086132E+04</rscale>
<asrwt>0</asrwt>
<pdfrwt beam="1">  1        2 0.22831508E+00 0.15086132E+04</pdfrwt>
<pdfrwt beam="2">  1       -2 0.58984042E-01 0.15086132E+04</pdfrwt>
<totfact> 0.33597533E+01</totfact>
</mgrwt>
</event>
<event>
12    1  0.1397649E-007  0.1764267E+04  0.7818608E-02  0.8725536E-01
          2   -1    0    0  501    0  0.00000000000E+00  0.00000000000E+00  0.51422853919E+03  0.51422853919E+03  0.00000000000E+00 0. -1.
         -2   -1    0    0    0  501 -0.00000000000E+00 -0.00000000000E+00 -0.15132569236E+04  0.15132569236E+04  0.00000000000E+00 0.  1.
         23    2    1    2    0    0  0.44276247237E+03  0.43404720198E+03 -0.60797547576E+03  0.87351193505E+03  0.94622096087E+02 0.  0.
        254    2    1    2    0    0 -0.44276247237E+03 -0.43404720198E+03 -0.39105290866E+03  0.11539735277E+04  0.89123338407E+03 0.  0.
        -24    2    4    4    0    0 -0.53781741235E+03 -0.64239872048E+03 -0.28211813188E+03  0.88777283378E+03  0.81401959153E+02 0.  0.
         24    2    4    4    0    0  0.95054939987E+02  0.20835151850E+03 -0.10893477678E+03  0.26620069397E+03  0.80933472675E+02 0.  0.
         13    1    3    3    0    0  0.34046162403E+02  0.60835985704E+02 -0.10243450723E+03  0.12390716929E+03  0.00000000000E+00 0. -1.
        -13    1    3    3    0    0  0.40871630996E+03  0.37321121627E+03 -0.50554096854E+03  0.74960476576E+03  0.00000000000E+00 0.  1.
          2    1    6    6  502    0  0.89287516107E+02  0.19842577454E+03 -0.12147363093E+03  0.24920050471E+03  0.00000000000E+00 0. -1.
          1    1    5    5  503    0 -0.69463429538E+02 -0.10287638693E+03 -0.15064709218E+02  0.12504265070E+03  0.00000000000E+00 0. -1.
         -2    1    5    5    0  503 -0.46835398282E+03 -0.53952233355E+03 -0.26705342266E+03  0.76273018307E+03  0.00000000000E+00 0.  1.
         -1    1    6    6    0  502  0.57674238802E+01  0.99257439577E+01  0.12538854153E+02  0.17000189258E+02  0.00000000000E+00 0.  1.
<mgrwt>
<rscale>  0 0.17642674E+04</rscale>
<asrwt>0</asrwt>
<pdfrwt beam="1">  1        2 0.79112083E-01 0.17642674E+04</pdfrwt>
<pdfrwt beam="2">  1       -2 0.23280876E+00 0.17642674E+04</pdfrwt>
<totfact> 0.46305682E+00</totfact>
</mgrwt>
</event>
<event>
12    1  0.1397649E-007  0.2449318E+04  0.7818608E-02  0.8421267E-01
          2   -1    0    0  501    0  0.00000000000E+00  0.00000000000E+00  0.98109749778E+03  0.98109749778E+03  0.00000000000E+00 0. -1.
         -2   -1    0    0    0  501 -0.00000000000E+00 -0.00000000000E+00 -0.15286854338E+04  0.15286854338E+04  0.00000000000E+00 0.  1.
         23    2    1    2    0    0  0.95615403101E+02  0.16276010844E+03 -0.13063070096E+04  0.13230882197E+04  0.92148116897E+02 0.  0.
        254    2    1    2    0    0 -0.95615403101E+02 -0.16276010844E+03  0.75871907356E+03  0.11866947119E+04  0.89272422873E+03 0.  0.
        -24    2    4    4    0    0 -0.36930158934E+03 -0.12614158512E+03  0.24919488603E+02  0.39866447638E+03  0.77569455535E+02 0.  0.
         24    2    4    4    0    0  0.27368618624E+03 -0.36618523319E+02  0.73379958496E+03  0.78803023556E+03  0.79276582210E+02 0.  0.
         11    1    3    3    0    0  0.11211725018E+02  0.39352492901E+01 -0.14166156342E+02  0.18489698493E+02  0.00000000000E+00 0. -1.
        -11    1    3    3    0    0  0.84403678083E+02  0.15882485915E+03 -0.12921408533E+04  0.13045985212E+04  0.00000000000E+00 0.  1.
          4    1    6    6  502    0  0.10788243850E+03 -0.42574952269E+02  0.22951738318E+03  0.25715652097E+03  0.00000000000E+00 0. -1.
          1    1    5    5  503    0 -0.31915724536E+03 -0.80822076016E+02  0.96569409028E+01  0.32937336222E+03  0.00000000000E+00 0. -1.
         -2    1    5    5    0  503 -0.50144343980E+02 -0.45319509106E+02  0.15262547700E+02  0.69291114157E+02  0.00000000000E+00 0.  1.
         -3    1    6    6    0  502  0.16580374773E+03  0.59564289505E+01  0.50428220178E+03  0.53087371459E+03  0.00000000000E+00 0.  1.
<mgrwt>
<rscale>  0 0.24493178E+04</rscale>
<asrwt>0</asrwt>
<pdfrwt beam="1">  1        2 0.15093808E+00 0.24493178E+04</pdfrwt>
<pdfrwt beam="2">  1       -2 0.23518237E+00 0.24493178E+04</pdfrwt>
<totfact> 0.18410195E+00</totfact>
</mgrwt>
</event>
<event>
12    1  0.1397649E-007  0.1665301E+04  0.7818608E-02  0.8781406E-01
         -1   -1    0    0    0  501 -0.00000000000E+00  0.00000000000E+00  0.66989353213E+03  0.66989353213E+03  0.00000000000E+00 0.  1.
          1   -1    0    0  501    0  0.00000000000E+00 -0.00000000000E+00 -0.10349505949E+04  0.10349505949E+04  0.00000000000E+00 0. -1.
         23    2    1    2    0    0  0.75913507298E+02 -0.46773254453E+03 -0.47351871177E+03  0.67620290548E+03  0.92161842273E+02 0.  0.
        254    2    1    2    0    0 -0.75913507298E+02  0.46773254453E+03  0.10846164897E+03  0.10286412216E+04  0.90653308800E+03 0.  0.
        -24    2    4    4    0    0  0.13243354632E+03  0.35503050263E+03 -0.33991641634E+03  0.51528506404E+03  0.79938883729E+02 0.  0.
         24    2    4    4    0    0 -0.20834705362E+03  0.11270204190E+03  0.44837806532E+03  0.51335615754E+03  0.79883728188E+02 0.  0.
         13    1    3    3    0    0 -0.53128494448E+01 -0.60873824841E+01  0.21794585648E+01  0.83685503145E+01  0.00000000000E+00 0.  1.
        -13    1    3    3    0    0  0.81226356742E+02 -0.46164516205E+03 -0.47569817034E+03  0.66783435516E+03  0.00000000000E+00 0. -1.
          2    1    6    6  502    0 -0.21200513353E+02  0.41498067240E+02  0.12018007918E+03  0.12889842041E+03  0.00000000000E+00 0. -1.
          3    1    5    5  503    0  0.68248725004E+02  0.17171818644E+03 -0.21881191653E+03  0.28639776332E+03  0.00000000000E+00 0. -1.
         -4    1    5    5    0  503  0.64184821317E+02  0.18331231619E+03 -0.12110449981E+03  0.22888730072E+03  0.00000000000E+00 0.  1.
         -1    1    6    6    0  502 -0.18714654027E+03  0.71203974664E+02  0.32819798614E+03  0.38445773714E+03  0.00000000000E+00 0.  1.
<mgrwt>
<rscale>  0 0.16653008E+04</rscale>
<asrwt>0</asrwt>
<pdfrwt beam="1">  1        1 0.15922317E+00 0.16653008E+04</pdfrwt>
<pdfrwt beam="2">  1       -1 0.10306054E+00 0.16653008E+04</pdfrwt>
<totfact> 0.12062805E+01</totfact>
</mgrwt>
</event>
<event>
12    1  0.1397649E-007  0.1380010E+04  0.7818608E-02  0.8968417E-01
          2   -1    0    0  501    0  0.00000000000E+00  0.00000000000E+00  0.77432528433E+03  0.77432528433E+03  0.00000000000E+00 0. -1.
         -2   -1    0    0    0  501 -0.00000000000E+00 -0.00000000000E+00 -0.61486647817E+03  0.61486647817E+03  0.00000000000E+00 0.  1.
         23    2    1    2    0    0 -0.37367087794E+03  0.96512551213E+02  0.53312457107E+02  0.39879734251E+03  0.85161638918E+02 0.  0.
        254    2    1    2    0    0  0.37367087794E+03 -0.96512551213E+02  0.10614634905E+03  0.99039442000E+03  0.90590808705E+03 0.  0.
        -24    2    4    4    0    0  0.63048259908E+03 -0.23803792429E+03  0.54791019437E+02  0.68113361345E+03  0.82283548896E+02 0.  0.
         24    2    4    4    0    0 -0.25681172114E+03  0.14152537308E+03  0.51355329615E+02  0.30926080655E+03  0.83804446480E+02 0.  0.
         11    1    3    3    0    0 -0.12888953317E+03  0.65176905339E+02  0.47179473761E+02  0.15194223736E+03  0.00000000000E+00 0. -1.
        -11    1    3    3    0    0 -0.24478134477E+03  0.31335645874E+02  0.61329833457E+01  0.24685510514E+03  0.00000000000E+00 0.  1.
          4    1    6    6  502    0 -0.19711859370E+03  0.14518732319E+03  0.47084787536E+02  0.24930318092E+03  0.00000000000E+00 0. -1.
          3    1    5    5  503    0  0.62853732419E+03 -0.22787344669E+03  0.53559097530E+02  0.67071160161E+03  0.00000000000E+00 0. -1.
         -4    1    5    5    0  503  0.19452748926E+01 -0.10164477599E+02  0.12319219064E+01  0.10422011843E+02  0.00000000000E+00 0.  1.
         -3    1    6    6    0  502 -0.59693127432E+02 -0.36619501164E+01  0.42705420787E+01  0.59957625628E+02  0.00000000000E+00 0.  1.
<mgrwt>
<rscale>  0 0.13800097E+04</rscale>
<asrwt>0</asrwt>
<pdfrwt beam="1">  1        2 0.11912697E+00 0.13800097E+04</pdfrwt>
<pdfrwt beam="2">  1       -2 0.94594843E-01 0.13800097E+04</pdfrwt>
<totfact> 0.33011459E+01</totfact>
</mgrwt>
</event>
<event>
12    1  0.1397649E-007  0.4072971E+04  0.7818608E-02  0.7989986E-01
         -1   -1    0    0    0  501 -0.00000000000E+00  0.00000000000E+00  0.12102846959E+04  0.12102846959E+04  0.00000000000E+00 0.  1.
          1   -1    0    0  501    0  0.00000000000E+00 -0.00000000000E+00 -0.34266924951E+04  0.34266924951E+04  0.00000000000E+00 0. -1.
         23    2    1    2    0    0  0.16992133143E+04  0.92770977015E+03 -0.10257811062E+04  0.21928501964E+04  0.91617688331E+02 0.  0.
        254    2    1    2    0    0 -0.16992133143E+04 -0.92770977015E+03 -0.11906266930E+04  0.24441269946E+04  0.89899585036E+03 0.  0.
        -24    2    4    4    0    0 -0.20278001537E+03 -0.51631987520E+03 -0.46847185788E+03  0.73053464377E+03  0.80678596622E+02 0.  0.
         24    2    4    4    0    0 -0.14964332989E+04 -0.41138989494E+03 -0.72215483508E+03  0.17135923509E+04  0.79604494046E+02 0.  0.
         13    1    3    3    0    0  0.56438400433E+03  0.30053464959E+03 -0.38733798589E+03  0.74758350387E+03  0.00000000000E+00 0.  1.
        -13    1    3    3    0    0  0.11348293099E+04  0.62717512056E+03 -0.63844312034E+03  0.14452666925E+04  0.00000000000E+00 0. -1.
          2    1    6    6  502    0 -0.13482768895E+04 -0.37303505948E+03 -0.62407949858E+03  0.15318227531E+04  0.00000000000E+00 0. -1.
          1    1    5    5  503    0 -0.18505804748E+03 -0.47571309702E+03 -0.45611914512E+03  0.68453933865E+03  0.00000000000E+00 0. -1.
         -2    1    5    5    0  503 -0.17721967889E+02 -0.40606778181E+02 -0.12352712761E+02  0.45995305115E+02  0.00000000000E+00 0.  1.
         -1    1    6    6    0  502 -0.14815640935E+03 -0.38354835465E+02 -0.98075336503E+02  0.18176959775E+03  0.00000000000E+00 0.  1.
<mgrwt>
<rscale>  0 0.40729711E+04</rscale>
<asrwt>0</asrwt>
<pdfrwt beam="1">  1        1 0.52718346E+00 0.40729711E+04</pdfrwt>
<pdfrwt beam="2">  1       -1 0.18619765E+00 0.40729711E+04</pdfrwt>
<totfact> 0.41655091E-02</totfact>
</mgrwt>
</event>
<event>
12    1  0.1397649E-007  0.3063875E+04  0.7818608E-02  0.8225722E-01
         -2   -1    0    0    0  501 -0.00000000000E+00  0.00000000000E+00  0.99023102969E+03  0.99023102969E+03  0.00000000000E+00 0. -1.
          2   -1    0    0  501    0  0.00000000000E+00 -0.00000000000E+00 -0.23699853378E+04  0.23699853378E+04  0.00000000000E+00 0.  1.
         23    2    1    2    0    0 -0.12804405105E+04 -0.23097910446E+02 -0.12417332125E+04  0.17860895818E+04  0.90295120311E+02 0.  0.
        254    2    1    2    0    0  0.12804405105E+04  0.23097910446E+02 -0.13802109566E+03  0.15741267857E+04  0.90485573453E+03 0.  0.
        -24    2    4    4    0    0  0.10297579720E+04  0.39375526642E+03 -0.26444499398E+02  0.11061058938E+04  0.85593493188E+02 0.  0.
         24    2    4    4    0    0  0.25068253855E+03 -0.37065735598E+03 -0.11157659626E+03  0.46802089194E+03  0.79784759138E+02 0.  0.
         13    1    3    3    0    0 -0.10847704952E+04 -0.16803729168E+02 -0.10949420917E+04  0.15413979294E+04  0.00000000000E+00 0.  1.
        -13    1    3    3    0    0 -0.19567001530E+03 -0.62941812783E+01 -0.14679112081E+03  0.24469165240E+03  0.00000000000E+00 0. -1.
          4    1    6    6  502    0  0.12681517691E+03 -0.20552287234E+03 -0.99644020853E+02  0.26124829385E+03  0.00000000000E+00 0. -1.
          3    1    5    5  503    0  0.74487872264E+02  0.14435553012E+02  0.15435558305E+02  0.77427932721E+02  0.00000000000E+00 0. -1.
         -4    1    5    5    0  503  0.95527009970E+03  0.37931971341E+03 -0.41880057703E+02  0.10286779611E+04  0.00000000000E+00 0.  1.
         -3    1    6    6    0  502  0.12386736164E+03 -0.16513448363E+03 -0.11932575406E+02  0.20677259809E+03  0.00000000000E+00 0.  1.
<mgrwt>
<rscale>  0 0.30638753E+04</rscale>
<asrwt>0</asrwt>
<pdfrwt beam="1">  1        2 0.36461313E+00 0.30638753E+04</pdfrwt>
<pdfrwt beam="2">  1       -2 0.15234324E+00 0.30638753E+04</pdfrwt>
<totfact> 0.10124918E+00</totfact>
</mgrwt>
</event>
<event>
12    1  0.1397649E-007  0.1170999E+04  0.7818608E-02  0.9138627E-01
         -2   -1    0    0    0  501 -0.00000000000E+00  0.00000000000E+00  0.94440982821E+03  0.94440982821E+03  0.00000000000E+00 0.  1.
          2   -1    0    0  501    0  0.00000000000E+00 -0.00000000000E+00 -0.36298816130E+03  0.36298816130E+03  0.00000000000E+00 0. -1.
         23    2    1    2    0    0  0.43735952540E+02 -0.16686869782E+01  0.36069411755E+03  0.37497943817E+03  0.92702289921E+02 0.  0.
        254    2    1    2    0    0 -0.43735952540E+02  0.16686869782E+01  0.22072754937E+03  0.93241855134E+03  0.90485804730E+03 0.  0.
        -24    2    4    4    0    0  0.18673628390E+03 -0.17899350473E+03 -0.25261647368E+03  0.37020834902E+03  0.79561450759E+02 0.  0.
         24    2    4    4    0    0 -0.23047223644E+03  0.18066219171E+03  0.47334402305E+03  0.56221020232E+03  0.79179973177E+02 0.  0.
         11    1    3    3    0    0  0.18879546287E+02  0.75583249926E+01  0.89183697271E+01  0.22205919555E+02  0.00000000000E+00 0. -1.
        -11    1    3    3    0    0  0.24856406253E+02 -0.92270119708E+01  0.35177574782E+03  0.35277351862E+03  0.00000000000E+00 0.  1.
          2    1    6    6  502    0 -0.65909738481E+02  0.57317349504E+02  0.80469330113E+02  0.11876314778E+03  0.00000000000E+00 0. -1.
          3    1    5    5  503    0  0.63846817427E+02 -0.24802643697E+02 -0.36317124536E+02  0.77527548423E+02  0.00000000000E+00 0. -1.
         -4    1    5    5    0  503  0.12288946647E+03 -0.15419086103E+03 -0.21629934915E+03  0.29268080060E+03  0.00000000000E+00 0.  1.
         -1    1    6    6    0  502 -0.16456249796E+03  0.12334484220E+03  0.39287469294E+03  0.44344705454E+03  0.00000000000E+00 0.  1.
<mgrwt>
<rscale>  0 0.11709989E+04</rscale>
<asrwt>0</asrwt>
<pdfrwt beam="1">  1        2 0.55844333E-01 0.11709989E+04</pdfrwt>
<pdfrwt beam="2">  1       -2 0.14529382E+00 0.11709989E+04</pdfrwt>
<totfact> 0.28553810E+01</totfact>
</mgrwt>
</event>
<event>
12    1  0.1397649E-007  0.1645488E+04  0.7818608E-02  0.8793080E-01
         -2   -1    0    0    0  501 -0.00000000000E+00  0.00000000000E+00  0.10716151653E+04  0.10716151653E+04  0.00000000000E+00 0.  1.
          2   -1    0    0  501    0  0.00000000000E+00 -0.00000000000E+00 -0.63167030926E+03  0.63167030926E+03  0.00000000000E+00 0. -1.
         23    2    1    2    0    0 -0.18451911017E+02  0.41172138916E+03 -0.26251681332E+03  0.49714914204E+03  0.91581749527E+02 0.  0.
        254    2    1    2    0    0  0.18451911017E+02 -0.41172138916E+03  0.70246166933E+03  0.12061363325E+04  0.88963896068E+03 0.  0.
        -24    2    4    4    0    0 -0.22795783705E+03 -0.24703826906E+03  0.81020133561E+03  0.88087452092E+03  0.80752928912E+02 0.  0.
         24    2    4    4    0    0  0.24640974806E+03 -0.16468312010E+03 -0.10773966629E+03  0.32526181157E+03  0.79681342787E+02 0.  0.
         13    1    3    3    0    0 -0.79423581325E+01  0.13558539880E+03 -0.13940880292E+03  0.19463117878E+03  0.00000000000E+00 0. -1.
        -13    1    3    3    0    0 -0.10509552884E+02  0.27613599036E+03 -0.12310801040E+03  0.30251796326E+03  0.00000000000E+00 0.  1.
          2    1    6    6  502    0  0.23851959238E+03 -0.17237863259E+03 -0.96973703426E+02  0.30985462410E+03  0.00000000000E+00 0. -1.
          1    1    5    5  503    0 -0.21814703080E+03 -0.22914772071E+03  0.79434848045E+03  0.85503585501E+03  0.00000000000E+00 0. -1.
         -2    1    5    5    0  503 -0.98108062429E+01 -0.17890548350E+02  0.15852855164E+02  0.25838665915E+02  0.00000000000E+00 0.  1.
         -1    1    6    6    0  502  0.78901556843E+01  0.76955124940E+01 -0.10765962861E+02  0.15407187465E+02  0.00000000000E+00 0.  1.
<mgrwt>
<rscale>  0 0.16454877E+04</rscale>
<asrwt>0</asrwt>
<pdfrwt beam="1">  1        2 0.97180048E-01 0.16454877E+04</pdfrwt>
<pdfrwt beam="2">  1       -2 0.16486387E+00 0.16454877E+04</pdfrwt>
<totfact> 0.10319935E+01</totfact>
</mgrwt>
</event>
<event>
12    1  0.1397649E-007  0.1052775E+04  0.7818608E-02  0.9252484E-01
         -2   -1    0    0    0  501 -0.00000000000E+00  0.00000000000E+00  0.92540909254E+03  0.92540909254E+03  0.00000000000E+00 0.  1.
          2   -1    0    0  501    0  0.00000000000E+00 -0.00000000000E+00 -0.29941767024E+03  0.29941767024E+03  0.00000000000E+00 0. -1.
         23    2    1    2    0    0  0.54924164074E+02 -0.60663248388E+02  0.16841347959E+03  0.20821174359E+03  0.91062267453E+02 0.  0.
        254    2    1    2    0    0 -0.54924164074E+02  0.60663248388E+02  0.45757794270E+03  0.10166150192E+04  0.90411936717E+03 0.  0.
        -24    2    4    4    0    0  0.24042992969E+03  0.63287706945E+02  0.61791824725E+03  0.67102105764E+03  0.81451915654E+02 0.  0.
         24    2    4    4    0    0 -0.29535409376E+03 -0.26244585573E+01 -0.16034030455E+03  0.34559396156E+03  0.80531015863E+02 0.  0.
         11    1    3    3    0    0  0.50404741519E+02 -0.30452166466E+02  0.29284877987E+02  0.65769115007E+02  0.00000000000E+00 0. -1.
        -11    1    3    3    0    0  0.45194225546E+01 -0.30211081922E+02  0.13912860161E+03  0.14244262858E+03  0.00000000000E+00 0.  1.
          2    1    6    6  502    0 -0.20400642828E+03 -0.31998616915E+02 -0.13372025285E+03  0.24601552854E+03  0.00000000000E+00 0. -1.
          1    1    5    5  503    0  0.52811281864E+01  0.16554420298E+02  0.83504981022E+02  0.85293733661E+02  0.00000000000E+00 0. -1.
         -2    1    5    5    0  503  0.23514880150E+03  0.46733286647E+02  0.53441326623E+03  0.58572732397E+03  0.00000000000E+00 0.  1.
         -1    1    6    6    0  502 -0.91347665485E+02  0.29374158358E+02 -0.26620051707E+02  0.99578433015E+02  0.00000000000E+00 0.  1.
<mgrwt>
<rscale>  0 0.10527751E+04</rscale>
<asrwt>0</asrwt>
<pdfrwt beam="1">  1        2 0.46064257E-01 0.10527751E+04</pdfrwt>
<pdfrwt beam="2">  1       -2 0.14237063E+00 0.10527751E+04</pdfrwt>
<totfact> 0.37621403E+01</totfact>
</mgrwt>
</event>
<event>
12    1  0.1397649E-007  0.1683223E+04  0.7818608E-02  0.8770991E-01
         -2   -1    0    0    0  501 -0.00000000000E+00  0.00000000000E+00  0.28890452701E+03  0.28890452701E+03  0.00000000000E+00 0.  1.
          2   -1    0    0  501    0  0.00000000000E+00 -0.00000000000E+00 -0.24517096086E+04  0.24517096086E+04  0.00000000000E+00 0. -1.
         23    2    1    2    0    0  0.16204631308E+03 -0.37644613616E+03 -0.67983743276E+02  0.42509585203E+03  0.90077705624E+02 0.  0.
        254    2    1    2    0    0 -0.16204631308E+03  0.37644613616E+03 -0.20948213383E+04  0.23155182836E+04  0.89742842674E+03 0.  0.
        -24    2    4    4    0    0  0.31439149894E+03 -0.63453515854E+02 -0.76129276420E+03  0.83048832994E+03  0.85298476299E+02 0.  0.
         24    2    4    4    0    0 -0.47643781202E+03  0.43989965202E+03 -0.13335285741E+04  0.14850299536E+04  0.80689606918E+02 0.  0.
         13    1    3    3    0    0  0.11810358450E+02 -0.10853182240E+03 -0.41497488956E+02  0.11679333299E+03  0.00000000000E+00 0. -1.
        -13    1    3    3    0    0  0.15023595463E+03 -0.26791431376E+03 -0.26486254320E+02  0.30830251904E+03  0.00000000000E+00 0.  1.
          4    1    6    6  502    0 -0.18829659214E+01  0.19111259347E+02 -0.41013451451E+02  0.45286741927E+02  0.00000000000E+00 0. -1.
          3    1    5    5  503    0  0.78029787855E+02 -0.18759498184E+02 -0.10977959050E+03  0.13598575313E+03  0.00000000000E+00 0. -1.
         -4    1    5    5    0  503  0.23636171109E+03 -0.44694017669E+02 -0.65151317370E+03  0.69450257681E+03  0.00000000000E+00 0.  1.
         -3    1    6    6    0  502 -0.47455484610E+03  0.42078839267E+03 -0.12925151227E+04  0.14397432117E+04  0.00000000000E+00 0.  1.
<mgrwt>
<rscale>  0 0.16832231E+04</rscale>
<asrwt>0</asrwt>
<pdfrwt beam="1">  1        2 0.37718610E+00 0.16832231E+04</pdfrwt>
<pdfrwt beam="2">  1       -2 0.44446850E-01 0.16832231E+04</pdfrwt>
<totfact> 0.17005345E+01</totfact>
</mgrwt>
</event>
<event>
12    1  0.1397649E-007  0.1849747E+04  0.7818608E-02  0.8680283E-01
          2   -1    0    0  501    0  0.00000000000E+00  0.00000000000E+00  0.74093429486E+03  0.74093429486E+03  0.00000000000E+00 0. -1.
         -2   -1    0    0    0  501 -0.00000000000E+00 -0.00000000000E+00 -0.11544757362E+04  0.11544757362E+04  0.00000000000E+00 0.  1.
         23    2    1    2    0    0  0.24109491360E+03 -0.59562658814E+03 -0.44884833011E+03  0.78878011590E+03  0.88382452685E+02 0.  0.
        254    2    1    2    0    0 -0.24109491360E+03  0.59562658814E+03  0.35306888776E+02  0.11066299152E+04  0.90026962787E+03 0.  0.
        -24    2    4    4    0    0  0.10306476838E+03  0.32972692128E+03  0.39928674118E+03  0.53374442937E+03  0.78173045855E+02 0.  0.
         24    2    4    4    0    0 -0.34415968198E+03  0.26589966685E+03 -0.36397985241E+03  0.57288548579E+03  0.81042750047E+02 0.  0.
         11    1    3    3    0    0  0.12899040500E+02 -0.70318022054E+01 -0.90484511823E+00  0.14719043202E+02  0.00000000000E+00 0. -1.
        -11    1    3    3    0    0  0.22819587310E+03 -0.58859478593E+03 -0.44794348499E+03  0.77406107270E+03  0.00000000000E+00 0.  1.
          2    1    6    6  502    0 -0.32985856937E+03  0.26112859600E+03 -0.32666278882E+03  0.53263814831E+03  0.00000000000E+00 0. -1.
          1    1    5    5  503    0  0.51695957794E+02  0.59126964944E+02  0.80887076578E+02  0.11274390978E+03  0.00000000000E+00 0. -1.
         -2    1    5    5    0  503  0.51368810584E+02  0.27059995634E+03  0.31839966461E+03  0.42100051959E+03  0.00000000000E+00 0.  1.
         -1    1    6    6    0  502 -0.14301112608E+02  0.47710708468E+01 -0.37317063591E+02  0.40247337476E+02  0.00000000000E+00 0.  1.
<mgrwt>
<rscale>  0 0.18497466E+04</rscale>
<asrwt>0</asrwt>
<pdfrwt beam="1">  1        2 0.11398989E+00 0.18497466E+04</pdfrwt>
<pdfrwt beam="2">  1       -2 0.17761165E+00 0.18497466E+04</pdfrwt>
<totfact> 0.67441351E+00</totfact>
</mgrwt>
</event>
<event>
12    1  0.1397649E-007  0.1320091E+04  0.7818608E-02  0.9013783E-01
          1   -1    0    0  501    0  0.00000000000E+00  0.00000000000E+00  0.10625075841E+04  0.10625075841E+04  0.00000000000E+00 0. -1.
         -1   -1    0    0    0  501 -0.00000000000E+00 -0.00000000000E+00 -0.41003007632E+03  0.41003007632E+03  0.00000000000E+00 0.  1.
         23    2    1    2    0    0  0.16995697441E+03  0.23494743567E+03 -0.78859558500E+01  0.30491229517E+03  0.93934279005E+02 0.  0.
        254    2    1    2    0    0 -0.16995697441E+03 -0.23494743567E+03  0.66036346367E+03  0.11676253653E+04  0.91825019403E+03 0.  0.
        -24    2    4    4    0    0  0.25669959090E+03  0.20615864884E+03  0.18002146968E+03  0.38381726806E+03  0.80696327409E+02 0.  0.
         24    2    4    4    0    0 -0.42665656531E+03 -0.44110608450E+03  0.48034199400E+03  0.78380809723E+03  0.83763354655E+02 0.  0.
         13    1    3    3    0    0  0.17648837875E+02  0.92195028426E+02 -0.19374614391E+02  0.95847693909E+02  0.00000000000E+00 0.  1.
        -13    1    3    3    0    0  0.15230813653E+03  0.14275240724E+03  0.11488658541E+02  0.20906460126E+03  0.00000000000E+00 0. -1.
          2    1    6    6  502    0 -0.32225418490E+03 -0.27936259083E+03  0.31818166717E+03  0.53210035722E+03  0.00000000000E+00 0. -1.
          3    1    5    5  503    0  0.19121682238E+03  0.16090241109E+03  0.95013834912E+02  0.26735947314E+03  0.00000000000E+00 0. -1.
         -4    1    5    5    0  503  0.65482768523E+02  0.45256237745E+02  0.85007634763E+02  0.11645779491E+03  0.00000000000E+00 0.  1.
         -1    1    6    6    0  502 -0.10440238041E+03 -0.16174349367E+03  0.16216032683E+03  0.25170774001E+03  0.00000000000E+00 0.  1.
<mgrwt>
<rscale>  0 0.13200910E+04</rscale>
<asrwt>0</asrwt>
<pdfrwt beam="1">  1        1 0.16346270E+00 0.13200910E+04</pdfrwt>
<pdfrwt beam="2">  1       -1 0.63081551E-01 0.13200910E+04</pdfrwt>
<totfact> 0.33852050E+01</totfact>
</mgrwt>
</event>
<event>
12    1  0.1397649E-007  0.1441517E+04  0.7818608E-02  0.8924303E-01
         -1   -1    0    0    0  501 -0.00000000000E+00  0.00000000000E+00  0.76784559039E+03  0.76784559039E+03  0.00000000000E+00 0.  1.
          1   -1    0    0  501    0  0.00000000000E+00 -0.00000000000E+00 -0.67655877148E+03  0.67655877148E+03  0.00000000000E+00 0. -1.
         23    2    1    2    0    0  0.86016707130E+02 -0.41469536853E+03  0.11586968223E+03  0.44863922189E+03  0.92088248833E+02 0.  0.
        254    2    1    2    0    0 -0.86016707130E+02  0.41469536853E+03 -0.24582863322E+02  0.99576513998E+03  0.90087333974E+03 0.  0.
        -24    2    4    4    0    0  0.24891229208E+03  0.28237706555E+03 -0.33746013790E+03  0.51158275969E+03  0.78380093400E+02 0.  0.
         24    2    4    4    0    0 -0.33492899921E+03  0.13231830298E+03  0.31287727458E+03  0.48418238029E+03  0.82793844110E+02 0.  0.
         13    1    3    3    0    0  0.53785576775E+02 -0.20102312994E+03  0.10293967617E+03  0.23216322700E+03  0.00000000000E+00 0.  1.
        -13    1    3    3    0    0  0.32231130355E+02 -0.21367223859E+03  0.12930006056E+02  0.21647599489E+03  0.00000000000E+00 0. -1.
          2    1    6    6  502    0 -0.37089670259E+02  0.11137424713E+02  0.50722373846E+01  0.39056541850E+02  0.00000000000E+00 0. -1.
          3    1    5    5  503    0  0.97871632511E-01  0.26933331741E+02 -0.15092499530E+02  0.30873896411E+02  0.00000000000E+00 0. -1.
         -4    1    5    5    0  503  0.24881442045E+03  0.25544373381E+03 -0.32236763837E+03  0.48070886328E+03  0.00000000000E+00 0.  1.
         -1    1    6    6    0  502 -0.29783932895E+03  0.12118087827E+03  0.30780503719E+03  0.44512583844E+03  0.00000000000E+00 0.  1.
<mgrwt>
<rscale>  0 0.14415168E+04</rscale>
<asrwt>0</asrwt>
<pdfrwt beam="1">  1        1 0.10408597E+00 0.14415168E+04</pdfrwt>
<pdfrwt beam="2">  1       -1 0.11813009E+00 0.14415168E+04</pdfrwt>
<totfact> 0.17941813E+01</totfact>
</mgrwt>
</event>
<event>
12    1  0.1397649E-007  0.1535251E+04  0.7818608E-02  0.8861344E-01
         -2   -1    0    0    0  501 -0.00000000000E+00  0.00000000000E+00  0.26231166145E+03  0.26231166145E+03  0.00000000000E+00 0.  1.
          2   -1    0    0  501    0  0.00000000000E+00 -0.00000000000E+00 -0.22463705870E+04  0.22463705870E+04  0.00000000000E+00 0. -1.
         23    2    1    2    0    0  0.24290198763E+03  0.82786108458E+02  0.42122960769E+02  0.27635419294E+03  0.93500699374E+02 0.  0.
        254    2    1    2    0    0 -0.24290198763E+03 -0.82786108458E+02 -0.20261818863E+04  0.22323280555E+04  0.90112185390E+03 0.  0.
        -24    2    4    4    0    0  0.29766677768E+03 -0.11456658037E+03 -0.40830392062E+03  0.52432918649E+03  0.80485976037E+02 0.  0.
         24    2    4    4    0    0 -0.54056876531E+03  0.31780471916E+02 -0.16178779657E+04  0.17079988690E+04  0.80662483479E+02 0.  0.
         13    1    3    3    0    0  0.13103377686E+03  0.64841463514E+02  0.66259389253E+02  0.16051346590E+03  0.00000000000E+00 0.  1.
        -13    1    3    3    0    0  0.11186821077E+03  0.17944644944E+02 -0.24136428483E+02  0.11584072705E+03  0.00000000000E+00 0. -1.
          4    1    6    6  502    0 -0.20667698443E+03  0.38551956922E+02 -0.53637513514E+03  0.57610755496E+03  0.00000000000E+00 0. -1.
          3    1    5    5  503    0  0.91137528408E+02 -0.75118439575E+01 -0.15846224068E+03  0.18295561922E+03  0.00000000000E+00 0. -1.
         -4    1    5    5    0  503  0.20652924927E+03 -0.10705473642E+03 -0.24984167995E+03  0.34137356727E+03  0.00000000000E+00 0.  1.
         -3    1    6    6    0  502 -0.33389178088E+03 -0.67714850061E+01 -0.10815028305E+04  0.11318913140E+04  0.00000000000E+00 0.  1.
<mgrwt>
<rscale>  0 0.15352514E+04</rscale>
<asrwt>0</asrwt>
<pdfrwt beam="1">  1        2 0.34559546E+00 0.15352514E+04</pdfrwt>
<pdfrwt beam="2">  1       -2 0.40355642E-01 0.15352514E+04</pdfrwt>
<totfact> 0.27264096E+01</totfact>
</mgrwt>
</event>
<event>
12    1  0.1397649E-007  0.1838215E+04  0.7818608E-02  0.8686237E-01
         -2   -1    0    0    0  501 -0.00000000000E+00  0.00000000000E+00  0.31891180357E+03  0.31891180357E+03  0.00000000000E+00 0.  1.
          2   -1    0    0  501    0  0.00000000000E+00 -0.00000000000E+00 -0.26488773143E+04  0.26488773143E+04  0.00000000000E+00 0. -1.
         23    2    1    2    0    0 -0.54296452145E+03 -0.13877479716E+03 -0.22215045308E+03  0.60963149877E+03  0.90723892172E+02 0.  0.
        254    2    1    2    0    0  0.54296452145E+03  0.13877479716E+03 -0.21078150576E+04  0.23581576191E+04  0.89663488857E+03 0.  0.
        -24    2    4    4    0    0  0.19086175312E+03  0.41646909044E+03 -0.16426428818E+04  0.17070930430E+04  0.77564865963E+02 0.  0.
         24    2    4    4    0    0  0.35210276833E+03 -0.27769429329E+03 -0.46517217586E+03  0.65106457605E+03  0.80059034522E+02 0.  0.
         13    1    3    3    0    0 -0.34476979267E+02 -0.75930918887E+01 -0.41054868292E+02  0.54146277382E+02  0.00000000000E+00 0. -1.
        -13    1    3    3    0    0 -0.50848754218E+03 -0.13118170527E+03 -0.18109558478E+03  0.55548522139E+03  0.00000000000E+00 0.  1.
          4    1    6    6  502    0  0.24629862182E+03 -0.20659212160E+03 -0.38007274341E+03  0.49779373851E+03  0.00000000000E+00 0. -1.
          1    1    5    5  503    0  0.17438165706E+03  0.36640365518E+03 -0.15271431886E+04  0.15801350953E+04  0.00000000000E+00 0. -1.
         -2    1    5    5    0  503  0.16480096061E+02  0.50065435268E+02 -0.11549969317E+03  0.12695794775E+03  0.00000000000E+00 0.  1.
         -3    1    6    6    0  502  0.10580414651E+03 -0.71102171688E+02 -0.85099432444E+02  0.15327083754E+03  0.00000000000E+00 0.  1.
<mgrwt>
<rscale>  0 0.18382146E+04</rscale>
<asrwt>0</asrwt>
<pdfrwt beam="1">  1        2 0.40751959E+00 0.18382146E+04</pdfrwt>
<pdfrwt beam="2">  1       -2 0.49063355E-01 0.18382146E+04</pdfrwt>
<totfact> 0.10558886E+01</totfact>
</mgrwt>
</event>
<event>
12    1  0.1397649E-007  0.1211545E+04  0.7818608E-02  0.9102811E-01
          1   -1    0    0  501    0  0.00000000000E+00  0.00000000000E+00  0.59709580790E+03  0.59709580790E+03  0.00000000000E+00 0. -1.
         -1   -1    0    0    0  501 -0.00000000000E+00 -0.00000000000E+00 -0.61457486440E+03  0.61457486440E+03  0.00000000000E+00 0.  1.
         23    2    1    2    0    0 -0.11983716850E+03 -0.13123248402E+03  0.19282025224E+03  0.27580378548E+03  0.85470267330E+02 0.  0.
        254    2    1    2    0    0  0.11983716850E+03  0.13123248402E+03 -0.21029930874E+03  0.93586688682E+03  0.89444849978E+03 0.  0.
        -24    2    4    4    0    0  0.41617299798E+03  0.30185006897E+03 -0.25749100578E+03  0.58072208431E+03  0.81382386060E+02 0.  0.
         24    2    4    4    0    0 -0.29633582948E+03 -0.17061758495E+03  0.47191697039E+02  0.35514480251E+03  0.83519401037E+02 0.  0.
         13    1    3    3    0    0 -0.52812625990E+02 -0.10189227122E+03  0.15663485951E+03  0.19417952419E+03  0.00000000000E+00 0. -1.
        -13    1    3    3    0    0 -0.67024542507E+02 -0.29340212799E+02  0.36185392726E+02  0.81624261296E+02  0.00000000000E+00 0.  1.
          2    1    6    6  502    0 -0.24102505028E+03 -0.96851271554E+02  0.37174254378E+02  0.26240268454E+03  0.00000000000E+00 0. -1.
          3    1    5    5  503    0  0.28322365484E+03  0.15671632983E+03 -0.16088026292E+03  0.36146660384E+03  0.00000000000E+00 0. -1.
         -4    1    5    5    0  503  0.13294934314E+03  0.14513373914E+03 -0.96610742862E+02  0.21925548046E+03  0.00000000000E+00 0.  1.
         -1    1    6    6    0  502 -0.55310779200E+02 -0.73766313394E+02  0.10017442661E+02  0.92742117966E+02  0.00000000000E+00 0.  1.
<mgrwt>
<rscale>  0 0.12115446E+04</rscale>
<asrwt>0</asrwt>
<pdfrwt beam="1">  1        1 0.91860894E-01 0.12115446E+04</pdfrwt>
<pdfrwt beam="2">  1       -1 0.94549979E-01 0.12115446E+04</pdfrwt>
<totfact> 0.36933238E+01</totfact>
</mgrwt>
</event>
<event>
12    1  0.1397649E-007  0.1433293E+04  0.7818608E-02  0.8930066E-01
         -1   -1    0    0    0  501 -0.00000000000E+00  0.00000000000E+00  0.38048425462E+03  0.38048425462E+03  0.00000000000E+00 0.  1.
          1   -1    0    0  501    0  0.00000000000E+00 -0.00000000000E+00 -0.13498116092E+04  0.13498116092E+04  0.00000000000E+00 0. -1.
         23    2    1    2    0    0 -0.31872095957E+03 -0.28315467838E+03 -0.28597280974E+03  0.52106450395E+03  0.89264480120E+02 0.  0.
        254    2    1    2    0    0  0.31872095957E+03  0.28315467838E+03 -0.68335454479E+03  0.12092313598E+04  0.90194646501E+03 0.  0.
        -24    2    4    4    0    0  0.54201088601E+03  0.28415476294E+03 -0.16371207379E+03  0.63845848974E+03  0.79422101291E+02 0.  0.
         24    2    4    4    0    0 -0.22328992644E+03 -0.10000845539E+01 -0.51964247100E+03  0.57077287009E+03  0.76772261498E+02 0.  0.
         11    1    3    3    0    0 -0.25953064644E+03 -0.23090151878E+03 -0.18718346721E+03  0.39460020047E+03  0.00000000000E+00 0. -1.
        -11    1    3    3    0    0 -0.59190313128E+02 -0.52253159599E+02 -0.98789342535E+02  0.12646430348E+03  0.00000000000E+00 0.  1.
          2    1    6    6  502    0  0.25025191455E+01 -0.71968681676E+01 -0.38516245756E+02  0.39262688403E+02  0.00000000000E+00 0. -1.
          3    1    5    5  503    0  0.32830561502E+03  0.14468621948E+03 -0.12727942463E+03  0.38068192878E+03  0.00000000000E+00 0. -1.
         -4    1    5    5    0  503  0.21370527098E+03  0.13946854345E+03 -0.36432649162E+02  0.25777656097E+03  0.00000000000E+00 0.  1.
         -1    1    6    6    0  502 -0.22579244558E+03  0.61967836137E+01 -0.48112622525E+03  0.53151018168E+03  0.00000000000E+00 0.  1.
<mgrwt>
<rscale>  0 0.14332928E+04</rscale>
<asrwt>0</asrwt>
<pdfrwt beam="1">  1        1 0.20766333E+00 0.14332928E+04</pdfrwt>
<pdfrwt beam="2">  1       -1 0.58536039E-01 0.14332928E+04</pdfrwt>
<totfact> 0.23974481E+01</totfact>
</mgrwt>
</event>
<event>
12    1  0.1397649E-007  0.1429161E+04  0.7818608E-02  0.8932977E-01
          2   -1    0    0  501    0  0.00000000000E+00  0.00000000000E+00  0.12573182595E+04  0.12573182595E+04  0.00000000000E+00 0. -1.
         -2   -1    0    0    0  501 -0.00000000000E+00 -0.00000000000E+00 -0.40612266931E+03  0.40612266931E+03  0.00000000000E+00 0.  1.
         23    2    1    2    0    0 -0.16851160500E+03 -0.13776638708E+03  0.67171697277E+03  0.71191155691E+03  0.90766926365E+02 0.  0.
        254    2    1    2    0    0  0.16851160500E+03  0.13776638708E+03  0.17947861743E+03  0.95152937191E+03  0.90874629742E+03 0.  0.
        -24    2    4    4    0    0 -0.35844964704E+03  0.10621909520E+03 -0.20729012744E+02  0.38263322455E+03  0.78802581909E+02 0.  0.
         24    2    4    4    0    0  0.52696125204E+03  0.31547291883E+02  0.20020763017E+03  0.56889614736E+03  0.69830784897E+02 0.  0.
         13    1    3    3    0    0 -0.85347350869E+02 -0.28513893458E+02  0.17792226578E+03  0.19938291071E+03  0.00000000000E+00 0.  1.
        -13    1    3    3    0    0 -0.83164254133E+02 -0.10925249362E+03  0.49379470699E+03  0.51252864620E+03  0.00000000000E+00 0. -1.
          2    1    6    6  502    0  0.51871082239E+03  0.34382217826E+02  0.20515577729E+03  0.55886666310E+03  0.00000000000E+00 0. -1.
          3    1    5    5  503    0 -0.18964431703E+03  0.68888152224E+02  0.26278356681E+02  0.20347259405E+03  0.00000000000E+00 0. -1.
         -2    1    5    5    0  503 -0.16880533001E+03  0.37330942972E+02 -0.47007369425E+02  0.17916063051E+03  0.00000000000E+00 0.  1.
         -1    1    6    6    0  502  0.82504296543E+01 -0.28349259424E+01 -0.49481471210E+01  0.10029484259E+02  0.00000000000E+00 0.  1.
<mgrwt>
<rscale>  0 0.14291612E+04</rscale>
<asrwt>0</asrwt>
<pdfrwt beam="1">  1        2 0.19343358E+00 0.14291612E+04</pdfrwt>
<pdfrwt beam="2">  1       -2 0.62480411E-01 0.14291612E+04</pdfrwt>
<totfact> 0.40417425E+01</totfact>
</mgrwt>
</event>
<event>
12    1  0.1397649E-007  0.1385221E+04  0.7818608E-02  0.8964587E-01
          1   -1    0    0  501    0  0.00000000000E+00  0.00000000000E+00  0.16877674038E+04  0.16877674038E+04  0.00000000000E+00 0. -1.
         -1   -1    0    0    0  501 -0.00000000000E+00 -0.00000000000E+00 -0.28422702315E+03  0.28422702315E+03  0.00000000000E+00 0.  1.
         23    2    1    2    0    0 -0.30815462692E+03 -0.14336157424E+03  0.68879961104E+03  0.77393821903E+03  0.94992882064E+02 0.  0.
        254    2    1    2    0    0  0.30815462692E+03  0.14336157424E+03  0.71474076964E+03  0.11980562080E+04  0.89942898251E+03 0.  0.
        -24    2    4    4    0    0  0.25016633958E+02  0.94959901011E+02 -0.19933072301E+03  0.23613972525E+03  0.79912564265E+02 0.  0.
         24    2    4    4    0    0  0.28313799296E+03  0.48401673226E+02  0.91407149265E+03  0.96191648271E+03  0.85128027115E+02 0.  0.
         11    1    3    3    0    0 -0.19306709418E+02  0.34492639461E+00  0.86649983168E+01  0.21164834008E+02  0.00000000000E+00 0.  1.
        -11    1    3    3    0    0 -0.28884791750E+03 -0.14370650063E+03  0.68013461273E+03  0.75277338502E+03  0.00000000000E+00 0. -1.
          2    1    6    6  502    0  0.11383708727E+02  0.21685264767E+02  0.49150790964E+02  0.54914841207E+02  0.00000000000E+00 0. -1.
          1    1    5    5  503    0  0.51989382085E+02  0.49542946567E+02 -0.13489096170E+03  0.15281678885E+03  0.00000000000E+00 0. -1.
         -2    1    5    5    0  503 -0.26972748127E+02  0.45416954444E+02 -0.64439761311E+02  0.83322936400E+02  0.00000000000E+00 0.  1.
         -1    1    6    6    0  502  0.27175428423E+03  0.26716408459E+02  0.86492070169E+03  0.90700164150E+03  0.00000000000E+00 0.  1.
<mgrwt>
<rscale>  0 0.13852207E+04</rscale>
<asrwt>0</asrwt>
<pdfrwt beam="1">  1        1 0.25965652E+00 0.13852207E+04</pdfrwt>
<pdfrwt beam="2">  1       -1 0.43727235E-01 0.13852207E+04</pdfrwt>
<totfact> 0.24507998E+01</totfact>
</mgrwt>
</event>
<event>
12    1  0.1397649E-007  0.1567193E+04  0.7818608E-02  0.8840960E-01
          2   -1    0    0  501    0  0.00000000000E+00  0.00000000000E+00  0.47085387742E+04  0.47085387742E+04  0.00000000000E+00 0. -1.
         -2   -1    0    0    0  501 -0.00000000000E+00 -0.00000000000E+00 -0.13040640942E+03  0.13040640942E+03  0.00000000000E+00 0.  1.
         23    2    1    2    0    0  0.50900206313E+03  0.10187503849E+03  0.17132765670E+04  0.17930875609E+04  0.10190575215E+03 0.  0.
        254    2    1    2    0    0 -0.50900206313E+03 -0.10187503849E+03  0.28648557978E+04  0.30458576227E+04  0.89464422651E+03 0.  0.
        -24    2    4    4    0    0 -0.35456032107E+03  0.24792454565E+03  0.23938271321E+04  0.24338251355E+04  0.76921064065E+02 0.  0.
         24    2    4    4    0    0 -0.15444174206E+03 -0.34979958414E+03  0.47102866565E+03  0.61203248721E+03  0.80645897456E+02 0.  0.
         13    1    3    3    0    0  0.83943621011E+02  0.22543570901E+02  0.17808729983E+03  0.19816616881E+03  0.00000000000E+00 0.  1.
        -13    1    3    3    0    0  0.42505844212E+03  0.79331467594E+02  0.15351892672E+04  0.15949213921E+04  0.00000000000E+00 0. -1.
          4    1    6    6  502    0 -0.49448271440E+02 -0.14483194756E+03  0.13153421069E+03  0.20179859555E+03  0.00000000000E+00 0. -1.
          3    1    5    5  503    0 -0.31839335832E+03  0.18926605651E+03  0.20382000693E+04  0.20715828473E+04  0.00000000000E+00 0. -1.
         -4    1    5    5    0  503 -0.36166962743E+02  0.58658489139E+02  0.35562706284E+03  0.36224228821E+03  0.00000000000E+00 0.  1.
         -3    1    6    6    0  502 -0.10499347062E+03 -0.20496763658E+03  0.33949445496E+03  0.41023389166E+03  0.00000000000E+00 0.  1.
<mgrwt>
<rscale>  0 0.15671932E+04</rscale>
<asrwt>0</asrwt>
<pdfrwt beam="1">  1        2 0.72439045E+00 0.15671932E+04</pdfrwt>
<pdfrwt beam="2">  1       -2 0.20062528E-01 0.15671932E+04</pdfrwt>
<totfact> 0.15945465E+00</totfact>
</mgrwt>
</event>
<event>
12    1  0.1397649E-007  0.1356016E+04  0.7818608E-02  0.8986287E-01
         -2   -1    0    0    0  501 -0.00000000000E+00  0.00000000000E+00  0.34147647780E+03  0.34147647780E+03  0.00000000000E+00 0.  1.
          2   -1    0    0  501    0  0.00000000000E+00 -0.00000000000E+00 -0.13461972758E+04  0.13461972758E+04  0.00000000000E+00 0. -1.
         23    2    1    2    0    0 -0.19467184291E+03  0.24113784642E+03 -0.53314258039E+03  0.62318049905E+03  0.89823916539E+02 0.  0.
        254    2    1    2    0    0  0.19467184291E+03 -0.24113784642E+03 -0.47157821763E+03  0.10644932546E+04  0.90261580213E+03 0.  0.
        -24    2    4    4    0    0  0.58429897307E+02 -0.57468994880E+03 -0.25180170608E+03  0.63518104460E+03  0.79801441617E+02 0.  0.
         24    2    4    4    0    0  0.13624194561E+03  0.33355210238E+03 -0.21977651155E+03  0.42931220995E+03  0.78666294160E+02 0.  0.
         11    1    3    3    0    0 -0.13645256146E+03  0.20267153900E+03 -0.34698346208E+03  0.42437315797E+03  0.00000000000E+00 0. -1.
        -11    1    3    3    0    0 -0.58219281459E+02  0.38466307412E+02 -0.18615911831E+03  0.19880734108E+03  0.00000000000E+00 0.  1.
          2    1    6    6  502    0  0.38721127730E+02  0.18836091928E+03 -0.95162472306E+02  0.21455781920E+03  0.00000000000E+00 0. -1.
          3    1    5    5  503    0  0.40492353958E+01 -0.32826689563E+03 -0.11312988758E+03  0.34723755923E+03  0.00000000000E+00 0. -1.
         -4    1    5    5    0  503  0.54380661911E+02 -0.24642305317E+03 -0.13867181850E+03  0.28794348537E+03  0.00000000000E+00 0.  1.
         -1    1    6    6    0  502  0.97520817877E+02  0.14519118311E+03 -0.12461403924E+03  0.21475439075E+03  0.00000000000E+00 0.  1.
<mgrwt>
<rscale>  0 0.13560158E+04</rscale>
<asrwt>0</asrwt>
<pdfrwt beam="1">  1        2 0.20710727E+00 0.13560158E+04</pdfrwt>
<pdfrwt beam="2">  1       -2 0.52534843E-01 0.13560158E+04</pdfrwt>
<totfact> 0.51864620E+01</totfact>
</mgrwt>
</event>
<event>
12    1  0.1397649E-007  0.1361940E+04  0.7818608E-02  0.8981838E-01
         -1   -1    0    0    0  501 -0.00000000000E+00  0.00000000000E+00  0.88418617490E+03  0.88418617490E+03  0.00000000000E+00 0.  1.
          1   -1    0    0  501    0  0.00000000000E+00 -0.00000000000E+00 -0.52446020917E+03  0.52446020917E+03  0.00000000000E+00 0. -1.
         23    2    1    2    0    0 -0.31836450475E+01 -0.95381419258E+01 -0.28319443697E+03  0.29757343124E+03  0.90828112947E+02 0.  0.
        254    2    1    2    0    0  0.31836450475E+01  0.95381419258E+01  0.64292040270E+03  0.11110729528E+04  0.90611001019E+03 0.  0.
        -24    2    4    4    0    0 -0.12483248674E+02  0.31533720530E+03  0.71607040085E+03  0.78664695598E+03  0.80394215160E+02 0.  0.
         24    2    4    4    0    0  0.15666893722E+02 -0.30579906337E+03 -0.73149998154E+02  0.32442599686E+03  0.78375930532E+02 0.  0.
         13    1    3    3    0    0  0.19562536328E+02  0.78903725309E+01 -0.25959609393E+03  0.26045168993E+03  0.00000000000E+00 0. -1.
        -13    1    3    3    0    0 -0.22746181376E+02 -0.17428514457E+02 -0.23598343044E+02  0.37121741309E+02  0.00000000000E+00 0.  1.
          4    1    6    6  502    0 -0.28501775787E+02 -0.18485944541E+03 -0.36662795454E+02  0.19060305966E+03  0.00000000000E+00 0. -1.
          3    1    5    5  503    0  0.32511624200E+02  0.16670851466E+03  0.35173334359E+03  0.39059580075E+03  0.00000000000E+00 0. -1.
         -4    1    5    5    0  503 -0.44994872874E+02  0.14862869064E+03  0.36433705726E+03  0.39605115523E+03  0.00000000000E+00 0.  1.
         -3    1    6    6    0  502  0.44168669509E+02 -0.12093961796E+03 -0.36487202700E+02  0.13382293720E+03  0.00000000000E+00 0.  1.
<mgrwt>
<rscale>  0 0.13619405E+04</rscale>
<asrwt>0</asrwt>
<pdfrwt beam="1">  1        1 0.80686186E-01 0.13619405E+04</pdfrwt>
<pdfrwt beam="2">  1       -1 0.13602864E+00 0.13619405E+04</pdfrwt>
<totfact> 0.18325700E+01</totfact>
</mgrwt>
</event>
<event>
12    1  0.1397649E-007  0.1941465E+04  0.7818608E-02  0.8634487E-01
          1   -1    0    0  501    0  0.00000000000E+00  0.00000000000E+00  0.13877324108E+04  0.13877324108E+04  0.00000000000E+00 0. -1.
         -1   -1    0    0    0  501 -0.00000000000E+00 -0.00000000000E+00 -0.67903703566E+03  0.67903703566E+03  0.00000000000E+00 0.  1.
         23    2    1    2    0    0  0.53207684822E+03 -0.42733903973E+03  0.63853473642E+03  0.93913913760E+03  0.92364943939E+02 0.  0.
        254    2    1    2    0    0 -0.53207684822E+03  0.42733903973E+03  0.70160638751E+02  0.11276303089E+04  0.89493193652E+03 0.  0.
        -24    2    4    4    0    0  0.11078954110E+03  0.30309308179E+03  0.28072512572E+03  0.43518747127E+03  0.80260826630E+02 0.  0.
         24    2    4    4    0    0 -0.64286638932E+03  0.12424595794E+03 -0.21056448697E+03  0.69244283762E+03  0.80158765084E+02 0.  0.
         13    1    3    3    0    0  0.12012346392E+03 -0.14428554344E+03  0.15124079367E+03  0.24108451278E+03  0.00000000000E+00 0.  1.
        -13    1    3    3    0    0  0.41195338431E+03 -0.28305349628E+03  0.48729394275E+03  0.69805462482E+03  0.00000000000E+00 0. -1.
          2    1    6    6  502    0 -0.39066471683E+03  0.81213733080E+02 -0.16861149139E+03  0.43317943909E+03  0.00000000000E+00 0. -1.
          1    1    5    5  503    0  0.98919357635E+02  0.27448382813E+03  0.27973056398E+03  0.40419747605E+03  0.00000000000E+00 0. -1.
         -2    1    5    5    0  503  0.11870183460E+02  0.28609253662E+02  0.99456173726E+00  0.30989995216E+02  0.00000000000E+00 0.  1.
         -1    1    6    6    0  502 -0.25220167248E+03  0.43032224856E+02 -0.41952995576E+02  0.25926339853E+03  0.00000000000E+00 0.  1.
<mgrwt>
<rscale>  0 0.19414651E+04</rscale>
<asrwt>0</asrwt>
<pdfrwt beam="1">  1        1 0.21349729E+00 0.19414651E+04</pdfrwt>
<pdfrwt beam="2">  1       -1 0.10446724E+00 0.19414651E+04</pdfrwt>
<totfact> 0.62949036E+00</totfact>
</mgrwt>
</event>
<event>
12    1  0.1397649E-007  0.2266382E+04  0.7818608E-02  0.8491295E-01
         -2   -1    0    0    0  501 -0.00000000000E+00  0.00000000000E+00  0.33968793502E+03  0.33968793502E+03  0.00000000000E+00 0.  1.
          2   -1    0    0  501    0  0.00000000000E+00 -0.00000000000E+00 -0.37802981318E+04  0.37802981318E+04  0.00000000000E+00 0. -1.
         23    2    1    2    0    0  0.65641672387E+03  0.49007679968E+03 -0.23632904807E+04  0.25035448522E+04  0.10740924538E+03 0.  0.
        254    2    1    2    0    0 -0.65641672387E+03 -0.49007679968E+03 -0.10773197161E+04  0.16164412146E+04  0.88385872434E+03 0.  0.
        -24    2    4    4    0    0  0.82231481043E+02 -0.37265525084E+03 -0.63227619384E+03  0.74280090635E+03  0.79662090906E+02 0.  0.
         24    2    4    4    0    0 -0.73864820491E+03 -0.11742154884E+03 -0.44504352224E+03  0.87364030823E+03  0.76122668996E+02 0.  0.
         11    1    3    3    0    0  0.57922172763E+03  0.42238875661E+03 -0.19470235348E+04  0.20748037778E+04  0.00000000000E+00 0. -1.
        -11    1    3    3    0    0  0.77194996232E+02  0.67688043069E+02 -0.41626694590E+03  0.42874107439E+03  0.00000000000E+00 0.  1.
          2    1    6    6  502    0 -0.37332557076E+03 -0.82254417983E+02 -0.19146843175E+03  0.42754874741E+03  0.00000000000E+00 0. -1.
          1    1    5    5  503    0  0.67551852184E+02 -0.23686421477E+03 -0.47055077194E+03  0.53111763099E+03  0.00000000000E+00 0. -1.
         -4    1    5    5    0  503  0.14679628859E+02 -0.13579103607E+03 -0.16172542190E+03  0.21168327536E+03  0.00000000000E+00 0.  1.
         -1    1    6    6    0  502 -0.36532263415E+03 -0.35167130855E+02 -0.25357509049E+03  0.44609156082E+03  0.00000000000E+00 0.  1.
<mgrwt>
<rscale>  0 0.22663818E+04</rscale>
<asrwt>0</asrwt>
<pdfrwt beam="1">  1        2 0.58158435E+00 0.22663818E+04</pdfrwt>
<pdfrwt beam="2">  1       -2 0.52259681E-01 0.22663818E+04</pdfrwt>
<totfact> 0.16045515E+00</totfact>
</mgrwt>
</event>
<event>
12    1  0.1397649E-007  0.3695211E+04  0.7818608E-02  0.8069024E-01
         -1   -1    0    0    0  501 -0.00000000000E+00  0.00000000000E+00  0.10271173610E+04  0.10271173610E+04  0.00000000000E+00 0.  1.
          1   -1    0    0  501    0  0.00000000000E+00 -0.00000000000E+00 -0.33235211368E+04  0.33235211368E+04  0.00000000000E+00 0. -1.
         23    2    1    2    0    0  0.12665676406E+04 -0.77819949908E+03 -0.28634281734E+02  0.14898645794E+04  0.95333593359E+02 0.  0.
        254    2    1    2    0    0 -0.12665676406E+04  0.77819949908E+03 -0.22677694940E+04  0.28607739184E+04  0.91184477058E+03 0.  0.
        -24    2    4    4    0    0 -0.11267058273E+04  0.39297013031E+03 -0.20870224316E+04  0.24055880404E+04  0.85437962016E+02 0.  0.
         24    2    4    4    0    0 -0.13986181332E+03  0.38522936877E+03 -0.18074706240E+03  0.45518587803E+03  0.81004256705E+02 0.  0.
         13    1    3    3    0    0  0.23168692586E+03 -0.11726523109E+03  0.24202849797E+02  0.26079828216E+03  0.00000000000E+00 0. -1.
        -13    1    3    3    0    0  0.10348807148E+04 -0.66093426799E+03 -0.52837131531E+02  0.12290662972E+04  0.00000000000E+00 0.  1.
          4    1    6    6  502    0 -0.90256696735E+02  0.13640190655E+03 -0.81519381794E+02  0.18274890157E+03  0.00000000000E+00 0. -1.
          3    1    5    5  503    0 -0.59197235047E+03  0.17944092857E+03 -0.11495873569E+04  0.13054429906E+04  0.00000000000E+00 0. -1.
         -4    1    5    5    0  503 -0.53473347686E+03  0.21352920174E+03 -0.93743507472E+03  0.11001450498E+04  0.00000000000E+00 0.  1.
         -1    1    6    6    0  502 -0.49605116582E+02  0.24882746222E+03 -0.99227680608E+02  0.27243697646E+03  0.00000000000E+00 0.  1.
<mgrwt>
<rscale>  0 0.36952111E+04</rscale>
<asrwt>0</asrwt>
<pdfrwt beam="1">  1        1 0.51131093E+00 0.36952111E+04</pdfrwt>
<pdfrwt beam="2">  1       -1 0.15801806E+00 0.36952111E+04</pdfrwt>
<totfact> 0.83112076E-02</totfact>
</mgrwt>
</event>
<event>
12    1  0.1397649E-007  0.1443285E+04  0.7818608E-02  0.8923069E-01
          2   -1    0    0  501    0  0.00000000000E+00  0.00000000000E+00  0.11466719664E+04  0.11466719664E+04  0.00000000000E+00 0. -1.
         -2   -1    0    0    0  501 -0.00000000000E+00 -0.00000000000E+00 -0.45415623373E+03  0.45415623373E+03  0.00000000000E+00 0.  1.
         23    2    1    2    0    0  0.34141251751E+03 -0.47058962431E+02 -0.90632218782E+02  0.36802969082E+03  0.91948905316E+02 0.  0.
        254    2    1    2    0    0 -0.34141251751E+03  0.47058962431E+02  0.78314795150E+03  0.12327985094E+04  0.88752149139E+03 0.  0.
        -24    2    4    4    0    0 -0.50477783684E+03 -0.10586563239E+03  0.83983927667E+03  0.98842784355E+03  0.75175757964E+02 0.  0.
         24    2    4    4    0    0  0.16336531932E+03  0.15292459483E+03 -0.56691325169E+02  0.24437066581E+03  0.80180775115E+02 0.  0.
         13    1    3    3    0    0  0.26219136109E+03 -0.44109878235E+00 -0.47363351448E+02  0.26643534198E+03  0.00000000000E+00 0.  1.
        -13    1    3    3    0    0  0.79221156423E+02 -0.46617863649E+02 -0.43268867334E+02  0.10159434884E+03  0.00000000000E+00 0. -1.
          4    1    6    6  502    0  0.88907072403E+02  0.35543292520E+02 -0.43811829515E+01  0.95848776364E+02  0.00000000000E+00 0. -1.
          1    1    5    5  503    0 -0.50540018861E+03 -0.10876403102E+03  0.82730116558E+03  0.97554404496E+03  0.00000000000E+00 0. -1.
         -2    1    5    5    0  503  0.62235177847E+00  0.28983986238E+01  0.12538111088E+02  0.12883798585E+02  0.00000000000E+00 0.  1.
         -3    1    6    6    0  502  0.74458246922E+02  0.11738130231E+03 -0.52310142217E+02  0.14852188945E+03  0.00000000000E+00 0.  1.
<mgrwt>
<rscale>  0 0.14432854E+04</rscale>
<asrwt>0</asrwt>
<pdfrwt beam="1">  1        2 0.17641107E+00 0.14432854E+04</pdfrwt>
<pdfrwt beam="2">  1       -2 0.69870190E-01 0.14432854E+04</pdfrwt>
<totfact> 0.36943047E+01</totfact>
</mgrwt>
</event>
<event>
12    1  0.1397649E-007  0.2844901E+04  0.7818608E-02  0.8289463E-01
          2   -1    0    0  501    0  0.00000000000E+00  0.00000000000E+00  0.21322443943E+04  0.21322443943E+04  0.00000000000E+00 0. -1.
         -2   -1    0    0    0  501 -0.00000000000E+00 -0.00000000000E+00 -0.94893662477E+03  0.94893662477E+03  0.00000000000E+00 0.  1.
         23    2    1    2    0    0  0.12177357562E+04  0.10032611465E+03  0.12064738357E+03  0.12314565382E+04  0.94782451483E+02 0.  0.
        254    2    1    2    0    0 -0.12177357562E+04 -0.10032611465E+03  0.10626603860E+04  0.18497244809E+04  0.89402900305E+03 0.  0.
        -24    2    4    4    0    0 -0.11924629836E+04  0.13727745211E+03  0.10509960138E+04  0.15974863478E+04  0.80974960852E+02 0.  0.
         24    2    4    4    0    0 -0.25272772551E+02 -0.23760356676E+03  0.11664372194E+02  0.25223813312E+03  0.79961554831E+02 0.  0.
         13    1    3    3    0    0  0.23580163681E+03 -0.11904703132E+01  0.54840749091E+02  0.24209778376E+03  0.00000000000E+00 0. -1.
        -13    1    3    3    0    0  0.98193411936E+03  0.10151658497E+03  0.65806634483E+02  0.98935875441E+03  0.00000000000E+00 0.  1.
          4    1    6    6  502    0  0.62836475628E+01 -0.13329958450E+03  0.40603391273E+02  0.13948798815E+03  0.00000000000E+00 0. -1.
          3    1    5    5  503    0 -0.23492495854E+02 -0.64079016137E+01  0.13069600809E+02  0.27636443871E+02  0.00000000000E+00 0. -1.
         -4    1    5    5    0  503 -0.11689704878E+04  0.14368535372E+03  0.10379264130E+04  0.15698499039E+04  0.00000000000E+00 0.  1.
         -3    1    6    6    0  502 -0.31556420114E+02 -0.10430398226E+03 -0.28939019080E+02  0.11275014497E+03  0.00000000000E+00 0.  1.
<mgrwt>
<rscale>  0 0.28449006E+04</rscale>
<asrwt>0</asrwt>
<pdfrwt beam="1">  1        2 0.32803760E+00 0.28449006E+04</pdfrwt>
<pdfrwt beam="2">  1       -2 0.14599025E+00 0.28449006E+04</pdfrwt>
<totfact> 0.15728860E+00</totfact>
</mgrwt>
</event>
<event>
12    1  0.1397649E-007  0.1082105E+04  0.7818608E-02  0.9222811E-01
         -1   -1    0    0    0  501 -0.00000000000E+00  0.00000000000E+00  0.31204872005E+03  0.31204872005E+03  0.00000000000E+00 0.  1.
          1   -1    0    0  501    0  0.00000000000E+00 -0.00000000000E+00 -0.93811523330E+03  0.93811523330E+03  0.00000000000E+00 0. -1.
         23    2    1    2    0    0  0.53216451133E+02 -0.10223204384E+03 -0.19399048735E+03  0.24324119957E+03  0.90832761319E+02 0.  0.
        254    2    1    2    0    0 -0.53216451133E+02  0.10223204384E+03 -0.43207602590E+03  0.10069227538E+04  0.90217534796E+03 0.  0.
        -24    2    4    4    0    0 -0.31175379626E+03  0.38049736222E+03 -0.35447088859E+03  0.61138949919E+03  0.78605576873E+02 0.  0.
         24    2    4    4    0    0  0.25853734513E+03 -0.27826531838E+03 -0.77605137305E+02  0.39553325459E+03  0.78427367126E+02 0.  0.
         13    1    3    3    0    0  0.34300024230E+02 -0.31436839008E+02 -0.15161203518E+03  0.15859059153E+03  0.00000000000E+00 0. -1.
        -13    1    3    3    0    0  0.18916426903E+02 -0.70795204833E+02 -0.42378452162E+02  0.84650608041E+02  0.00000000000E+00 0.  1.
          4    1    6    6  502    0  0.59662764099E+01 -0.13580439255E+02  0.11750877016E+02  0.18923738933E+02  0.00000000000E+00 0. -1.
          1    1    5    5  503    0 -0.76801792675E+02  0.14177955621E+03 -0.14102403701E+03  0.21421423139E+03  0.00000000000E+00 0. -1.
         -4    1    5    5    0  503 -0.23495200359E+03  0.23871780602E+03 -0.21344685158E+03  0.39717526780E+03  0.00000000000E+00 0.  1.
         -3    1    6    6    0  502  0.25257106872E+03 -0.26468487912E+03 -0.89356014321E+02  0.37660951566E+03  0.00000000000E+00 0.  1.
<mgrwt>
<rscale>  0 0.10821047E+04</rscale>
<asrwt>0</asrwt>
<pdfrwt beam="1">  1        1 0.14432542E+00 0.10821047E+04</pdfrwt>
<pdfrwt beam="2">  1       -1 0.48007495E-01 0.10821047E+04</pdfrwt>
<totfact> 0.73262259E+01</totfact>
</mgrwt>
</event>
<event>
12    1  0.1397649E-007  0.1709207E+04  0.7818608E-02  0.8756131E-01
          2   -1    0    0  501    0  0.00000000000E+00  0.00000000000E+00  0.43414338729E+03  0.43414338729E+03  0.00000000000E+00 0.  1.
         -2   -1    0    0    0  501 -0.00000000000E+00 -0.00000000000E+00 -0.16822718442E+04  0.16822718442E+04  0.00000000000E+00 0. -1.
         23    2    1    2    0    0 -0.38142604037E+03  0.18587602566E+03  0.99413052318E+02  0.44457557435E+03  0.87913395717E+02 0.  0.
        254    2    1    2    0    0  0.38142604037E+03 -0.18587602566E+03 -0.13475415092E+04  0.16718396571E+04  0.89394854379E+03 0.  0.
        -24    2    4    4    0    0  0.93709285137E+02  0.31000736279E+03 -0.20601851614E+03  0.39200691306E+03  0.79622834610E+02 0.  0.
         24    2    4    4    0    0  0.28771675524E+03 -0.49588338845E+03 -0.11415229931E+04  0.12798327441E+04  0.78840617040E+02 0.  0.
         13    1    3    3    0    0  0.17785408523E+01  0.11525877562E+02  0.68211493809E+01  0.13510630630E+02  0.00000000000E+00 0. -1.
        -13    1    3    3    0    0 -0.38320458123E+03  0.17435014809E+03  0.92591902938E+02  0.43106494372E+03  0.00000000000E+00 0.  1.
          2    1    6    6  502    0  0.13649365155E+03 -0.30849332859E+03 -0.63801653025E+03  0.72170890501E+03  0.00000000000E+00 0. -1.
          1    1    5    5  503    0  0.10566566552E+03  0.29095346687E+03 -0.20062086888E+03  0.36887380740E+03  0.00000000000E+00 0. -1.
         -2    1    5    5    0  503 -0.11956380388E+02  0.19053895924E+02 -0.53976472586E+01  0.23133105666E+02  0.00000000000E+00 0.  1.
         -1    1    6    6    0  502  0.15122310369E+03 -0.18739005986E+03 -0.50350646283E+03  0.55812383906E+03  0.00000000000E+00 0.  1.
<mgrwt>
<rscale>  0 0.17092071E+04</rscale>
<asrwt>0</asrwt>
<pdfrwt beam="1">  1        2 0.66791290E-01 0.17092071E+04</pdfrwt>
<pdfrwt beam="2">  1       -2 0.25881105E+00 0.17092071E+04</pdfrwt>
<totfact> 0.39104821E+00</totfact>
</mgrwt>
</event>
<event>
12    1  0.1397649E-007  0.1787868E+04  0.7818608E-02  0.8712778E-01
          2   -1    0    0  501    0  0.00000000000E+00  0.00000000000E+00  0.11194853362E+04  0.11194853362E+04  0.00000000000E+00 0. -1.
         -2   -1    0    0    0  501 -0.00000000000E+00 -0.00000000000E+00 -0.71382620299E+03  0.71382620299E+03  0.00000000000E+00 0.  1.
         23    2    1    2    0    0  0.15984344094E+03  0.98687906582E+01  0.80033319717E+03  0.82140353327E+03  0.92321283246E+02 0.  0.
        254    2    1    2    0    0 -0.15984344094E+03 -0.98687906582E+01 -0.39467406395E+03  0.10119080059E+04  0.91790134386E+03 0.  0.
        -24    2    4    4    0    0 -0.22600973979E+03  0.40640784490E+03 -0.33607079343E+03  0.57904828317E+03  0.78138320731E+02 0.  0.
         24    2    4    4    0    0  0.66166298847E+02 -0.41627663556E+03 -0.58603270514E+02  0.43285972276E+03  0.79176889672E+02 0.  0.
         13    1    3    3    0    0  0.13581413283E+03 -0.99706727353E+01  0.74956418276E+03  0.76183420577E+03  0.00000000000E+00 0. -1.
        -13    1    3    3    0    0  0.24029308107E+02  0.19839463393E+02  0.50769014402E+02  0.59569327503E+02  0.00000000000E+00 0.  1.
          2    1    6    6  502    0  0.10443548003E+02 -0.22653386447E+03 -0.60799435624E+00  0.22677528327E+03  0.00000000000E+00 0. -1.
          1    1    5    5  503    0 -0.18112906629E+03  0.33980107770E+03 -0.31082273127E+03  0.49485682912E+03  0.00000000000E+00 0. -1.
         -2    1    5    5    0  503 -0.44880673500E+02  0.66606767199E+02 -0.25248062165E+02  0.84191454041E+02  0.00000000000E+00 0.  1.
         -1    1    6    6    0  502  0.55722750844E+02 -0.18974277109E+03 -0.57995276158E+02  0.20608443949E+03  0.00000000000E+00 0.  1.
<mgrwt>
<rscale>  0 0.17878680E+04</rscale>
<asrwt>0</asrwt>
<pdfrwt beam="1">  1        2 0.17222851E+00 0.17878680E+04</pdfrwt>
<pdfrwt beam="2">  1       -2 0.10981942E+00 0.17878680E+04</pdfrwt>
<totfact> 0.13212389E+01</totfact>
</mgrwt>
</event>
<event>
12    1  0.1819193E-007  0.1463256E+04  0.7818608E-02  0.8909262E-01
          1   -1    0    0  501    0  0.00000000000E+00  0.00000000000E+00  0.12303597989E+04  0.12303597989E+04  0.00000000000E+00 0. -1.
         -1   -1    0    0    0  501 -0.00000000000E+00 -0.00000000000E+00 -0.43505905997E+03  0.43505905997E+03  0.00000000000E+00 0.  1.
         23    2    1    2    0    0 -0.27048807360E+02  0.32003270986E+03  0.60850325746E+03  0.69432511701E+03  0.93051493312E+02 0.  0.
        254    2    1    2    0    0  0.27048807360E+02 -0.32003270986E+03  0.18679748141E+03  0.97109374181E+03  0.89720520672E+03 0.  0.
        -24    2    4    4    0    0  0.72362403617E+02 -0.17662066480E+03  0.54015389740E+03  0.57865104964E+03  0.81483910541E+02 0.  0.
         24    2    4    4    0    0 -0.45313596258E+02 -0.14341204506E+03 -0.35335641599E+03  0.39244269218E+03  0.80809487375E+02 0.  0.
         13    1    3    3    0    0 -0.24042935690E+02  0.32418426956E+03  0.57582427159E+03  0.66124662202E+03  0.00000000000E+00 0. -1.
        -13    1    3    3    0    0 -0.30058716693E+01 -0.41515597083E+01  0.32678985877E+02  0.33078494985E+02  0.00000000000E+00 0.  1.
          2    1    6    6  502    0 -0.50157525920E+02 -0.14309005861E+03 -0.35597838909E+03  0.38692525864E+03  0.00000000000E+00 0. -1.
          3    1    5    5  503    0  0.71557523220E+02 -0.16673347384E+03  0.41284469462E+03  0.45095595384E+03  0.00000000000E+00 0. -1.
         -4    1    5    5    0  503  0.80488039723E+00 -0.98871909558E+01  0.12730920278E+03  0.12769509580E+03  0.00000000000E+00 0.  1.
         -1    1    6    6    0  502  0.48439296618E+01 -0.32198644501E+00  0.26219731000E+01  0.55174335317E+01  0.00000000000E+00 0.  1.
<mgrwt>
<rscale>  0 0.14632555E+04</rscale>
<asrwt>0</asrwt>
<pdfrwt beam="1">  1        1 0.18928612E+00 0.14632555E+04</pdfrwt>
<pdfrwt beam="2">  1       -1 0.66932164E-01 0.14632555E+04</pdfrwt>
<totfact> 0.22278846E+01</totfact>
</mgrwt>
</event>
<event>
12    1  0.1397649E-007  0.1748049E+04  0.7818608E-02  0.8734425E-01
          2   -1    0    0  501    0  0.00000000000E+00  0.00000000000E+00  0.43132468293E+03  0.43132468293E+03  0.00000000000E+00 0. -1.
         -2   -1    0    0    0  501 -0.00000000000E+00 -0.00000000000E+00 -0.17710992831E+04  0.17710992831E+04  0.00000000000E+00 0.  1.
         23    2    1    2    0    0  0.51646466182E+03 -0.15309010044E+03 -0.58871660393E+02  0.54963743953E+03  0.91995199724E+02 0.  0.
        254    2    1    2    0    0 -0.51646466182E+03  0.15309010044E+03 -0.12809029397E+04  0.16527865265E+04  0.89488470500E+03 0.  0.
        -24    2    4    4    0    0 -0.43993139397E+03  0.40703329413E+03 -0.12304164914E+04  0.13709679110E+04  0.80078314946E+02 0.  0.
         24    2    4    4    0    0 -0.76533267855E+02 -0.25394319368E+03 -0.50486448295E+02  0.28181861551E+03  0.80798291297E+02 0.  0.
         11    1    3    3    0    0  0.26570792666E+03 -0.42178742881E+02  0.76834302954E+00  0.26903594368E+03  0.00000000000E+00 0. -1.
        -11    1    3    3    0    0  0.25075673516E+03 -0.11091135756E+03 -0.59640003423E+02  0.28060149585E+03  0.00000000000E+00 0.  1.
          4    1    6    6  502    0 -0.70906443433E+02 -0.10941158245E+03 -0.61046658875E+01  0.13052158840E+03  0.00000000000E+00 0. -1.
          1    1    5    5  503    0 -0.20994531228E+03  0.23508437583E+03 -0.70364609699E+03  0.77101201528E+03  0.00000000000E+00 0. -1.
         -2    1    5    5    0  503 -0.22998608169E+03  0.17194891830E+03 -0.52677039446E+03  0.59995589567E+03  0.00000000000E+00 0.  1.
         -3    1    6    6    0  502 -0.56268244223E+01 -0.14453161124E+03 -0.44381782408E+02  0.15129702710E+03  0.00000000000E+00 0.  1.
<mgrwt>
<rscale>  0 0.17480490E+04</rscale>
<asrwt>0</asrwt>
<pdfrwt beam="1">  1        2 0.66357644E-01 0.17480490E+04</pdfrwt>
<pdfrwt beam="2">  1       -2 0.27247681E+00 0.17480490E+04</pdfrwt>
<totfact> 0.32417068E+00</totfact>
</mgrwt>
</event>
<event>
12    1  0.1397649E-007  0.1728404E+04  0.7818608E-02  0.8745328E-01
          2   -1    0    0  501    0  0.00000000000E+00  0.00000000000E+00  0.36938726031E+04  0.36938726031E+04  0.00000000000E+00 0. -1.
         -2   -1    0    0    0  501 -0.00000000000E+00 -0.00000000000E+00 -0.20218480781E+03  0.20218480781E+03  0.00000000000E+00 0.  1.
         23    2    1    2    0    0 -0.17345162502E+03  0.31038368075E+03  0.23973933106E+04  0.24255084335E+04  0.95775672102E+02 0.  0.
        254    2    1    2    0    0  0.17345162502E+03 -0.31038368075E+03  0.10942944846E+04  0.14705489774E+04  0.91575672557E+03 0.  0.
        -24    2    4    4    0    0 -0.34594352977E+02 -0.44747809331E+02  0.11175766155E+04  0.11217214602E+04  0.77989787344E+02 0.  0.
         24    2    4    4    0    0  0.20804597800E+03 -0.26563587142E+03 -0.23282130899E+02  0.34882751726E+03  0.85399262512E+02 0.  0.
         11    1    3    3    0    0 -0.16941195915E+03  0.25757492994E+03  0.21834198323E+04  0.22050776451E+04  0.00000000000E+00 0. -1.
        -11    1    3    3    0    0 -0.40396658724E+01  0.52808750804E+02  0.21397347829E+03  0.22043078840E+03  0.00000000000E+00 0.  1.
          2    1    6    6  502    0 -0.22646365919E+00 -0.70326567833E+01 -0.15127305582E+02  0.16683672299E+02  0.00000000000E+00 0. -1.
          3    1    5    5  503    0 -0.85040282600E+01  0.15970285712E+02  0.79046915018E+02  0.81091203569E+02  0.00000000000E+00 0. -1.
         -4    1    5    5    0  503 -0.26090324717E+02 -0.60718095044E+02  0.10385297005E+04  0.10406302566E+04  0.00000000000E+00 0.  1.
         -1    1    6    6    0  502  0.20827244166E+03 -0.25860321463E+03 -0.81548253173E+01  0.33214384496E+03  0.00000000000E+00 0.  1.
<mgrwt>
<rscale>  0 0.17284038E+04</rscale>
<asrwt>0</asrwt>
<pdfrwt beam="1">  1        2 0.56828805E+00 0.17284038E+04</pdfrwt>
<pdfrwt beam="2">  1       -2 0.31105358E-01 0.17284038E+04</pdfrwt>
<totfact> 0.54303134E+00</totfact>
</mgrwt>
</event>
<event>
12    1  0.1397649E-007  0.2693178E+04  0.7818608E-02  0.8337222E-01
          1   -1    0    0  501    0  0.00000000000E+00  0.00000000000E+00  0.10259084153E+04  0.10259084153E+04  0.00000000000E+00 0. -1.
         -1   -1    0    0    0  501 -0.00000000000E+00 -0.00000000000E+00 -0.17675087642E+04  0.17675087642E+04  0.00000000000E+00 0.  1.
         23    2    1    2    0    0  0.23632462255E+02 -0.11084019373E+04  0.13505943672E+03  0.11204982791E+04  0.90343754948E+02 0.  0.
        254    2    1    2    0    0 -0.23632462255E+02  0.11084019373E+04 -0.87665978554E+03  0.16729189004E+04  0.89499269263E+03 0.  0.
        -24    2    4    4    0    0 -0.35120316031E+03  0.52859125357E+03 -0.75881902345E+03  0.99238993244E+03  0.79240737608E+02 0.  0.
         24    2    4    4    0    0  0.32757069806E+03  0.57981068376E+03 -0.11784076209E+03  0.68052896798E+03  0.75830335823E+02 0.  0.
         11    1    3    3    0    0  0.43960104800E+02 -0.30828814669E+03  0.53685050383E+02  0.31600024817E+03  0.00000000000E+00 0.  1.
        -11    1    3    3    0    0 -0.20327642546E+02 -0.80011379063E+03  0.81374386338E+02  0.80449803093E+03  0.00000000000E+00 0. -1.
          4    1    6    6  502    0  0.34929959342E+02  0.25015457017E+02 -0.57402368476E+01  0.43345420386E+02  0.00000000000E+00 0. -1.
          1    1    5    5  503    0 -0.19737307220E+03  0.32982343282E+03 -0.40470961842E+03  0.55814827932E+03  0.00000000000E+00 0. -1.
         -2    1    5    5    0  503 -0.15383008811E+03  0.19876782075E+03 -0.35410940503E+03  0.43424165312E+03  0.00000000000E+00 0.  1.
         -3    1    6    6    0  502  0.29264073871E+03  0.55479522674E+03 -0.11210052525E+03  0.63718354760E+03  0.00000000000E+00 0.  1.
<mgrwt>
<rscale>  0 0.26931781E+04</rscale>
<asrwt>0</asrwt>
<pdfrwt beam="1">  1        1 0.15783206E+00 0.26931781E+04</pdfrwt>
<pdfrwt beam="2">  1       -1 0.27192443E+00 0.26931781E+04</pdfrwt>
<totfact> 0.63351618E-01</totfact>
</mgrwt>
</event>
<event>
12    1  0.1397649E-007  0.1502459E+04  0.7818608E-02  0.8882820E-01
         -2   -1    0    0    0  501 -0.00000000000E+00  0.00000000000E+00  0.49631150517E+03  0.49631150517E+03  0.00000000000E+00 0.  1.
          2   -1    0    0  501    0  0.00000000000E+00 -0.00000000000E+00 -0.11370790463E+04  0.11370790463E+04  0.00000000000E+00 0. -1.
         23    2    1    2    0    0 -0.34871294131E+03  0.28087521974E+03 -0.39626273255E+03  0.60492830948E+03  0.91774189684E+02 0.  0.
        254    2    1    2    0    0  0.34871294131E+03 -0.28087521974E+03 -0.24450480857E+03  0.10284622420E+04  0.89300637023E+03 0.  0.
        -24    2    4    4    0    0  0.54554422851E+03  0.55998441123E+02 -0.29394876602E+03  0.62717881894E+03  0.78696017799E+02 0.  0.
         24    2    4    4    0    0 -0.19683128720E+03 -0.33687366087E+03  0.49443957445E+02  0.40128342304E+03  0.79732438045E+02 0.  0.
         13    1    3    3    0    0 -0.62668783333E+02  0.91145721921E+02 -0.12881176630E+03  0.16978630736E+03  0.00000000000E+00 0. -1.
        -13    1    3    3    0    0 -0.28604415798E+03  0.18972949782E+03 -0.26745096625E+03  0.43514200211E+03  0.00000000000E+00 0.  1.
          4    1    6    6  502    0 -0.33301277325E+00 -0.25497941833E+01 -0.87748276941E+01  0.91438476008E+01  0.00000000000E+00 0. -1.
          1    1    5    5  503    0  0.16078576534E+03  0.18658562857E+02 -0.47324536543E+02  0.16864108652E+03  0.00000000000E+00 0. -1.
         -2    1    5    5    0  503  0.38475846317E+03  0.37339878266E+02 -0.24662422948E+03  0.45853773242E+03  0.00000000000E+00 0.  1.
         -3    1    6    6    0  502 -0.19649827443E+03 -0.33432386668E+03  0.58218785139E+02  0.39213957544E+03  0.00000000000E+00 0.  1.
<mgrwt>
<rscale>  0 0.15024585E+04</rscale>
<asrwt>0</asrwt>
<pdfrwt beam="1">  1        2 0.17493524E+00 0.15024585E+04</pdfrwt>
<pdfrwt beam="2">  1       -2 0.76355617E-01 0.15024585E+04</pdfrwt>
<totfact> 0.30649208E+01</totfact>
</mgrwt>
</event>
<event>
12    1  0.1397649E-007  0.3763787E+04  0.7818608E-02  0.8053971E-01
          2   -1    0    0  501    0  0.00000000000E+00  0.00000000000E+00  0.44743074392E+04  0.44743074392E+04  0.00000000000E+00 0. -1.
         -2   -1    0    0    0  501 -0.00000000000E+00 -0.00000000000E+00 -0.79152439857E+03  0.79152439857E+03  0.00000000000E+00 0.  1.
         23    2    1    2    0    0 -0.11833089362E+04 -0.13190812335E+04  0.18999019009E+04  0.25997012382E+04  0.92865258212E+02 0.  0.
        254    2    1    2    0    0  0.11833089362E+04  0.13190812335E+04  0.17828811398E+04  0.26661305996E+04  0.88847727953E+03 0.  0.
        -24    2    4    4    0    0  0.78725662765E+03  0.41071255750E+03  0.43670128209E+03  0.99240327233E+03  0.75488028789E+02 0.  0.
         24    2    4    4    0    0  0.39605230852E+03  0.90836867602E+03  0.13461798577E+04  0.16737273272E+04  0.84686917292E+02 0.  0.
         11    1    3    3    0    0 -0.34491916696E+03 -0.36604230938E+03  0.59883201196E+03  0.78202044893E+03  0.00000000000E+00 0. -1.
        -11    1    3    3    0    0 -0.83838976921E+03 -0.95303892413E+03  0.13010698889E+04  0.18176807893E+04  0.00000000000E+00 0.  1.
          4    1    6    6  502    0 -0.91825649168E+00  0.10278206370E+02  0.48442092931E+01  0.11399608978E+02  0.00000000000E+00 0. -1.
          3    1    5    5  503    0  0.34062342764E+03  0.18382811874E+03  0.14929568273E+03  0.41485696038E+03  0.00000000000E+00 0. -1.
         -4    1    5    5    0  503  0.44663320002E+03  0.22688443875E+03  0.28740559936E+03  0.57754631195E+03  0.00000000000E+00 0.  1.
         -3    1    6    6    0  502  0.39697056501E+03  0.89809046965E+03  0.13413356484E+04  0.16623277182E+04  0.00000000000E+00 0.  1.
<mgrwt>
<rscale>  0 0.37637872E+04</rscale>
<asrwt>0</asrwt>
<pdfrwt beam="1">  1        2 0.68835498E+00 0.37637872E+04</pdfrwt>
<pdfrwt beam="2">  1       -2 0.12177299E+00 0.37637872E+04</pdfrwt>
<totfact> 0.53354755E-02</totfact>
</mgrwt>
</event>
<event>
12    1  0.2812032E-007  0.1799919E+04  0.7818608E-02  0.8706343E-01
         -2   -1    0    0    0  501 -0.00000000000E+00  0.00000000000E+00  0.35629517592E+03  0.35629517592E+03  0.00000000000E+00 0.  1.
          2   -1    0    0  501    0  0.00000000000E+00 -0.00000000000E+00 -0.22731912177E+04  0.22731912177E+04  0.00000000000E+00 0. -1.
         23    2    1    2    0    0  0.28524097842E+03  0.24115722379E+03 -0.15544225010E+04  0.16015054289E+04  0.95242348156E+02 0.  0.
        254    2    1    2    0    0 -0.28524097842E+03 -0.24115722379E+03 -0.36247354080E+03  0.10279809647E+04  0.88647536554E+03 0.  0.
        -24    2    4    4    0    0 -0.67350425616E+02  0.25346889068E+03  0.11770984979E+03  0.30022688803E+03  0.86591091862E+02 0.  0.
         24    2    4    4    0    0 -0.21789055280E+03 -0.49462611446E+03 -0.48018339059E+03  0.72775407670E+03  0.83178251022E+02 0.  0.
         13    1    3    3    0    0 -0.20464068540E+01  0.12375743415E+02 -0.18960991355E+02  0.22734687138E+02  0.00000000000E+00 0.  1.
        -13    1    3    3    0    0  0.28728738527E+03  0.22878148037E+03 -0.15354615096E+04  0.15787707417E+04  0.00000000000E+00 0. -1.
          4    1    6    6  502    0 -0.19424226023E+03 -0.40171153763E+03 -0.35574111095E+03  0.57066097917E+03  0.00000000000E+00 0. -1.
          3    1    5    5  503    0 -0.54607613074E+02  0.25159558796E+03  0.95582525001E+02  0.27462401638E+03  0.00000000000E+00 0. -1.
         -4    1    5    5    0  503 -0.12742812542E+02  0.18733027123E+01  0.22127324787E+02  0.25602871651E+02  0.00000000000E+00 0.  1.
         -3    1    6    6    0  502 -0.23648292572E+02 -0.92914576829E+02 -0.12444227964E+03  0.15709309753E+03  0.00000000000E+00 0.  1.
<mgrwt>
<rscale>  0 0.17999190E+04</rscale>
<asrwt>0</asrwt>
<pdfrwt beam="1">  1        2 0.34972173E+00 0.17999190E+04</pdfrwt>
<pdfrwt beam="2">  1       -2 0.54814642E-01 0.17999190E+04</pdfrwt>
<totfact> 0.13884191E+01</totfact>
</mgrwt>
</event>
<event>
12    1  0.1397649E-007  0.1344640E+04  0.7818608E-02  0.8994896E-01
         -2   -1    0    0    0  501 -0.00000000000E+00  0.00000000000E+00  0.23965011158E+03  0.23965011158E+03  0.00000000000E+00 0.  1.
          2   -1    0    0  501    0  0.00000000000E+00 -0.00000000000E+00 -0.18861410888E+04  0.18861410888E+04  0.00000000000E+00 0. -1.
         23    2    1    2    0    0 -0.12518664378E+03 -0.33941481616E+03 -0.39668092904E+03  0.54478635600E+03  0.92532702347E+02 0.  0.
        254    2    1    2    0    0  0.12518664378E+03  0.33941481616E+03 -0.12498100482E+04  0.15810048444E+04  0.89815201845E+03 0.  0.
        -24    2    4    4    0    0  0.24261991985E+03  0.61023194013E+03 -0.81924995628E+03  0.10529882138E+04  0.79788728420E+02 0.  0.
         24    2    4    4    0    0 -0.11743327607E+03 -0.27081712397E+03 -0.43056009190E+03  0.52801663063E+03  0.79291112496E+02 0.  0.
         13    1    3    3    0    0 -0.97922141086E+02 -0.31761295198E+03 -0.38347100403E+03  0.50746107625E+03  0.00000000000E+00 0. -1.
        -13    1    3    3    0    0 -0.27264502699E+02 -0.21801864185E+02 -0.13209925012E+02  0.37325279747E+02  0.00000000000E+00 0.  1.
          4    1    6    6  502    0 -0.12333500480E+03 -0.23543233263E+03 -0.34707960368E+03  0.43715461561E+03  0.00000000000E+00 0. -1.
          3    1    5    5  503    0  0.23054161395E+03  0.51935242603E+03 -0.67841942873E+03  0.88494593025E+03  0.00000000000E+00 0. -1.
         -4    1    5    5    0  503  0.12078305901E+02  0.90879514102E+02 -0.14083052755E+03  0.16804228351E+03  0.00000000000E+00 0.  1.
         -1    1    6    6    0  502  0.59017287329E+01 -0.35384791342E+02 -0.83480488225E+02  0.90862015026E+02  0.00000000000E+00 0.  1.
<mgrwt>
<rscale>  0 0.13446396E+04</rscale>
<asrwt>0</asrwt>
<pdfrwt beam="1">  1        2 0.29017556E+00 0.13446396E+04</pdfrwt>
<pdfrwt beam="2">  1       -2 0.36869247E-01 0.13446396E+04</pdfrwt>
<totfact> 0.52363167E+01</totfact>
</mgrwt>
</event>
<event>
12    1  0.1397649E-007  0.1542325E+04  0.7818608E-02  0.8856785E-01
         -1   -1    0    0    0  501 -0.00000000000E+00  0.00000000000E+00  0.42780920356E+03  0.42780920356E+03  0.00000000000E+00 0.  1.
          1   -1    0    0  501    0  0.00000000000E+00 -0.00000000000E+00 -0.13900852958E+04  0.13900852958E+04  0.00000000000E+00 0. -1.
         23    2    1    2    0    0  0.37683873864E+03 -0.25485651737E+03 -0.57847164884E+02  0.46773319788E+03  0.92025923142E+02 0.  0.
        254    2    1    2    0    0 -0.37683873864E+03  0.25485651737E+03 -0.90442892735E+03  0.13501613015E+04  0.89329982425E+03 0.  0.
        -24    2    4    4    0    0 -0.60643887743E+03  0.34021851256E+03 -0.46287824229E+03  0.83905235841E+03  0.78967364324E+02 0.  0.
         24    2    4    4    0    0  0.22960013879E+03 -0.85361995189E+02 -0.44155068506E+03  0.51110894307E+03  0.79135644663E+02 0.  0.
         13    1    3    3    0    0  0.28987863500E+03 -0.17291210903E+03 -0.78334702987E+02  0.34650331337E+03  0.00000000000E+00 0. -1.
        -13    1    3    3    0    0  0.86960103634E+02 -0.81944408335E+02  0.20487538103E+02  0.12122988451E+03  0.00000000000E+00 0.  1.
          4    1    6    6  502    0  0.84320361995E+02 -0.36458285057E+02 -0.94910653050E+02  0.13208770593E+03  0.00000000000E+00 0. -1.
          3    1    5    5  503    0 -0.35092528621E+03  0.21470608837E+03 -0.31577941751E+03  0.51861729764E+03  0.00000000000E+00 0. -1.
         -4    1    5    5    0  503 -0.25551359122E+03  0.12551242419E+03 -0.14709882478E+03  0.32043506077E+03  0.00000000000E+00 0.  1.
         -3    1    6    6    0  502  0.14527977679E+03 -0.48903710132E+02 -0.34664003201E+03  0.37902123714E+03  0.00000000000E+00 0.  1.
<mgrwt>
<rscale>  0 0.15423246E+04</rscale>
<asrwt>0</asrwt>
<pdfrwt beam="1">  1        1 0.21385927E+00 0.15423246E+04</pdfrwt>
<pdfrwt beam="2">  1       -1 0.65816802E-01 0.15423246E+04</pdfrwt>
<totfact> 0.17610169E+01</totfact>
</mgrwt>
</event>
<event>
12    1  0.1397649E-007  0.2931067E+04  0.7818608E-02  0.8263694E-01
          1   -1    0    0  501    0  0.00000000000E+00  0.00000000000E+00  0.12936094700E+04  0.12936094700E+04  0.00000000000E+00 0. -1.
         -1   -1    0    0    0  501 -0.00000000000E+00 -0.00000000000E+00 -0.16603066512E+04  0.16603066512E+04  0.00000000000E+00 0.  1.
         23    2    1    2    0    0 -0.58710888781E+03  0.68449821583E+03 -0.11461926163E+04  0.14612702762E+04  0.91206649161E+02 0.  0.
        254    2    1    2    0    0  0.58710888781E+03 -0.68449821583E+03  0.77949543508E+03  0.14926458449E+04  0.89841183847E+03 0.  0.
        -24    2    4    4    0    0 -0.10920853006E+02 -0.42231559624E+02  0.58291063003E+03  0.58983951927E+03  0.78886540288E+02 0.  0.
         24    2    4    4    0    0  0.59802974081E+03 -0.64226665621E+03  0.19658480505E+03  0.90280632567E+03  0.79168475578E+02 0.  0.
         11    1    3    3    0    0 -0.57763322142E+03  0.66422564452E+03 -0.10918124161E+04  0.14024657562E+04  0.00000000000E+00 0.  1.
        -11    1    3    3    0    0 -0.94756663813E+01  0.20272571315E+02 -0.54380200204E+02  0.58804520024E+02  0.00000000000E+00 0. -1.
          2    1    6    6  502    0  0.13790857205E+03 -0.10739446070E+03  0.54508324053E+02  0.18309424302E+03  0.00000000000E+00 0. -1.
          3    1    5    5  503    0 -0.42340768915E+02 -0.39499493536E+02  0.41112881703E+03  0.41518653024E+03  0.00000000000E+00 0. -1.
         -4    1    5    5    0  503  0.31419915909E+02 -0.27320660879E+01  0.17178181300E+03  0.17465298903E+03  0.00000000000E+00 0.  1.
         -1    1    6    6    0  502  0.46012116876E+03 -0.53487219551E+03  0.14207648100E+03  0.71971208266E+03  0.00000000000E+00 0.  1.
<mgrwt>
<rscale>  0 0.29310670E+04</rscale>
<asrwt>0</asrwt>
<pdfrwt beam="1">  1        1 0.19901684E+00 0.29310670E+04</pdfrwt>
<pdfrwt beam="2">  1       -1 0.25543179E+00 0.29310670E+04</pdfrwt>
<totfact> 0.50282343E-01</totfact>
</mgrwt>
</event>
<event>
12    1  0.1397649E-007  0.1193307E+04  0.7818608E-02  0.9118735E-01
         -2   -1    0    0    0  501 -0.00000000000E+00  0.00000000000E+00  0.51595563140E+03  0.51595563140E+03  0.00000000000E+00 0.  1.
          2   -1    0    0  501    0  0.00000000000E+00 -0.00000000000E+00 -0.68997318998E+03  0.68997318998E+03  0.00000000000E+00 0. -1.
         23    2    1    2    0    0 -0.13087948706E+03  0.16931632226E+03 -0.16903769123E+03  0.28895887083E+03  0.95530261493E+02 0.  0.
        254    2    1    2    0    0  0.13087948706E+03 -0.16931632226E+03 -0.49798673607E+01  0.91696995055E+03  0.89163424901E+03 0.  0.
        -24    2    4    4    0    0  0.37402681901E+03 -0.17959054325E+02  0.30356713237E+03  0.48835515920E+03  0.78225115464E+02 0.  0.
         24    2    4    4    0    0 -0.24314733196E+03 -0.15135726794E+03 -0.30854699973E+03  0.42861479134E+03  0.80496836705E+02 0.  0.
         11    1    3    3    0    0 -0.30217596043E+02  0.83159866216E+02 -0.11681293927E+03  0.14653985547E+03  0.00000000000E+00 0. -1.
        -11    1    3    3    0    0 -0.10066189101E+03  0.86156456045E+02 -0.52224751960E+02  0.14241901537E+03  0.00000000000E+00 0.  1.
          2    1    6    6  502    0 -0.69936348533E+01 -0.40916042573E+01 -0.43641919001E+02  0.44387715056E+02  0.00000000000E+00 0. -1.
          3    1    5    5  503    0  0.27539903629E+03 -0.26429578450E+02  0.18016644849E+03  0.33015617663E+03  0.00000000000E+00 0. -1.
         -4    1    5    5    0  503  0.98627782722E+02  0.84705241246E+01  0.12340068388E+03  0.15819898257E+03  0.00000000000E+00 0.  1.
         -1    1    6    6    0  502 -0.23615369711E+03 -0.14726566368E+03 -0.26490508073E+03  0.38422707629E+03  0.00000000000E+00 0.  1.
<mgrwt>
<rscale>  0 0.11933073E+04</rscale>
<asrwt>0</asrwt>
<pdfrwt beam="1">  1        2 0.10614972E+00 0.11933073E+04</pdfrwt>
<pdfrwt beam="2">  1       -2 0.79377790E-01 0.11933073E+04</pdfrwt>
<totfact> 0.57979674E+01</totfact>
</mgrwt>
</event>
<event>
12    1  0.1397649E-007  0.1821327E+04  0.7818608E-02  0.8695040E-01
          1   -1    0    0  501    0  0.00000000000E+00  0.00000000000E+00  0.88495896037E+03  0.88495896037E+03  0.00000000000E+00 0. -1.
         -1   -1    0    0    0  501 -0.00000000000E+00 -0.00000000000E+00 -0.93711426513E+03  0.93711426513E+03  0.00000000000E+00 0.  1.
         23    2    1    2    0    0  0.46657689213E+02  0.68557311334E+03 -0.22882452282E+02  0.69334466989E+03  0.89530949625E+02 0.  0.
        254    2    1    2    0    0 -0.46657689213E+02 -0.68557311334E+03 -0.29272852473E+02  0.11287285556E+04  0.89497699337E+03 0.  0.
        -24    2    4    4    0    0 -0.19226744865E+03 -0.20612434459E+03 -0.40344692214E+03  0.49844253974E+03  0.78876670777E+02 0.  0.
         24    2    4    4    0    0  0.14560975943E+03 -0.47944876875E+03  0.37417406967E+03  0.63028601587E+03  0.78618722316E+02 0.  0.
         13    1    3    3    0    0 -0.32062544742E+01  0.13802089777E+03 -0.38429403180E+02  0.14330689906E+03  0.00000000000E+00 0.  1.
        -13    1    3    3    0    0  0.49863943687E+02  0.54755221557E+03  0.15546950898E+02  0.55003777083E+03  0.00000000000E+00 0. -1.
          4    1    6    6  502    0  0.69329621669E+02 -0.24117150135E+03  0.13873387775E+03  0.28673572910E+03  0.00000000000E+00 0. -1.
          3    1    5    5  503    0  0.37702117638E+01 -0.15400812874E+02 -0.44000654368E+02  0.46770258913E+02  0.00000000000E+00 0. -1.
         -4    1    5    5    0  503 -0.19603766041E+03 -0.19072353172E+03 -0.35944626777E+03  0.45167228082E+03  0.00000000000E+00 0.  1.
         -3    1    6    6    0  502  0.76280137764E+02 -0.23827726739E+03  0.23544019191E+03  0.34355028677E+03  0.00000000000E+00 0.  1.
<mgrwt>
<rscale>  0 0.18213266E+04</rscale>
<asrwt>0</asrwt>
<pdfrwt beam="1">  1        1 0.13614753E+00 0.18213266E+04</pdfrwt>
<pdfrwt beam="2">  1       -1 0.14417143E+00 0.18213266E+04</pdfrwt>
<totfact> 0.68424563E+00</totfact>
</mgrwt>
</event>
<event>
12    1  0.1397649E-007  0.1311308E+04  0.7818608E-02  0.9020646E-01
         -2   -1    0    0    0  501 -0.00000000000E+00  0.00000000000E+00  0.77001927557E+03  0.77001927557E+03  0.00000000000E+00 0.  1.
          2   -1    0    0  501    0  0.00000000000E+00 -0.00000000000E+00 -0.55827449384E+03  0.55827449384E+03  0.00000000000E+00 0. -1.
         23    2    1    2    0    0  0.20634463097E+02 -0.20573351699E+03  0.34541820488E+03  0.41342755786E+03  0.94109235762E+02 0.  0.
        254    2    1    2    0    0 -0.20634463097E+02  0.20573351699E+03 -0.13367342315E+03  0.91486621155E+03  0.88111267152E+03 0.  0.
        -24    2    4    4    0    0  0.19892762993E+03  0.22641020714E+03  0.29302426464E+03  0.42793632447E+03  0.80202832199E+02 0.  0.
         24    2    4    4    0    0 -0.21956209302E+03 -0.20676690145E+02 -0.42669768779E+03  0.48692988708E+03  0.79967243013E+02 0.  0.
         13    1    3    3    0    0  0.96266331141E+01 -0.19856415392E+03  0.26148968481E+03  0.32847716899E+03  0.00000000000E+00 0.  1.
        -13    1    3    3    0    0  0.11007829983E+02 -0.71693630719E+01  0.83928520073E+02  0.84950388872E+02  0.00000000000E+00 0. -1.
          4    1    6    6  502    0 -0.22722580226E+02  0.22243346024E+02 -0.42084032600E+02  0.52746069942E+02  0.00000000000E+00 0. -1.
          1    1    5    5  503    0  0.10696488624E+03  0.69036600107E+02  0.14637499511E+03  0.19399272728E+03  0.00000000000E+00 0. -1.
         -2    1    5    5    0  503  0.91962743688E+02  0.15737360703E+03  0.14664926953E+03  0.23394359720E+03  0.00000000000E+00 0.  1.
         -3    1    6    6    0  502 -0.19683951280E+03 -0.42920036169E+02 -0.38461365519E+03  0.43418381714E+03  0.00000000000E+00 0.  1.
<mgrwt>
<rscale>  0 0.13113079E+04</rscale>
<asrwt>0</asrwt>
<pdfrwt beam="1">  1        2 0.85888384E-01 0.13113079E+04</pdfrwt>
<pdfrwt beam="2">  1       -2 0.11846450E+00 0.13113079E+04</pdfrwt>
<totfact> 0.29034939E+01</totfact>
</mgrwt>
</event>
<event>
12    1  0.1397649E-007  0.1914733E+04  0.7818608E-02  0.8647557E-01
          2   -1    0    0  501    0  0.00000000000E+00  0.00000000000E+00  0.14217477790E+04  0.14217477790E+04  0.00000000000E+00 0. -1.
         -2   -1    0    0    0  501 -0.00000000000E+00 -0.00000000000E+00 -0.64466468713E+03  0.64466468713E+03  0.00000000000E+00 0.  1.
         23    2    1    2    0    0 -0.65741792793E+02  0.20657001308E+02 -0.49342957614E+03  0.50648708317E+03  0.91146715713E+02 0.  0.
        254    2    1    2    0    0  0.65741792793E+02 -0.20657001308E+02  0.12705126680E+04  0.15599253830E+04  0.90245003507E+03 0.  0.
        -24    2    4    4    0    0  0.47365227444E+01  0.95676217386E+02  0.13700130334E+04  0.13756677547E+04  0.79684919496E+02 0.  0.
         24    2    4    4    0    0  0.61005270049E+02 -0.11633321869E+03 -0.99500365409E+02  0.18425762824E+03  0.82434762715E+02 0.  0.
         11    1    3    3    0    0  0.89601203812E+01  0.26115826807E+02 -0.25694884115E+03  0.25842799217E+03  0.00000000000E+00 0.  1.
        -11    1    3    3    0    0 -0.74701913174E+02 -0.54588254992E+01 -0.23648073500E+03  0.24805909101E+03  0.00000000000E+00 0. -1.
          4    1    6    6  502    0  0.60594813286E+02 -0.56544033020E+02 -0.20851245980E+02  0.85461883470E+02  0.00000000000E+00 0. -1.
          1    1    5    5  503    0 -0.30480895806E+02  0.10867335880E+02  0.30998006603E+03  0.31166460391E+03  0.00000000000E+00 0. -1.
         -2    1    5    5    0  503  0.35217418550E+02  0.84808881506E+02  0.10600329674E+04  0.10640031508E+04  0.00000000000E+00 0.  1.
         -3    1    6    6    0  502  0.41045676245E+00 -0.59789185674E+02 -0.78649119429E+02  0.98795744773E+02  0.00000000000E+00 0.  1.
<mgrwt>
<rscale>  0 0.19147330E+04</rscale>
<asrwt>0</asrwt>
<pdfrwt beam="1">  1        2 0.21873043E+00 0.19147330E+04</pdfrwt>
<pdfrwt beam="2">  1       -2 0.99179183E-01 0.19147330E+04</pdfrwt>
<totfact> 0.11081124E+01</totfact>
</mgrwt>
</event>
<event>
12    1  0.1397649E-007  0.1439980E+04  0.7818608E-02  0.8925377E-01
          2   -1    0    0  501    0  0.00000000000E+00  0.00000000000E+00  0.13404808074E+04  0.13404808074E+04  0.00000000000E+00 0. -1.
         -2   -1    0    0    0  501 -0.00000000000E+00 -0.00000000000E+00 -0.38671602124E+03  0.38671602124E+03  0.00000000000E+00 0.  1.
         23    2    1    2    0    0 -0.33999804601E+03  0.97755880992E+02  0.58267868348E+03  0.68816235518E+03  0.94329716167E+02 0.  0.
        254    2    1    2    0    0  0.33999804601E+03 -0.97755880992E+02  0.37108610270E+03  0.10390344735E+04  0.90373273588E+03 0.  0.
        -24    2    4    4    0    0 -0.18038125767E+03 -0.23057550956E+03 -0.10083073183E+03  0.31961345776E+03  0.79268292361E+02 0.  0.
         24    2    4    4    0    0  0.52037930368E+03  0.13281962857E+03  0.47191683453E+03  0.71942101571E+03  0.80158753176E+02 0.  0.
         13    1    3    3    0    0 -0.25817279575E+03  0.39063005518E+02  0.46486267329E+03  0.53317578329E+03  0.00000000000E+00 0. -1.
        -13    1    3    3    0    0 -0.81825250257E+02  0.58692875474E+02  0.11781601019E+03  0.15498657190E+03  0.00000000000E+00 0.  1.
          4    1    6    6  502    0  0.58442864178E+02 -0.74479048434E+01  0.36490551278E+02  0.69300793592E+02  0.00000000000E+00 0. -1.
          3    1    5    5  503    0 -0.12255551788E+03 -0.17716903916E+03 -0.37680107145E+02  0.21869731108E+03  0.00000000000E+00 0. -1.
         -4    1    5    5    0  503 -0.57825739790E+02 -0.53406470403E+02 -0.63150624687E+02  0.10091614668E+03  0.00000000000E+00 0.  1.
         -3    1    6    6    0  502  0.46193643950E+03  0.14026753341E+03  0.43542628325E+03  0.65012022212E+03  0.00000000000E+00 0.  1.
<mgrwt>
<rscale>  0 0.14399797E+04</rscale>
<asrwt>0</asrwt>
<pdfrwt beam="1">  1        2 0.20622781E+00 0.14399797E+04</pdfrwt>
<pdfrwt beam="2">  1       -2 0.59494773E-01 0.14399797E+04</pdfrwt>
<totfact> 0.40066553E+01</totfact>
</mgrwt>
</event>
<event>
12    1  0.1397649E-007  0.1425344E+04  0.7818608E-02  0.8935675E-01
         -2   -1    0    0    0  501 -0.00000000000E+00  0.00000000000E+00  0.49243197506E+03  0.49243197506E+03  0.00000000000E+00 0.  1.
          2   -1    0    0  501    0  0.00000000000E+00 -0.00000000000E+00 -0.10314148900E+04  0.10314148900E+04  0.00000000000E+00 0. -1.
         23    2    1    2    0    0 -0.43788964494E+02 -0.19898828785E+03  0.23189406764E+03  0.32212769568E+03  0.92073783494E+02 0.  0.
        254    2    1    2    0    0  0.43788964494E+02  0.19898828785E+03 -0.77087698259E+03  0.12017191694E+04  0.89909055588E+03 0.  0.
        -24    2    4    4    0    0  0.38708424982E+03  0.23720187671E+03 -0.70165755437E+03  0.83945795493E+03  0.79166834695E+02 0.  0.
         24    2    4    4    0    0 -0.34329528532E+03 -0.38213588857E+02 -0.69219428218E+02  0.36226121446E+03  0.84438894840E+02 0.  0.
         11    1    3    3    0    0 -0.31832560366E+02 -0.17033394773E+03  0.13290076256E+03  0.21837943662E+03  0.00000000000E+00 0. -1.
        -11    1    3    3    0    0 -0.11956404128E+02 -0.28654340114E+02  0.98993305087E+02  0.10374825907E+03  0.00000000000E+00 0.  1.
          4    1    6    6  502    0 -0.10685434557E+03 -0.35584420813E+02 -0.55112122167E+02  0.12538519921E+03  0.00000000000E+00 0. -1.
          1    1    5    5  503    0  0.16195700001E+02  0.34264252649E+02 -0.51948063346E+02  0.64303506852E+02  0.00000000000E+00 0. -1.
         -2    1    5    5    0  503  0.37088854981E+03  0.20293762406E+03 -0.64970949103E+03  0.77515444808E+03  0.00000000000E+00 0.  1.
         -3    1    6    6    0  502 -0.23644093976E+03 -0.26291680432E+01 -0.14107306051E+02  0.23687601525E+03  0.00000000000E+00 0.  1.
<mgrwt>
<rscale>  0 0.14253444E+04</rscale>
<asrwt>0</asrwt>
<pdfrwt beam="1">  1        2 0.15867921E+00 0.14253444E+04</pdfrwt>
<pdfrwt beam="2">  1       -2 0.75758767E-01 0.14253444E+04</pdfrwt>
<totfact> 0.36493612E+01</totfact>
</mgrwt>
</event>
<event>
12    1  0.1397649E-007  0.1666647E+04  0.7818608E-02  0.8780619E-01
         -1   -1    0    0    0  501 -0.00000000000E+00  0.00000000000E+00  0.55303217500E+03  0.55303217500E+03  0.00000000000E+00 0.  1.
          1   -1    0    0  501    0  0.00000000000E+00 -0.00000000000E+00 -0.12556744477E+04  0.12556744477E+04  0.00000000000E+00 0. -1.
         23    2    1    2    0    0  0.34365274552E+03  0.16258048684E+03 -0.72488764116E+03  0.82344271486E+03  0.89811959939E+02 0.  0.
        254    2    1    2    0    0 -0.34365274552E+03 -0.16258048684E+03  0.22245368480E+02  0.98526390781E+03  0.90869163494E+03 0.  0.
        -24    2    4    4    0    0  0.15232577764E+03 -0.32503331121E+03 -0.19045892397E+03  0.41605691564E+03  0.89325021163E+02 0.  0.
         24    2    4    4    0    0 -0.49597852316E+03  0.16245282436E+03  0.21270429245E+03  0.56920699217E+03  0.79798924373E+02 0.  0.
         11    1    3    3    0    0  0.23389879990E+02  0.16317782268E+02 -0.12189529314E+03  0.12518713590E+03  0.00000000000E+00 0.  1.
        -11    1    3    3    0    0  0.32026286553E+03  0.14626270458E+03 -0.60299234802E+03  0.69825557896E+03  0.00000000000E+00 0. -1.
          4    1    6    6  502    0 -0.85386478991E+02  0.55393048698E+02  0.60561546979E+02  0.11843539003E+03  0.00000000000E+00 0. -1.
          1    1    5    5  503    0  0.10755863185E+03 -0.12614146617E+03 -0.93236944437E+02  0.19019373434E+03  0.00000000000E+00 0. -1.
         -2    1    5    5    0  503  0.44767145786E+02 -0.19889184504E+03 -0.97221979535E+02  0.22586318131E+03  0.00000000000E+00 0.  1.
         -3    1    6    6    0  502 -0.41059204416E+03  0.10705977566E+03  0.15214274547E+03  0.45077160214E+03  0.00000000000E+00 0.  1.
<mgrwt>
<rscale>  0 0.16666474E+04</rscale>
<asrwt>0</asrwt>
<pdfrwt beam="1">  1        1 0.19318068E+00 0.16666474E+04</pdfrwt>
<pdfrwt beam="2">  1       -1 0.85081874E-01 0.16666474E+04</pdfrwt>
<totfact> 0.12692104E+01</totfact>
</mgrwt>
</event>
<event>
12    1  0.1397649E-007  0.1412613E+04  0.7818608E-02  0.8944739E-01
          2   -1    0    0  501    0  0.00000000000E+00  0.00000000000E+00  0.16429930206E+04  0.16429930206E+04  0.00000000000E+00 0. -1.
         -2   -1    0    0    0  501 -0.00000000000E+00 -0.00000000000E+00 -0.30363409567E+03  0.30363409567E+03  0.00000000000E+00 0.  1.
         23    2    1    2    0    0 -0.11956058956E+02 -0.11007754920E+02 -0.16285026094E+03  0.18803713581E+03  0.92593946567E+02 0.  0.
        254    2    1    2    0    0  0.11956058956E+02  0.11007754920E+02  0.15022091859E+04  0.17585899805E+04  0.91418934759E+03 0.  0.
        -24    2    4    4    0    0  0.37682520902E+03 -0.23240323296E+03  0.93186967254E+03  0.10347484418E+04  0.79465403679E+02 0.  0.
         24    2    4    4    0    0 -0.36486915006E+03  0.24341098788E+03  0.57033951334E+03  0.72384153866E+03  0.79252803908E+02 0.  0.
         13    1    3    3    0    0  0.11027690425E+02  0.21441292159E+01 -0.16110802483E+03  0.16149923501E+03  0.00000000000E+00 0.  1.
        -13    1    3    3    0    0 -0.22983749381E+02 -0.13151884136E+02 -0.17422361116E+01  0.26537900795E+02  0.00000000000E+00 0. -1.
          4    1    6    6  502    0 -0.60304925138E+01 -0.11365568547E+01  0.30068233275E+02  0.30688063701E+02  0.00000000000E+00 0. -1.
          1    1    5    5  503    0  0.15409588347E+01 -0.34449891548E+01  0.42432050025E+02  0.42599546637E+02  0.00000000000E+00 0. -1.
         -2    1    5    5    0  503  0.37528425019E+03 -0.22895824380E+03  0.88943762252E+03  0.99214889517E+03  0.00000000000E+00 0.  1.
         -3    1    6    6    0  502 -0.35883865755E+03  0.24454754473E+03  0.54027128007E+03  0.69315347496E+03  0.00000000000E+00 0.  1.
<mgrwt>
<rscale>  0 0.14126128E+04</rscale>
<asrwt>0</asrwt>
<pdfrwt beam="1">  1        2 0.25276815E+00 0.14126128E+04</pdfrwt>
<pdfrwt beam="2">  1       -2 0.46712939E-01 0.14126128E+04</pdfrwt>
<totfact> 0.44567730E+01</totfact>
</mgrwt>
</event>
<event>
12    1  0.1397649E-007  0.2790988E+04  0.7818608E-02  0.8306072E-01
          1   -1    0    0  501    0  0.00000000000E+00  0.00000000000E+00  0.30512698505E+04  0.30512698505E+04  0.00000000000E+00 0. -1.
         -1   -1    0    0    0  501 -0.00000000000E+00 -0.00000000000E+00 -0.63822735036E+03  0.63822735036E+03  0.00000000000E+00 0.  1.
         23    2    1    2    0    0  0.99174366918E+03  0.56015072964E+03  0.19361248082E+04  0.22481900429E+04  0.91950262654E+02 0.  0.
        254    2    1    2    0    0 -0.99174366918E+03 -0.56015072964E+03  0.47691769192E+03  0.14413071579E+04  0.74336497991E+03 0.  0.
        -24    2    4    4    0    0 -0.31193392650E+03 -0.41227491308E+03  0.52239230269E+03  0.73940205571E+03  0.80921589320E+02 0.  0.
         24    2    4    4    0    0 -0.67980974268E+03 -0.14787581656E+03 -0.45474610775E+02  0.70190510222E+03  0.81205227216E+02 0.  0.
         13    1    3    3    0    0  0.63199362459E+03  0.38089216919E+03  0.11758541331E+04  0.13882102609E+04  0.00000000000E+00 0.  1.
        -13    1    3    3    0    0  0.35975004459E+03  0.17925856045E+03  0.76027067509E+03  0.85997978202E+03  0.00000000000E+00 0. -1.
          4    1    6    6  502    0 -0.51939960298E+03 -0.94721756470E+02 -0.64322186914E+02  0.53186981721E+03  0.00000000000E+00 0. -1.
          1    1    5    5  503    0 -0.16656728146E+03 -0.22926060140E+03  0.22931075717E+03  0.36453875783E+03  0.00000000000E+00 0. -1.
         -2    1    5    5    0  503 -0.14536664504E+03 -0.18301431168E+03  0.29308154552E+03  0.37486329788E+03  0.00000000000E+00 0.  1.
         -3    1    6    6    0  502 -0.16041013970E+03 -0.53154060092E+02  0.18847576139E+02  0.17003528501E+03  0.00000000000E+00 0.  1.
<mgrwt>
<rscale>  0 0.27909883E+04</rscale>
<asrwt>0</asrwt>
<pdfrwt beam="1">  1        1 0.46942612E+00 0.27909883E+04</pdfrwt>
<pdfrwt beam="2">  1       -1 0.98188825E-01 0.27909883E+04</pdfrwt>
<totfact> 0.47171092E-01</totfact>
</mgrwt>
</event>
<event>
12    1  0.1397649E-007  0.1924244E+04  0.7818608E-02  0.8642882E-01
         -2   -1    0    0    0  501 -0.00000000000E+00  0.00000000000E+00  0.71573627211E+03  0.71573627211E+03  0.00000000000E+00 0.  1.
          2   -1    0    0  501    0  0.00000000000E+00 -0.00000000000E+00 -0.12933235245E+04  0.12933235245E+04  0.00000000000E+00 0. -1.
         23    2    1    2    0    0  0.38298041207E+03  0.95708993521E+02  0.44213794472E+03  0.59956940504E+03  0.90350992433E+02 0.  0.
        254    2    1    2    0    0 -0.38298041207E+03 -0.95708993521E+02 -0.10197251971E+04  0.14094903916E+04  0.88937589288E+03 0.  0.
        -24    2    4    4    0    0 -0.60263320920E+03 -0.48585742996E+02 -0.36128539023E+03  0.70903950732E+03  0.81746746066E+02 0.  0.
         24    2    4    4    0    0  0.21965279714E+03 -0.47123250524E+02 -0.65843980690E+03  0.70045088426E+03  0.81366516005E+02 0.  0.
         11    1    3    3    0    0  0.74229346418E+02 -0.16679057434E+02  0.74088251212E+02  0.10619442450E+03  0.00000000000E+00 0. -1.
        -11    1    3    3    0    0  0.30875106565E+03  0.11238805096E+03  0.36804969351E+03  0.49337498055E+03  0.00000000000E+00 0.  1.
          4    1    6    6  502    0  0.74819053644E+02  0.22464776743E+01 -0.12696906322E+03  0.14739091039E+03  0.00000000000E+00 0. -1.
          3    1    5    5  503    0 -0.21185963528E+03 -0.49224179334E+02 -0.15567746019E+03  0.26747522596E+03  0.00000000000E+00 0. -1.
         -4    1    5    5    0  503 -0.39077357392E+03  0.63843633727E+00 -0.20560793004E+03  0.44156428136E+03  0.00000000000E+00 0.  1.
         -3    1    6    6    0  502  0.14483374349E+03 -0.49369728199E+02 -0.53147074368E+03  0.55305997387E+03  0.00000000000E+00 0.  1.
<mgrwt>
<rscale>  0 0.19242438E+04</rscale>
<asrwt>0</asrwt>
<pdfrwt beam="1">  1        2 0.19897285E+00 0.19242438E+04</pdfrwt>
<pdfrwt beam="2">  1       -2 0.11011327E+00 0.19242438E+04</pdfrwt>
<totfact> 0.10220599E+01</totfact>
</mgrwt>
</event>
<event>
12    1  0.1397649E-007  0.2426807E+04  0.7818608E-02  0.8429535E-01
          1   -1    0    0  501    0  0.00000000000E+00  0.00000000000E+00  0.17753968912E+04  0.17753968912E+04  0.00000000000E+00 0. -1.
         -1   -1    0    0    0  501 -0.00000000000E+00 -0.00000000000E+00 -0.82930628601E+03  0.82930628601E+03  0.00000000000E+00 0.  1.
         23    2    1    2    0    0  0.22813221536E+03 -0.38631038772E+03 -0.59908972798E+03  0.75394660821E+03  0.90812788236E+02 0.  0.
        254    2    1    2    0    0 -0.22813221536E+03  0.38631038772E+03  0.15451803332E+04  0.18507565690E+04  0.91456962139E+03 0.  0.
        -24    2    4    4    0    0 -0.49671012467E+03  0.20282699876E+03  0.13699104392E+04  0.14734562725E+04  0.80987876840E+02 0.  0.
         24    2    4    4    0    0  0.26857790932E+03  0.18348338897E+03  0.17526989405E+03  0.37730029657E+03  0.76391953979E+02 0.  0.
         13    1    3    3    0    0  0.20610621892E+03 -0.36988429415E+03 -0.58734842227E+03  0.72406652573E+03  0.00000000000E+00 0.  1.
        -13    1    3    3    0    0  0.22025996437E+02 -0.16426093577E+02 -0.11741305710E+02  0.29880082480E+02  0.00000000000E+00 0. -1.
          4    1    6    6  502    0  0.11522542950E+02  0.22459401600E+01  0.27284087095E+02  0.29702435116E+02  0.00000000000E+00 0. -1.
          3    1    5    5  503    0 -0.55270128004E+02  0.44625716038E+02  0.13580675370E+03  0.15326355057E+03  0.00000000000E+00 0. -1.
         -4    1    5    5    0  503 -0.44143999667E+03  0.15820128272E+03  0.12341036855E+04  0.13201927219E+04  0.00000000000E+00 0.  1.
         -3    1    6    6    0  502  0.25705536637E+03  0.18123744881E+03  0.14798580696E+03  0.34759786146E+03  0.00000000000E+00 0.  1.
<mgrwt>
<rscale>  0 0.24268068E+04</rscale>
<asrwt>0</asrwt>
<pdfrwt beam="1">  1        1 0.27313798E+00 0.24268068E+04</pdfrwt>
<pdfrwt beam="2">  1       -1 0.12758558E+00 0.24268068E+04</pdfrwt>
<totfact> 0.20125236E+00</totfact>
</mgrwt>
</event>
<event>
12    1  0.1397649E-007  0.1788470E+04  0.7818608E-02  0.8712455E-01
         -1   -1    0    0    0  501 -0.00000000000E+00  0.00000000000E+00  0.61762354397E+03  0.61762354397E+03  0.00000000000E+00 0.  1.
          1   -1    0    0  501    0  0.00000000000E+00 -0.00000000000E+00 -0.12947310844E+04  0.12947310844E+04  0.00000000000E+00 0. -1.
         23    2    1    2    0    0 -0.32661118997E+03 -0.35244993521E+03  0.23794622751E+03  0.54383620918E+03  0.90794212286E+02 0.  0.
        254    2    1    2    0    0  0.32661118997E+03  0.35244993521E+03 -0.91505376790E+03  0.13685184191E+04  0.89700804854E+03 0.  0.
        -24    2    4    4    0    0 -0.27022990844E+03  0.29394940238E+03 -0.44212017590E+03  0.60092522994E+03  0.78806265386E+02 0.  0.
         24    2    4    4    0    0  0.59684109842E+03  0.58500532827E+02 -0.47293359199E+03  0.76759318920E+03  0.76756189089E+02 0.  0.
         13    1    3    3    0    0 -0.23215090845E+03 -0.28885609971E+03  0.14930183837E+03  0.39952838394E+03  0.00000000000E+00 0.  1.
        -13    1    3    3    0    0 -0.94460281525E+02 -0.63593835496E+02  0.88644389142E+02  0.14430782524E+03  0.00000000000E+00 0. -1.
          4    1    6    6  502    0  0.48426325228E+03  0.40903566438E+02 -0.41834953172E+03  0.64124903894E+03  0.00000000000E+00 0. -1.
          1    1    5    5  503    0 -0.26152935957E+03  0.25958500372E+03 -0.37947210383E+03  0.52894334069E+03  0.00000000000E+00 0. -1.
         -2    1    5    5    0  503 -0.87005488697E+01  0.34364398657E+02 -0.62648072071E+02  0.71981889249E+02  0.00000000000E+00 0.  1.
         -3    1    6    6    0  502  0.11257784614E+03  0.17596966389E+02 -0.54584060277E+02  0.12634415026E+03  0.00000000000E+00 0.  1.
<mgrwt>
<rscale>  0 0.17884702E+04</rscale>
<asrwt>0</asrwt>
<pdfrwt beam="1">  1        1 0.19918940E+00 0.17884702E+04</pdfrwt>
<pdfrwt beam="2">  1       -1 0.95019007E-01 0.17884702E+04</pdfrwt>
<totfact> 0.92246585E+00</totfact>
</mgrwt>
</event>
<event>
12    1  0.1397649E-007  0.1739534E+04  0.7818608E-02  0.8739132E-01
         -1   -1    0    0    0  501 -0.00000000000E+00  0.00000000000E+00  0.66057372399E+03  0.66057372399E+03  0.00000000000E+00 0.  1.
          1   -1    0    0  501    0  0.00000000000E+00 -0.00000000000E+00 -0.11452086619E+04  0.11452086619E+04  0.00000000000E+00 0. -1.
         23    2    1    2    0    0  0.19008378586E+03 -0.60330478253E+03 -0.11817385339E+03  0.65005386610E+03  0.92176260141E+02 0.  0.
        254    2    1    2    0    0 -0.19008378586E+03  0.60330478253E+03 -0.36646108449E+03  0.11557285198E+04  0.89515706927E+03 0.  0.
        -24    2    4    4    0    0 -0.50494301013E+02 -0.19893364818E+03  0.66881850465E+02  0.22962890429E+03  0.78306966180E+02 0.  0.
         24    2    4    4    0    0 -0.13958948485E+03  0.80223843071E+03 -0.43334293496E+03  0.92609961547E+03  0.82478327456E+02 0.  0.
         13    1    3    3    0    0  0.36926227451E+02 -0.44209685015E+02  0.35750509900E+01  0.57713287140E+02  0.00000000000E+00 0.  1.
        -13    1    3    3    0    0  0.15315755841E+03 -0.55909509752E+03 -0.12174890438E+03  0.59234057896E+03  0.00000000000E+00 0. -1.
          4    1    6    6  502    0 -0.17273108666E+02  0.75473640029E+02 -0.70162225734E+02  0.10448621221E+03  0.00000000000E+00 0. -1.
          3    1    5    5  503    0 -0.54737442500E+02 -0.89181278556E+02  0.57492900497E+02  0.11939397666E+03  0.00000000000E+00 0. -1.
         -4    1    5    5    0  503  0.42431414866E+01 -0.10975236963E+03  0.93889499684E+01  0.11023492763E+03  0.00000000000E+00 0.  1.
         -3    1    6    6    0  502 -0.12231637618E+03  0.72676479068E+03 -0.36318070922E+03  0.82161340326E+03  0.00000000000E+00 0.  1.
<mgrwt>
<rscale>  0 0.17395341E+04</rscale>
<asrwt>0</asrwt>
<pdfrwt beam="1">  1        1 0.17618595E+00 0.17395341E+04</pdfrwt>
<pdfrwt beam="2">  1       -1 0.10162673E+00 0.17395341E+04</pdfrwt>
<totfact> 0.10217047E+01</totfact>
</mgrwt>
</event>
<event>
12    1  0.1397649E-007  0.1521330E+04  0.7818608E-02  0.8870391E-01
         -2   -1    0    0    0  501 -0.00000000000E+00  0.00000000000E+00  0.22632239962E+03  0.22632239962E+03  0.00000000000E+00 0.  1.
          2   -1    0    0  501    0  0.00000000000E+00 -0.00000000000E+00 -0.25565806631E+04  0.25565806631E+04  0.00000000000E+00 0. -1.
         23    2    1    2    0    0 -0.53814835510E+02  0.30901545121E+02  0.12207583297E+03  0.17168581883E+03  0.10354984009E+03 0.  0.
        254    2    1    2    0    0  0.53814835510E+02 -0.30901545121E+02 -0.24523340965E+04  0.26112172439E+04  0.89479720167E+03 0.  0.
        -24    2    4    4    0    0  0.21388368206E+03 -0.19467363448E+03 -0.23688138639E+03  0.38253703462E+03  0.81103256534E+02 0.  0.
         24    2    4    4    0    0 -0.16006884655E+03  0.16377208936E+03 -0.22154527101E+04  0.22286802093E+04  0.79633107236E+02 0.  0.
         11    1    3    3    0    0 -0.64386463198E+01  0.55287006165E+02  0.25148832867E+02  0.61078416905E+02  0.00000000000E+00 0. -1.
        -11    1    3    3    0    0 -0.47376189190E+02 -0.24385461044E+02  0.96927000103E+02  0.11060740193E+03  0.00000000000E+00 0.  1.
          4    1    6    6  502    0 -0.97567657184E+02  0.60990680128E+02 -0.81688512962E+03  0.82494886253E+03  0.00000000000E+00 0. -1.
          1    1    5    5  503    0  0.81296345218E+02 -0.29965382270E+02 -0.48193540792E+02  0.99144527103E+02  0.00000000000E+00 0. -1.
         -2    1    5    5    0  503  0.13258733684E+03 -0.16470825221E+03 -0.18868784560E+03  0.28339250751E+03  0.00000000000E+00 0.  1.
         -3    1    6    6    0  502 -0.62501189364E+02  0.10278140923E+03 -0.13985675805E+04  0.14037313468E+04  0.00000000000E+00 0.  1.
<mgrwt>
<rscale>  0 0.15213303E+04</rscale>
<asrwt>0</asrwt>
<pdfrwt beam="1">  1        2 0.39332007E+00 0.15213303E+04</pdfrwt>
<pdfrwt beam="2">  1       -2 0.34818833E-01 0.15213303E+04</pdfrwt>
<totfact> 0.24157282E+01</totfact>
</mgrwt>
</event>
<event>
12    1  0.1397649E-007  0.2104347E+04  0.7818608E-02  0.8559331E-01
         -1   -1    0    0    0  501 -0.00000000000E+00  0.00000000000E+00  0.42563220523E+03  0.42563220523E+03  0.00000000000E+00 0.  1.
          1   -1    0    0  501    0  0.00000000000E+00 -0.00000000000E+00 -0.26009995896E+04  0.26009995896E+04  0.00000000000E+00 0. -1.
         23    2    1    2    0    0  0.87803599508E+03  0.64346428122E+02 -0.12888958300E+04  0.15635314112E+04  0.91051313271E+02 0.  0.
        254    2    1    2    0    0 -0.87803599508E+03 -0.64346428122E+02 -0.88647155430E+03  0.14631003836E+04  0.76140872364E+03 0.  0.
        -24    2    4    4    0    0 -0.84911291912E+03 -0.30716093994E+03 -0.70307494127E+03  0.11471983223E+04  0.80056388256E+02 0.  0.
         24    2    4    4    0    0 -0.28923075961E+02  0.24281451182E+03 -0.18339661304E+03  0.31590206126E+03  0.79776958836E+02 0.  0.
         11    1    3    3    0    0  0.46893639579E+03  0.14007867665E+02 -0.61395110975E+03  0.77267944764E+03  0.00000000000E+00 0.  1.
        -11    1    3    3    0    0  0.40909959929E+03  0.50338560457E+02 -0.67494472030E+03  0.79085196356E+03  0.00000000000E+00 0. -1.
          2    1    6    6  502    0  0.20656697357E+01  0.10656940769E+02  0.79543156123E+01  0.13457656366E+02  0.00000000000E+00 0. -1.
          3    1    5    5  503    0 -0.12089732786E+03 -0.69124800592E+02 -0.12921501168E+03  0.18997610687E+03  0.00000000000E+00 0. -1.
         -4    1    5    5    0  503 -0.72821559126E+03 -0.23803613935E+03 -0.57385992959E+03  0.95722221546E+03  0.00000000000E+00 0.  1.
         -1    1    6    6    0  502 -0.30988745697E+02  0.23215757105E+03 -0.19135092865E+03  0.30244440489E+03  0.00000000000E+00 0.  1.
<mgrwt>
<rscale>  0 0.21043471E+04</rscale>
<asrwt>0</asrwt>
<pdfrwt beam="1">  1        1 0.40015378E+00 0.21043471E+04</pdfrwt>
<pdfrwt beam="2">  1       -1 0.65481878E-01 0.21043471E+04</pdfrwt>
<totfact> 0.25047227E+00</totfact>
</mgrwt>
</event>
<event>
12    1  0.1397649E-007  0.1116011E+04  0.7818608E-02  0.9189726E-01
         -1   -1    0    0    0  501 -0.00000000000E+00  0.00000000000E+00  0.46237109593E+03  0.46237109593E+03  0.00000000000E+00 0.  1.
          1   -1    0    0  501    0  0.00000000000E+00 -0.00000000000E+00 -0.67342006662E+03  0.67342006662E+03  0.00000000000E+00 0. -1.
         23    2    1    2    0    0 -0.13210774732E+03  0.35989345392E+02  0.60590290291E+02  0.17546888616E+03  0.91490200834E+02 0.  0.
        254    2    1    2    0    0  0.13210774732E+03 -0.35989345392E+02 -0.27163926098E+03  0.96032227639E+03  0.91086952773E+03 0.  0.
        -24    2    4    4    0    0  0.13850723693E+03 -0.15617145061E+03 -0.58013459751E+03  0.62163698979E+03  0.79389036919E+02 0.  0.
         24    2    4    4    0    0 -0.63994896103E+01  0.12018210522E+03  0.30849533653E+03  0.33868528660E+03  0.71089090688E+02 0.  0.
         13    1    3    3    0    0 -0.12154383625E+03  0.27593055534E+02  0.12199956883E+02  0.12523226338E+03  0.00000000000E+00 0.  1.
        -13    1    3    3    0    0 -0.10563911067E+02  0.83962898582E+01  0.48390333408E+02  0.50236622774E+02  0.00000000000E+00 0. -1.
          4    1    6    6  502    0  0.79463556095E+01  0.11772191272E+03  0.22631090269E+03  0.25522189949E+03  0.00000000000E+00 0. -1.
          3    1    5    5  503    0  0.11518664633E+03 -0.16178104704E+03 -0.53193286989E+03  0.56779718980E+03  0.00000000000E+00 0. -1.
         -4    1    5    5    0  503  0.23320590592E+02  0.56095964294E+01 -0.48201727620E+02  0.53839799992E+02  0.00000000000E+00 0.  1.
         -3    1    6    6    0  502 -0.14345845220E+02  0.24601925009E+01  0.82184433845E+02  0.83463387114E+02  0.00000000000E+00 0.  1.
<mgrwt>
<rscale>  0 0.11160107E+04</rscale>
<asrwt>0</asrwt>
<pdfrwt beam="1">  1        1 0.10360309E+00 0.11160107E+04</pdfrwt>
<pdfrwt beam="2">  1       -1 0.71134015E-01 0.11160107E+04</pdfrwt>
<totfact> 0.57419725E+01</totfact>
</mgrwt>
</event>
<event>
12    1  0.1397649E-007  0.1692793E+04  0.7818608E-02  0.8765485E-01
          2   -1    0    0  501    0  0.00000000000E+00  0.00000000000E+00  0.23630806839E+04  0.23630806839E+04  0.00000000000E+00 0. -1.
         -2   -1    0    0    0  501 -0.00000000000E+00 -0.00000000000E+00 -0.30315808790E+03  0.30315808790E+03  0.00000000000E+00 0.  1.
         23    2    1    2    0    0 -0.18401973142E+03  0.54698399971E+03  0.46104904625E+03  0.74431536950E+03  0.91566307852E+02 0.  0.
        254    2    1    2    0    0  0.18401973142E+03 -0.54698399971E+03  0.15988735497E+04  0.19219234023E+04  0.89684902782E+03 0.  0.
        -24    2    4    4    0    0  0.59628355996E+02 -0.77966775686E+03  0.10971948407E+04  0.13495676256E+04  0.77838971392E+02 0.  0.
         24    2    4    4    0    0  0.12439137542E+03  0.23268375715E+03  0.50167870899E+03  0.57235577673E+03  0.79338912090E+02 0.  0.
         13    1    3    3    0    0 -0.60290193300E+02  0.24737117730E+03  0.15249633228E+03  0.29678702486E+03  0.00000000000E+00 0.  1.
        -13    1    3    3    0    0 -0.12372953812E+03  0.29961282241E+03  0.30855271397E+03  0.44752834464E+03  0.00000000000E+00 0. -1.
          2    1    6    6  502    0  0.68878198778E+02  0.18554625784E+03  0.31550060589E+03  0.37244093811E+03  0.00000000000E+00 0. -1.
          1    1    5    5  503    0  0.34884790925E+02 -0.12493478149E+03  0.20609866622E+03  0.24352065309E+03  0.00000000000E+00 0. -1.
         -2    1    5    5    0  503  0.24743565070E+02 -0.65473297537E+03  0.89109617452E+03  0.11060469725E+04  0.00000000000E+00 0.  1.
         -1    1    6    6    0  502  0.55513176646E+02  0.47137499314E+02  0.18617810311E+03  0.19991483862E+03  0.00000000000E+00 0.  1.
<mgrwt>
<rscale>  0 0.16927930E+04</rscale>
<asrwt>0</asrwt>
<pdfrwt beam="1">  1        2 0.36355086E+00 0.16927930E+04</pdfrwt>
<pdfrwt beam="2">  1       -2 0.46639707E-01 0.16927930E+04</pdfrwt>
<totfact> 0.17336848E+01</totfact>
</mgrwt>
</event>
<event>
12    1  0.1397649E-007  0.1444878E+04  0.7818608E-02  0.8921959E-01
          1   -1    0    0  501    0  0.00000000000E+00  0.00000000000E+00  0.13056732054E+04  0.13056732054E+04  0.00000000000E+00 0. -1.
         -1   -1    0    0    0  501 -0.00000000000E+00 -0.00000000000E+00 -0.39973109335E+03  0.39973109335E+03  0.00000000000E+00 0.  1.
         23    2    1    2    0    0 -0.11475998666E+03  0.32629541297E+03  0.59144579042E+03  0.69120195607E+03  0.91178232102E+02 0.  0.
        254    2    1    2    0    0  0.11475998666E+03 -0.32629541297E+03  0.31449632160E+03  0.10142023426E+04  0.90003327964E+03 0.  0.
        -24    2    4    4    0    0  0.43890166432E+03 -0.12828545347E+03 -0.68684662469E+02  0.46932582129E+03  0.80357421326E+02 0.  0.
         24    2    4    4    0    0 -0.32414167766E+03 -0.19800995950E+03  0.38318098407E+03  0.54487652135E+03  0.76072240056E+02 0.  0.
         11    1    3    3    0    0 -0.11370079869E+03  0.23017329373E+03  0.47737782225E+03  0.54203062824E+03  0.00000000000E+00 0.  1.
        -11    1    3    3    0    0 -0.10591879687E+01  0.96122119236E+02  0.11406796817E+03  0.14917132783E+03  0.00000000000E+00 0. -1.
          2    1    6    6  502    0 -0.12485432185E+03 -0.11542636735E+03  0.19383316301E+03  0.25784325286E+03  0.00000000000E+00 0. -1.
          3    1    5    5  503    0  0.28037331055E+03 -0.54442062063E+02 -0.71485657141E+02  0.29442032974E+03  0.00000000000E+00 0. -1.
         -4    1    5    5    0  503  0.15852835377E+03 -0.73843391408E+02  0.28009946723E+01  0.17490549155E+03  0.00000000000E+00 0.  1.
         -1    1    6    6    0  502 -0.19928735581E+03 -0.82583592150E+02  0.18934782106E+03  0.28703326849E+03  0.00000000000E+00 0.  1.
<mgrwt>
<rscale>  0 0.14448781E+04</rscale>
<asrwt>0</asrwt>
<pdfrwt beam="1">  1        1 0.20087280E+00 0.14448781E+04</pdfrwt>
<pdfrwt beam="2">  1       -1 0.61497092E-01 0.14448781E+04</pdfrwt>
<totfact> 0.23350448E+01</totfact>
</mgrwt>
</event>
<event>
12    1  0.1397649E-007  0.1326052E+04  0.7818608E-02  0.9009157E-01
         -2   -1    0    0    0  501 -0.00000000000E+00  0.00000000000E+00  0.37661430697E+03  0.37661430697E+03  0.00000000000E+00 0. -1.
          2   -1    0    0  501    0  0.00000000000E+00 -0.00000000000E+00 -0.11672516249E+04  0.11672516249E+04  0.00000000000E+00 0.  1.
         23    2    1    2    0    0  0.24526390876E+03  0.23233885815E+03 -0.31280469798E+03  0.46932910016E+03  0.91034582627E+02 0.  0.
        254    2    1    2    0    0 -0.24526390876E+03 -0.23233885815E+03 -0.47783261996E+03  0.10745368317E+04  0.90120456062E+03 0.  0.
        -24    2    4    4    0    0 -0.23063835454E+03  0.25847153386E+03  0.39271230580E+02  0.35744926570E+03  0.78906042857E+02 0.  0.
         24    2    4    4    0    0 -0.14625554217E+02 -0.49081039201E+03 -0.51710385054E+03  0.71708756602E+03  0.75560818938E+02 0.  0.
         13    1    3    3    0    0  0.17120175158E+03  0.21192675399E+03 -0.25533382163E+03  0.37338766620E+03  0.00000000000E+00 0.  1.
        -13    1    3    3    0    0  0.74062157177E+02  0.20412104154E+02 -0.57470876346E+02  0.95941433957E+02  0.00000000000E+00 0. -1.
          4    1    6    6  502    0  0.24365661061E+02 -0.17018923313E+03 -0.21008233480E+03  0.27146389799E+03  0.00000000000E+00 0. -1.
          1    1    5    5  503    0 -0.20608556464E+03  0.19395253368E+03  0.12089895894E+02  0.28325785225E+03  0.00000000000E+00 0. -1.
         -2    1    5    5    0  503 -0.24552789900E+02  0.64519000177E+02  0.27181334686E+02  0.74191413459E+02  0.00000000000E+00 0.  1.
         -3    1    6    6    0  502 -0.38991215279E+02 -0.32062115887E+03 -0.30702151574E+03  0.44562366803E+03  0.00000000000E+00 0.  1.
<mgrwt>
<rscale>  0 0.13260523E+04</rscale>
<asrwt>0</asrwt>
<pdfrwt beam="1">  1        2 0.17957717E+00 0.13260523E+04</pdfrwt>
<pdfrwt beam="2">  1       -2 0.57940665E-01 0.13260523E+04</pdfrwt>
<totfact> 0.54061945E+01</totfact>
</mgrwt>
</event>
<event>
12    1  0.1397649E-007  0.1542674E+04  0.7818608E-02  0.8856561E-01
         -2   -1    0    0    0  501 -0.00000000000E+00  0.00000000000E+00  0.85416456323E+03  0.85416456323E+03  0.00000000000E+00 0.  1.
          2   -1    0    0  501    0  0.00000000000E+00 -0.00000000000E+00 -0.69654097264E+03  0.69654097264E+03  0.00000000000E+00 0. -1.
         23    2    1    2    0    0  0.42048406214E+03 -0.55076209123E+02 -0.22188288849E+03  0.48738002164E+03  0.92016487494E+02 0.  0.
        254    2    1    2    0    0 -0.42048406214E+03  0.55076209123E+02  0.37950647907E+03  0.10633255142E+04  0.89821809502E+03 0.  0.
        -24    2    4    4    0    0 -0.54223065623E+03  0.35897769335E+03  0.27526132495E+03  0.71068924651E+03  0.80195630862E+02 0.  0.
         24    2    4    4    0    0  0.12174659409E+03 -0.30390148422E+03  0.10424515412E+03  0.35263626771E+03  0.79416244325E+02 0.  0.
         11    1    3    3    0    0  0.10745510450E+03 -0.29797718076E+02 -0.17997145904E+02  0.11295309091E+03  0.00000000000E+00 0.  1.
        -11    1    3    3    0    0  0.31302895764E+03 -0.25278491047E+02 -0.20388574259E+03  0.37442693074E+03  0.00000000000E+00 0. -1.
          4    1    6    6  502    0 -0.21642674637E+01 -0.41490763486E+02  0.34925258679E+02  0.54276525332E+02  0.00000000000E+00 0. -1.
          1    1    5    5  503    0 -0.85761273325E+02  0.70790791294E+02  0.78496719673E+02  0.13611784282E+03  0.00000000000E+00 0. -1.
         -2    1    5    5    0  503 -0.45646938291E+03  0.28818690205E+03  0.19676460528E+03  0.57457140369E+03  0.00000000000E+00 0.  1.
         -3    1    6    6    0  502  0.12391086156E+03 -0.26241072074E+03  0.69319895440E+02  0.29835974238E+03  0.00000000000E+00 0.  1.
<mgrwt>
<rscale>  0 0.15426738E+04</rscale>
<asrwt>0</asrwt>
<pdfrwt beam="1">  1        2 0.10716015E+00 0.15426738E+04</pdfrwt>
<pdfrwt beam="2">  1       -2 0.13140993E+00 0.15426738E+04</pdfrwt>
<totfact> 0.16775012E+01</totfact>
</mgrwt>
</event>
<event>
12    1  0.1397649E-007  0.1938075E+04  0.7818608E-02  0.8636133E-01
          2   -1    0    0  501    0  0.00000000000E+00  0.00000000000E+00  0.26272956155E+04  0.26272956155E+04  0.00000000000E+00 0.  1.
         -2   -1    0    0    0  501 -0.00000000000E+00 -0.00000000000E+00 -0.35741467970E+03  0.35741467970E+03  0.00000000000E+00 0. -1.
         23    2    1    2    0    0 -0.20103570409E+03 -0.24102672573E+03 -0.16578581839E+03  0.36583496532E+03  0.88549689087E+02 0.  0.
        254    2    1    2    0    0  0.20103570409E+03  0.24102672573E+03  0.24356667541E+04  0.26188753298E+04  0.90968468118E+03 0.  0.
        -24    2    4    4    0    0 -0.28827095580E+03 -0.12706306929E+03  0.60262971191E+03  0.68463025395E+03  0.79440842254E+02 0.  0.
         24    2    4    4    0    0  0.48930665989E+03  0.36808979502E+03  0.18330370422E+04  0.19342450759E+04  0.79800443574E+02 0.  0.
         11    1    3    3    0    0 -0.44573722321E+01  0.27106308066E+01 -0.19560961121E+02  0.20244675511E+02  0.00000000000E+00 0.  1.
        -11    1    3    3    0    0 -0.19657833186E+03 -0.24373735654E+03 -0.14622485727E+03  0.34559028981E+03  0.00000000000E+00 0. -1.
          4    1    6    6  502    0  0.25817012695E+03  0.14439202848E+03  0.88446683038E+03  0.93262127703E+03  0.00000000000E+00 0. -1.
          3    1    5    5  503    0 -0.27220497307E+03 -0.10993459692E+03  0.50419298987E+03  0.58343100192E+03  0.00000000000E+00 0. -1.
         -4    1    5    5    0  503 -0.16065982727E+02 -0.17128472363E+02  0.98436722039E+02  0.10119925203E+03  0.00000000000E+00 0.  1.
         -1    1    6    6    0  502  0.23113653293E+03  0.22369776654E+03  0.94857021186E+03  0.10016237989E+04  0.00000000000E+00 0.  1.
<mgrwt>
<rscale>  0 0.19380754E+04</rscale>
<asrwt>0</asrwt>
<pdfrwt beam="1">  1        2 0.40419931E+00 0.19380754E+04</pdfrwt>
<pdfrwt beam="2">  1       -2 0.54986875E-01 0.19380754E+04</pdfrwt>
<totfact> 0.85270030E+00</totfact>
</mgrwt>
</event>
<event>
12    1  0.1397649E-007  0.1247878E+04  0.7818608E-02  0.9071951E-01
          1   -1    0    0  501    0  0.00000000000E+00  0.00000000000E+00  0.13653746243E+04  0.13653746243E+04  0.00000000000E+00 0. -1.
         -1   -1    0    0    0  501 -0.00000000000E+00 -0.00000000000E+00 -0.28512319860E+03  0.28512319860E+03  0.00000000000E+00 0.  1.
         23    2    1    2    0    0  0.14873686310E+03 -0.76010239259E+01  0.64019892107E+03  0.66350067988E+03  0.90543159054E+02 0.  0.
        254    2    1    2    0    0 -0.14873686310E+03  0.76010239259E+01  0.44005250463E+03  0.98699714302E+03  0.87082531169E+03 0.  0.
        -24    2    4    4    0    0 -0.35873808812E+03 -0.14491176258E+03  0.56391240563E+03  0.68825300425E+03  0.77476201674E+02 0.  0.
         24    2    4    4    0    0  0.21000122502E+03  0.15251278650E+03 -0.12385990100E+03  0.29874413877E+03  0.80908101057E+02 0.  0.
         13    1    3    3    0    0  0.42439376285E+02 -0.58446268240E+01  0.60486306768E+02  0.74120534460E+02  0.00000000000E+00 0.  1.
        -13    1    3    3    0    0  0.10629748682E+03 -0.17563971019E+01  0.57971261430E+03  0.58938014542E+03  0.00000000000E+00 0. -1.
          4    1    6    6  502    0  0.17998150168E+03  0.93158533814E+02 -0.11075534684E+03  0.23095151055E+03  0.00000000000E+00 0. -1.
          3    1    5    5  503    0 -0.19516653778E+03 -0.45218000651E+02  0.24809929533E+03  0.31888541107E+03  0.00000000000E+00 0. -1.
         -4    1    5    5    0  503 -0.16357155034E+03 -0.99693761925E+02  0.31581311031E+03  0.36936759318E+03  0.00000000000E+00 0.  1.
         -3    1    6    6    0  502  0.30019723333E+02  0.59354252687E+02 -0.13104554161E+02  0.67792628219E+02  0.00000000000E+00 0.  1.
<mgrwt>
<rscale>  0 0.12478782E+04</rscale>
<asrwt>0</asrwt>
<pdfrwt beam="1">  1        1 0.21005763E+00 0.12478782E+04</pdfrwt>
<pdfrwt beam="2">  1       -1 0.43865108E-01 0.12478782E+04</pdfrwt>
<totfact> 0.41161310E+01</totfact>
</mgrwt>
</event>
<event>
12    1  0.1397649E-007  0.1372913E+04  0.7818608E-02  0.8973662E-01
          2   -1    0    0  501    0  0.00000000000E+00  0.00000000000E+00  0.66153646841E+03  0.66153646841E+03  0.00000000000E+00 0. -1.
         -2   -1    0    0    0  501 -0.00000000000E+00 -0.00000000000E+00 -0.71231493227E+03  0.71231493227E+03  0.00000000000E+00 0.  1.
         23    2    1    2    0    0  0.36254781369E+03  0.66419537585E+02 -0.15177320437E+03  0.40753890636E+03  0.84855067318E+02 0.  0.
        254    2    1    2    0    0 -0.36254781369E+03 -0.66419537585E+02  0.10099474051E+03  0.96631249431E+03  0.88752883157E+03 0.  0.
        -24    2    4    4    0    0  0.19171974751E+03  0.10551353624E+03 -0.20014465984E+03  0.30736431567E+03  0.80779760879E+02 0.  0.
         24    2    4    4    0    0 -0.55426756120E+03 -0.17193307383E+03  0.30113940035E+03  0.65894817864E+03  0.82184258924E+02 0.  0.
         11    1    3    3    0    0  0.10989904969E+03 -0.18991183010E+02 -0.44616285085E+02  0.12012110160E+03  0.00000000000E+00 0. -1.
        -11    1    3    3    0    0  0.25264876400E+03  0.85410720595E+02 -0.10715691928E+03  0.28741780476E+03  0.00000000000E+00 0.  1.
          4    1    6    6  502    0 -0.38112392721E+03 -0.15230999243E+03  0.23213979791E+03  0.47153225495E+03  0.00000000000E+00 0. -1.
          1    1    5    5  503    0  0.14523014642E+03  0.76550847510E+02 -0.19095632868E+03  0.25182562845E+03  0.00000000000E+00 0. -1.
         -4    1    5    5    0  503  0.46489601094E+02  0.28962688732E+02 -0.91883311664E+01  0.55538687220E+02  0.00000000000E+00 0.  1.
         -3    1    6    6    0  502 -0.17314363399E+03 -0.19623081401E+02  0.68999602434E+02  0.18741592369E+03  0.00000000000E+00 0.  1.
<mgrwt>
<rscale>  0 0.13729127E+04</rscale>
<asrwt>0</asrwt>
<pdfrwt beam="1">  1        2 0.10177484E+00 0.13729127E+04</pdfrwt>
<pdfrwt beam="2">  1       -2 0.10958691E+00 0.13729127E+04</pdfrwt>
<totfact> 0.28445149E+01</totfact>
</mgrwt>
</event>
<event>
12    1  0.1397649E-007  0.1235952E+04  0.7818608E-02  0.9081957E-01
         -1   -1    0    0    0  501 -0.00000000000E+00  0.00000000000E+00  0.21006114675E+03  0.21006114675E+03  0.00000000000E+00 0.  1.
          1   -1    0    0  501    0  0.00000000000E+00 -0.00000000000E+00 -0.18180136382E+04  0.18180136382E+04  0.00000000000E+00 0. -1.
         23    2    1    2    0    0 -0.17023607566E+03 -0.21970874009E+02 -0.10353278723E+03  0.22047567785E+03  0.91801120517E+02 0.  0.
        254    2    1    2    0    0  0.17023607566E+03  0.21970874009E+02 -0.15044197042E+04  0.18075991071E+04  0.98725520754E+03 0.  0.
        -24    2    4    4    0    0  0.33561098189E+02 -0.95273046059E+02 -0.15885722951E+04  0.15939219381E+04  0.82594838450E+02 0.  0.
         24    2    4    4    0    0  0.13667497747E+03  0.11724392007E+03  0.84152590836E+02  0.21367716907E+03  0.78422495341E+02 0.  0.
         13    1    3    3    0    0 -0.94910871232E+01  0.43389093773E+01 -0.46869603028E+02  0.48017356834E+02  0.00000000000E+00 0. -1.
        -13    1    3    3    0    0 -0.16074498854E+03 -0.26309783386E+02 -0.56663184205E+02  0.17245832101E+03  0.00000000000E+00 0.  1.
          2    1    6    6  502    0  0.79914969504E+02  0.31153730369E+02  0.67665253044E+02  0.10924991412E+03  0.00000000000E+00 0. -1.
          3    1    5    5  503    0  0.23053268896E+02 -0.10972863698E+03 -0.14133973450E+04  0.14178377487E+04  0.00000000000E+00 0. -1.
         -4    1    5    5    0  503  0.10507829293E+02  0.14455590921E+02 -0.17517495011E+03  0.17608418933E+03  0.00000000000E+00 0.  1.
         -1    1    6    6    0  502  0.56760007969E+02  0.86090189699E+02  0.16487337792E+02  0.10442725494E+03  0.00000000000E+00 0.  1.
<mgrwt>
<rscale>  0 0.12359515E+04</rscale>
<asrwt>0</asrwt>
<pdfrwt beam="1">  1        1 0.27969441E+00 0.12359515E+04</pdfrwt>
<pdfrwt beam="2">  1       -1 0.32317099E-01 0.12359515E+04</pdfrwt>
<totfact> 0.35007518E+01</totfact>
</mgrwt>
</event>
<event>
12    1  0.1397649E-007  0.2364153E+04  0.7818608E-02  0.8453047E-01
         -2   -1    0    0    0  501 -0.00000000000E+00  0.00000000000E+00  0.80207874724E+03  0.80207874724E+03  0.00000000000E+00 0.  1.
          2   -1    0    0  501    0  0.00000000000E+00 -0.00000000000E+00 -0.17421040447E+04  0.17421040447E+04  0.00000000000E+00 0. -1.
         23    2    1    2    0    0  0.13605530582E+03  0.77205219835E+03  0.25282763874E+03  0.82908305660E+03  0.94240419231E+02 0.  0.
        254    2    1    2    0    0 -0.13605530582E+03 -0.77205219835E+03 -0.11928529362E+04  0.17150997353E+04  0.95083822574E+03 0.  0.
        -24    2    4    4    0    0 -0.31469763478E+03 -0.92614458708E+03 -0.91087576315E+03  0.13389355476E+04  0.79217089420E+02 0.  0.
         24    2    4    4    0    0  0.17864232896E+03  0.15409238874E+03 -0.28197717303E+03  0.37616418770E+03  0.79566475589E+02 0.  0.
         11    1    3    3    0    0  0.14810325209E+03  0.73140725390E+03  0.24817151095E+03  0.78643514874E+03  0.00000000000E+00 0.  1.
        -11    1    3    3    0    0 -0.12047946268E+02  0.40644944449E+02  0.46561277929E+01  0.42647907857E+02  0.00000000000E+00 0. -1.
          2    1    6    6  502    0  0.10978167073E+03  0.12717718062E+03 -0.15165194762E+03  0.22632800029E+03  0.00000000000E+00 0. -1.
          3    1    5    5  503    0 -0.29234953651E+03 -0.78292488252E+03 -0.75819024956E+03  0.11284024449E+04  0.00000000000E+00 0. -1.
         -4    1    5    5    0  503 -0.22348098262E+02 -0.14321970457E+03 -0.15268551359E+03  0.21053310270E+03  0.00000000000E+00 0.  1.
         -1    1    6    6    0  502  0.68860658227E+02  0.26915208115E+02 -0.13032522541E+03  0.14983618741E+03  0.00000000000E+00 0.  1.
<mgrwt>
<rscale>  0 0.23641528E+04</rscale>
<asrwt>0</asrwt>
<pdfrwt beam="1">  1        2 0.26801601E+00 0.23641528E+04</pdfrwt>
<pdfrwt beam="2">  1       -2 0.12339673E+00 0.23641528E+04</pdfrwt>
<totfact> 0.41508654E+00</totfact>
</mgrwt>
</event>
<event>
12    1  0.1397649E-007  0.1914211E+04  0.7818608E-02  0.8647815E-01
         -2   -1    0    0    0  501 -0.00000000000E+00  0.00000000000E+00  0.59371406153E+03  0.59371406153E+03  0.00000000000E+00 0.  1.
          2   -1    0    0  501    0  0.00000000000E+00 -0.00000000000E+00 -0.15429159271E+04  0.15429159271E+04  0.00000000000E+00 0. -1.
         23    2    1    2    0    0 -0.30547612480E+03  0.27937685029E+03 -0.10701265219E+04  0.11509406040E+04  0.90146622811E+02 0.  0.
        254    2    1    2    0    0  0.30547612480E+03 -0.27937685029E+03  0.12092465639E+03  0.98568938464E+03  0.88633724009E+03 0.  0.
        -24    2    4    4    0    0  0.48332143541E+03 -0.37647418879E+03 -0.15283744394E+03  0.63625087439E+03  0.78252579053E+02 0.  0.
         24    2    4    4    0    0 -0.17784531061E+03  0.97097338499E+02  0.27376210033E+03  0.34943851025E+03  0.78132817827E+02 0.  0.
         13    1    3    3    0    0 -0.25719910845E+02  0.32064049288E+00 -0.39236586778E+02  0.46916163166E+02  0.00000000000E+00 0.  1.
        -13    1    3    3    0    0 -0.27975621395E+03  0.27905620980E+03 -0.10308899352E+04  0.11040244408E+04  0.00000000000E+00 0. -1.
          2    1    6    6  502    0 -0.18920498462E+01 -0.37784849004E+00  0.44101346950E+02  0.44143532085E+02  0.00000000000E+00 0. -1.
          1    1    5    5  503    0  0.11551883530E+03 -0.10155334886E+03 -0.72657323347E+02  0.17010811447E+03  0.00000000000E+00 0. -1.
         -2    1    5    5    0  503  0.36780260012E+03 -0.27492083994E+03 -0.80180120595E+02  0.46614275992E+03  0.00000000000E+00 0.  1.
         -1    1    6    6    0  502 -0.17595326077E+03  0.97475186989E+02  0.22966075338E+03  0.30529497817E+03  0.00000000000E+00 0.  1.
<mgrwt>
<rscale>  0 0.19142109E+04</rscale>
<asrwt>0</asrwt>
<pdfrwt beam="1">  1        2 0.23737168E+00 0.19142109E+04</pdfrwt>
<pdfrwt beam="2">  1       -2 0.91340625E-01 0.19142109E+04</pdfrwt>
<totfact> 0.11470790E+01</totfact>
</mgrwt>
</event>
<event>
12    1  0.1397649E-007  0.1320028E+04  0.7818608E-02  0.9013831E-01
          1   -1    0    0  501    0  0.00000000000E+00  0.00000000000E+00  0.95554075878E+03  0.95554075878E+03  0.00000000000E+00 0. -1.
         -1   -1    0    0    0  501 -0.00000000000E+00 -0.00000000000E+00 -0.45588719335E+03  0.45588719335E+03  0.00000000000E+00 0.  1.
         23    2    1    2    0    0  0.83283530307E+02 -0.11047831676E+03  0.45835350499E+03  0.48771425223E+03  0.92928205635E+02 0.  0.
        254    2    1    2    0    0 -0.83283530307E+02  0.11047831676E+03  0.41300060439E+02  0.92371369990E+03  0.91235941355E+03 0.  0.
        -24    2    4    4    0    0 -0.19341899507E+03  0.48893601126E+02  0.44525375145E+03  0.49289430391E+03  0.69945691490E+02 0.  0.
         24    2    4    4    0    0  0.11013546476E+03  0.61584715629E+02 -0.40395369101E+03  0.43081939600E+03  0.80649052616E+02 0.  0.
         11    1    3    3    0    0  0.91729115967E+02 -0.76267227785E+02  0.41521872517E+03  0.43201563685E+03  0.00000000000E+00 0. -1.
        -11    1    3    3    0    0 -0.84455856602E+01 -0.34211088971E+02  0.43134779817E+02  0.55698615383E+02  0.00000000000E+00 0.  1.
          4    1    6    6  502    0  0.65190314127E+02  0.76726829289E+02 -0.30278655932E+03  0.31908695350E+03  0.00000000000E+00 0. -1.
          1    1    5    5  503    0 -0.70026018829E+02  0.47268403556E+02  0.22634184777E+03  0.24159589678E+03  0.00000000000E+00 0. -1.
         -2    1    5    5    0  503 -0.12339297624E+03  0.16251975704E+01  0.21891190368E+03  0.25129840713E+03  0.00000000000E+00 0.  1.
         -3    1    6    6    0  502  0.44945150636E+02 -0.15142113660E+02 -0.10116713169E+03  0.11173244249E+03  0.00000000000E+00 0.  1.
<mgrwt>
<rscale>  0 0.13200285E+04</rscale>
<asrwt>0</asrwt>
<pdfrwt beam="1">  1        1 0.14700627E+00 0.13200285E+04</pdfrwt>
<pdfrwt beam="2">  1       -1 0.70136492E-01 0.13200285E+04</pdfrwt>
<totfact> 0.33082873E+01</totfact>
</mgrwt>
</event>
<event>
12    1  0.1397649E-007  0.2407085E+04  0.7818608E-02  0.8436856E-01
         -2   -1    0    0    0  501 -0.00000000000E+00  0.00000000000E+00  0.16139666820E+04  0.16139666820E+04  0.00000000000E+00 0.  1.
          2   -1    0    0  501    0  0.00000000000E+00 -0.00000000000E+00 -0.89748751431E+03  0.89748751431E+03  0.00000000000E+00 0. -1.
         23    2    1    2    0    0  0.90053240250E+03  0.21509626048E+03 -0.17213289991E+03  0.94615568400E+03  0.91410250492E+02 0.  0.
        254    2    1    2    0    0 -0.90053240250E+03 -0.21509626048E+03  0.88861206764E+03  0.15652985124E+04  0.89627173156E+03 0.  0.
        -24    2    4    4    0    0 -0.37239238734E+03  0.34023722908E+03  0.27406172651E+03  0.57972698832E+03  0.80846081198E+02 0.  0.
         24    2    4    4    0    0 -0.52814001517E+03 -0.55533348957E+03  0.61455034113E+03  0.98557152404E+03  0.79699102632E+02 0.  0.
         11    1    3    3    0    0  0.84012566959E+03  0.19981420525E+03 -0.13622308461E+03  0.87423886101E+03  0.00000000000E+00 0.  1.
        -11    1    3    3    0    0  0.60406732918E+02  0.15282055240E+02 -0.35909815298E+02  0.71916822989E+02  0.00000000000E+00 0. -1.
          2    1    6    6  502    0 -0.28809712117E+03 -0.28447986494E+03  0.37255166015E+03  0.55020313000E+03  0.00000000000E+00 0. -1.
          1    1    5    5  503    0 -0.14862844300E+03  0.14228011266E+03  0.67615295576E+02  0.21657763670E+03  0.00000000000E+00 0. -1.
         -2    1    5    5    0  503 -0.22376394434E+03  0.19795711643E+03  0.20644643093E+03  0.36314935161E+03  0.00000000000E+00 0.  1.
         -1    1    6    6    0  502 -0.24004289400E+03 -0.27085362463E+03  0.24199868098E+03  0.43536839404E+03  0.00000000000E+00 0.  1.
<mgrwt>
<rscale>  0 0.24070853E+04</rscale>
<asrwt>0</asrwt>
<pdfrwt beam="1">  1        2 0.13807500E+00 0.24070853E+04</pdfrwt>
<pdfrwt beam="2">  1       -2 0.24830257E+00 0.24070853E+04</pdfrwt>
<totfact> 0.17411994E+00</totfact>
</mgrwt>
</event>
<event>
12    1  0.1397649E-007  0.2362145E+04  0.7818608E-02  0.8453814E-01
          2   -1    0    0  501    0  0.00000000000E+00  0.00000000000E+00  0.15587843558E+04  0.15587843558E+04  0.00000000000E+00 0. -1.
         -2   -1    0    0    0  501 -0.00000000000E+00 -0.00000000000E+00 -0.89488437051E+03  0.89488437051E+03  0.00000000000E+00 0.  1.
         23    2    1    2    0    0  0.83707900662E+03  0.55752541699E+03  0.26451242887E+03  0.10437587103E+04  0.89048112387E+02 0.  0.
        254    2    1    2    0    0 -0.83707900662E+03 -0.55752541699E+03  0.39938755644E+03  0.14099100161E+04  0.90376987071E+03 0.  0.
        -24    2    4    4    0    0 -0.81174057124E+03 -0.35441068405E+03  0.62989894660E+03  0.10898361898E+04  0.80253036079E+02 0.  0.
         24    2    4    4    0    0 -0.25338435380E+02 -0.20311473295E+03 -0.23051139015E+03  0.32007382621E+03  0.86105297094E+02 0.  0.
         11    1    3    3    0    0  0.51957113191E+03  0.29875365826E+03  0.13741839758E+03  0.61489163714E+03  0.00000000000E+00 0. -1.
        -11    1    3    3    0    0  0.31750787471E+03  0.25877175874E+03  0.12709403128E+03  0.42886707313E+03  0.00000000000E+00 0.  1.
          4    1    6    6  502    0 -0.13627178079E+02 -0.46150320669E+02 -0.11552437965E+03  0.12514565263E+03  0.00000000000E+00 0. -1.
          3    1    5    5  503    0 -0.94379859259E+01 -0.55460179540E+01 -0.13185003022E+01  0.11025984606E+02  0.00000000000E+00 0. -1.
         -4    1    5    5    0  503 -0.80230258532E+03 -0.34886466609E+03  0.63121744690E+03  0.10788102052E+04  0.00000000000E+00 0.  1.
         -3    1    6    6    0  502 -0.11711257301E+02 -0.15696441228E+03 -0.11498701051E+03  0.19492817358E+03  0.00000000000E+00 0.  1.
<mgrwt>
<rscale>  0 0.23621446E+04</rscale>
<asrwt>0</asrwt>
<pdfrwt beam="1">  1        2 0.23981298E+00 0.23621446E+04</pdfrwt>
<pdfrwt beam="2">  1       -2 0.13767452E+00 0.23621446E+04</pdfrwt>
<totfact> 0.39803671E+00</totfact>
</mgrwt>
</event>
<event>
12    1  0.1397649E-007  0.1907308E+04  0.7818608E-02  0.8651227E-01
         -2   -1    0    0    0  501 -0.00000000000E+00  0.00000000000E+00  0.41411356927E+03  0.41411356927E+03  0.00000000000E+00 0. -1.
          2   -1    0    0  501    0  0.00000000000E+00 -0.00000000000E+00 -0.21961502626E+04  0.21961502626E+04  0.00000000000E+00 0.  1.
         23    2    1    2    0    0 -0.15198553981E+02  0.36900370738E+03  0.17967277655E+03  0.42051911676E+03  0.90328781805E+02 0.  0.
        254    2    1    2    0    0  0.15198553981E+02 -0.36900370738E+03 -0.19617094698E+04  0.21897447151E+04  0.90015728682E+03 0.  0.
        -24    2    4    4    0    0  0.73031875749E+02  0.19877502561E+03 -0.11379716448E+03  0.25405453321E+03  0.82150748738E+02 0.  0.
         24    2    4    4    0    0 -0.57833321768E+02 -0.56777873299E+03 -0.18479123054E+04  0.19356901819E+04  0.79995056750E+02 0.  0.
         13    1    3    3    0    0 -0.18242905426E+02  0.33342648644E+03  0.18888172499E+03  0.38364349531E+03  0.00000000000E+00 0. -1.
        -13    1    3    3    0    0  0.30443514453E+01  0.35577220949E+02 -0.92089484443E+01  0.36875621454E+02  0.00000000000E+00 0.  1.
          4    1    6    6  502    0 -0.21849065008E+02 -0.76921353255E+02 -0.34892995818E+03  0.35797540690E+03  0.00000000000E+00 0. -1.
          3    1    5    5  503    0  0.45298998875E+02  0.14660782990E+03 -0.38237625796E+02  0.15813908787E+03  0.00000000000E+00 0. -1.
         -4    1    5    5    0  503  0.27732876874E+02  0.52167195714E+02 -0.75559538682E+02  0.95915445337E+02  0.00000000000E+00 0.  1.
         -3    1    6    6    0  502 -0.35984256760E+02 -0.49085737974E+03 -0.14989823472E+04  0.15777147750E+04  0.00000000000E+00 0.  1.
<mgrwt>
<rscale>  0 0.19073077E+04</rscale>
<asrwt>0</asrwt>
<pdfrwt beam="1">  1        2 0.33786926E+00 0.19073077E+04</pdfrwt>
<pdfrwt beam="2">  1       -2 0.63709781E-01 0.19073077E+04</pdfrwt>
<totfact> 0.11072875E+01</totfact>
</mgrwt>
</event>
<event>
12    1  0.1397649E-007  0.1770791E+04  0.7818608E-02  0.8721989E-01
          1   -1    0    0  501    0  0.00000000000E+00  0.00000000000E+00  0.53216670174E+03  0.53216670174E+03  0.00000000000E+00 0. -1.
         -1   -1    0    0    0  501 -0.00000000000E+00 -0.00000000000E+00 -0.14730819290E+04  0.14730819290E+04  0.00000000000E+00 0.  1.
         23    2    1    2    0    0 -0.88339187142E+02 -0.76444203448E+02  0.37582529298E+03  0.40398417318E+03  0.91164867772E+02 0.  0.
        254    2    1    2    0    0  0.88339187142E+02  0.76444203448E+02 -0.13167405203E+04  0.16012644576E+04  0.90365631586E+03 0.  0.
        -24    2    4    4    0    0  0.44026153408E+03 -0.31956764762E+02 -0.10414818585E+04  0.11341534633E+04  0.82268848270E+02 0.  0.
         24    2    4    4    0    0 -0.35192234694E+03  0.10840096821E+03 -0.27525866173E+03  0.46711099431E+03  0.82615022633E+02 0.  0.
         11    1    3    3    0    0 -0.92817086161E+02 -0.88003768600E+02  0.36731570693E+03  0.38894794424E+03  0.00000000000E+00 0. -1.
        -11    1    3    3    0    0  0.44778990186E+01  0.11559565152E+02  0.85095860457E+01  0.15036228942E+02  0.00000000000E+00 0.  1.
          2    1    6    6  502    0 -0.33687223083E+03  0.96984823213E+02 -0.27878437622E+03  0.44789472453E+03  0.00000000000E+00 0. -1.
          1    1    5    5  503    0  0.31472953382E+03 -0.58388884474E+02 -0.77016391736E+03  0.83403621078E+03  0.00000000000E+00 0. -1.
         -2    1    5    5    0  503  0.12553200025E+03  0.26432119712E+02 -0.27131794118E+03  0.30011725250E+03  0.00000000000E+00 0.  1.
         -1    1    6    6    0  502 -0.15050116111E+02  0.11416144997E+02  0.35257144937E+01  0.19216269779E+02  0.00000000000E+00 0.  1.
<mgrwt>
<rscale>  0 0.17707910E+04</rscale>
<asrwt>0</asrwt>
<pdfrwt beam="1">  1        1 0.81871802E-01 0.17707910E+04</pdfrwt>
<pdfrwt beam="2">  1       -1 0.22662798E+00 0.17707910E+04</pdfrwt>
<totfact> 0.38199799E+00</totfact>
</mgrwt>
</event>
<event>
12    1  0.1397649E-007  0.2347696E+04  0.7818608E-02  0.8459349E-01
          1   -1    0    0  501    0  0.00000000000E+00  0.00000000000E+00  0.87471504749E+03  0.87471504749E+03  0.00000000000E+00 0. -1.
         -1   -1    0    0    0  501 -0.00000000000E+00 -0.00000000000E+00 -0.15752772141E+04  0.15752772141E+04  0.00000000000E+00 0.  1.
         23    2    1    2    0    0  0.40260216622E+03  0.88223593854E+03 -0.49439079353E+03  0.10922858448E+04  0.90759872544E+02 0.  0.
        254    2    1    2    0    0 -0.40260216622E+03 -0.88223593854E+03 -0.20617137311E+03  0.13577064169E+04  0.92759437461E+03 0.  0.
        -24    2    4    4    0    0  0.20379059463E+03 -0.40875972997E+03 -0.33705369926E+03  0.57321786519E+03  0.79739585437E+02 0.  0.
         24    2    4    4    0    0 -0.60639276085E+03 -0.47347620857E+03  0.13088232615E+03  0.78448855167E+03  0.80001274427E+02 0.  0.
         13    1    3    3    0    0  0.89197673907E+02  0.26534472610E+03 -0.11021105629E+03  0.30084967280E+03  0.00000000000E+00 0. -1.
        -13    1    3    3    0    0  0.31340449231E+03  0.61689121244E+03 -0.38417973724E+03  0.79143617196E+03  0.00000000000E+00 0.  1.
          4    1    6    6  502    0 -0.24069289274E+03 -0.23047019332E+03  0.35084857624E+02  0.33508286417E+03  0.00000000000E+00 0. -1.
          1    1    5    5  503    0  0.37159539621E+02 -0.11988187881E+03 -0.57492352148E+02  0.13805023291E+03  0.00000000000E+00 0. -1.
         -2    1    5    5    0  503  0.16663105501E+03 -0.28887785116E+03 -0.27956134712E+03  0.43516763228E+03  0.00000000000E+00 0.  1.
         -3    1    6    6    0  502 -0.36569986811E+03 -0.24300601525E+03  0.95797468528E+02  0.44940568750E+03  0.00000000000E+00 0.  1.
<mgrwt>
<rscale>  0 0.23476956E+04</rscale>
<asrwt>0</asrwt>
<pdfrwt beam="1">  1        1 0.13457155E+00 0.23476956E+04</pdfrwt>
<pdfrwt beam="2">  1       -1 0.24235034E+00 0.23476956E+04</pdfrwt>
<totfact> 0.13447596E+00</totfact>
</mgrwt>
</event>
<event>
12    1  0.1397649E-007  0.1438657E+04  0.7818608E-02  0.8926302E-01
          1   -1    0    0  501    0  0.00000000000E+00  0.00000000000E+00  0.32510200672E+04  0.32510200672E+04  0.00000000000E+00 0. -1.
         -1   -1    0    0    0  501 -0.00000000000E+00 -0.00000000000E+00 -0.15916038461E+03  0.15916038461E+03  0.00000000000E+00 0.  1.
         23    2    1    2    0    0 -0.34765502910E+03 -0.64728633511E+02  0.40912804852E+03  0.54857142257E+03  0.92146786815E+02 0.  0.
        254    2    1    2    0    0  0.34765502910E+03  0.64728633511E+02  0.26827316341E+04  0.28616090292E+04  0.93096906529E+03 0.  0.
        -24    2    4    4    0    0 -0.30983449471E+03 -0.12809874749E+02  0.71056662166E+03  0.77950572151E+03  0.81010734154E+02 0.  0.
         24    2    4    4    0    0  0.65748952382E+03  0.77538508260E+02  0.19721650124E+04  0.20821033077E+04  0.86108383386E+02 0.  0.
         11    1    3    3    0    0 -0.26964746817E+03 -0.61653911740E+02  0.25695074895E+03  0.37753761310E+03  0.00000000000E+00 0. -1.
        -11    1    3    3    0    0 -0.78007560936E+02 -0.30747217703E+01  0.15217729957E+03  0.17103380947E+03  0.00000000000E+00 0.  1.
          4    1    6    6  502    0  0.49778384318E+03  0.73601017530E+02  0.13843644765E+04  0.14729802674E+04  0.00000000000E+00 0. -1.
          1    1    5    5  503    0 -0.22070628209E+03 -0.20824941223E+02  0.58261258680E+03  0.62336375210E+03  0.00000000000E+00 0. -1.
         -2    1    5    5    0  503 -0.89128212619E+02  0.80150664732E+01  0.12795403485E+03  0.15614196941E+03  0.00000000000E+00 0.  1.
         -3    1    6    6    0  502  0.15970568064E+03  0.39374907302E+01  0.58780053591E+03  0.60912304034E+03  0.00000000000E+00 0.  1.
<mgrwt>
<rscale>  0 0.14386572E+04</rscale>
<asrwt>0</asrwt>
<pdfrwt beam="1">  1        1 0.50015688E+00 0.14386572E+04</pdfrwt>
<pdfrwt beam="2">  1       -1 0.24486215E-01 0.14386572E+04</pdfrwt>
<totfact> 0.55451309E+00</totfact>
</mgrwt>
</event>
<event>
12    1  0.1397649E-007  0.3755335E+04  0.7818608E-02  0.8055808E-01
         -2   -1    0    0    0  501 -0.00000000000E+00  0.00000000000E+00  0.11876953915E+04  0.11876953915E+04  0.00000000000E+00 0.  1.
          2   -1    0    0  501    0  0.00000000000E+00 -0.00000000000E+00 -0.29684675962E+04  0.29684675962E+04  0.00000000000E+00 0. -1.
         23    2    1    2    0    0 -0.75612332437E+03 -0.28359320441E+02 -0.26066407197E+04  0.27157304998E+04  0.89942053637E+02 0.  0.
        254    2    1    2    0    0  0.75612332437E+03  0.28359320441E+02  0.82586851493E+03  0.14404324879E+04  0.90568218244E+03 0.  0.
        -24    2    4    4    0    0  0.49101793489E+03  0.30837630874E+03  0.71638419850E+02  0.58953200989E+03  0.78875644525E+02 0.  0.
         24    2    4    4    0    0  0.26510538947E+03 -0.28001698830E+03  0.75423009508E+03  0.85090047803E+03  0.80487302882E+02 0.  0.
         13    1    3    3    0    0 -0.96730144686E+01 -0.11053415294E+02 -0.36905725223E+02  0.39721250645E+02  0.00000000000E+00 0.  1.
        -13    1    3    3    0    0 -0.74645030990E+03 -0.17305905147E+02 -0.25697349945E+04  0.26760092491E+04  0.00000000000E+00 0. -1.
          4    1    6    6  502    0  0.67495558964E+02 -0.11344016948E+03  0.31041735912E+03  0.33731774246E+03  0.00000000000E+00 0. -1.
          3    1    5    5  503    0  0.22526690087E+03  0.10708996581E+03  0.56877473494E+02  0.25582901398E+03  0.00000000000E+00 0. -1.
         -4    1    5    5    0  503  0.26575103402E+03  0.20128634293E+03  0.14760946356E+02  0.33370299590E+03  0.00000000000E+00 0.  1.
         -3    1    6    6    0  502  0.19760983051E+03 -0.16657681882E+03  0.44381273596E+03  0.51358273558E+03  0.00000000000E+00 0.  1.
<mgrwt>
<rscale>  0 0.37553350E+04</rscale>
<asrwt>0</asrwt>
<pdfrwt beam="1">  1        2 0.45668732E+00 0.37553350E+04</pdfrwt>
<pdfrwt beam="2">  1       -2 0.18272237E+00 0.37553350E+04</pdfrwt>
<totfact> 0.25449218E-01</totfact>
</mgrwt>
</event>
<event>
12    1  0.1397649E-007  0.1608786E+04  0.7818608E-02  0.8815169E-01
         -2   -1    0    0    0  501 -0.00000000000E+00  0.00000000000E+00  0.42667793922E+03  0.42667793922E+03  0.00000000000E+00 0.  1.
          2   -1    0    0  501    0  0.00000000000E+00 -0.00000000000E+00 -0.15164786724E+04  0.15164786724E+04  0.00000000000E+00 0. -1.
         23    2    1    2    0    0  0.73520064191E+02  0.22330033136E+03  0.20788381317E+03  0.32857838706E+03  0.97364463941E+02 0.  0.
        254    2    1    2    0    0 -0.73520064191E+02 -0.22330033136E+03 -0.12976845464E+04  0.16145782246E+04  0.93145554032E+03 0.  0.
        -24    2    4    4    0    0 -0.46867182877E+03 -0.28192646170E+03 -0.77734220368E+03  0.95391001900E+03  0.80917302485E+02 0.  0.
         24    2    4    4    0    0  0.39515176458E+03  0.58626130335E+02 -0.52034234269E+03  0.66066820558E+03  0.78386121649E+02 0.  0.
         11    1    3    3    0    0 -0.21243675504E+02  0.72534927292E+02  0.50288166240E+02  0.90782757669E+02  0.00000000000E+00 0. -1.
        -11    1    3    3    0    0  0.94763739695E+02  0.15076540407E+03  0.15759564693E+03  0.23779562939E+03  0.00000000000E+00 0.  1.
          4    1    6    6  502    0  0.38111597580E+03  0.43951724941E+02 -0.50907063216E+03  0.63744336977E+03  0.00000000000E+00 0. -1.
          1    1    5    5  503    0 -0.30519325823E+03 -0.14227933878E+03 -0.44402010859E+03  0.55726133183E+03  0.00000000000E+00 0. -1.
         -2    1    5    5    0  503 -0.16347857053E+03 -0.13964712292E+03 -0.33332209509E+03  0.39664868717E+03  0.00000000000E+00 0.  1.
         -3    1    6    6    0  502  0.14035788775E+02  0.14674405394E+02 -0.11271710525E+02  0.23224835809E+02  0.00000000000E+00 0.  1.
<mgrwt>
<rscale>  0 0.16087859E+04</rscale>
<asrwt>0</asrwt>
<pdfrwt beam="1">  1        2 0.23330441E+00 0.16087859E+04</pdfrwt>
<pdfrwt beam="2">  1       -2 0.65642759E-01 0.16087859E+04</pdfrwt>
<totfact> 0.25445799E+01</totfact>
</mgrwt>
</event>
<event>
12    1  0.1397649E-007  0.1835868E+04  0.7818608E-02  0.8687454E-01
          1   -1    0    0  501    0  0.00000000000E+00  0.00000000000E+00  0.17880633062E+04  0.17880633062E+04  0.00000000000E+00 0. -1.
         -1   -1    0    0    0  501 -0.00000000000E+00 -0.00000000000E+00 -0.47123770243E+03  0.47123770243E+03  0.00000000000E+00 0.  1.
         23    2    1    2    0    0 -0.10728657902E+03 -0.23620696654E+03  0.12948383831E+04  0.13236103589E+04  0.89631483572E+02 0.  0.
        254    2    1    2    0    0  0.10728657902E+03  0.23620696654E+03  0.21987220651E+02  0.93569064968E+03  0.89873767749E+03 0.  0.
        -24    2    4    4    0    0 -0.32266817857E+03 -0.12953444582E+03  0.69887460766E+02  0.36358871466E+03  0.80115979326E+02 0.  0.
         24    2    4    4    0    0  0.42995475759E+03  0.36574141237E+03 -0.47900240114E+02  0.57210193502E+03  0.79864364712E+02 0.  0.
         11    1    3    3    0    0 -0.32522581823E+02 -0.47780544932E+02  0.49995693575E+03  0.50328683313E+03  0.00000000000E+00 0.  1.
        -11    1    3    3    0    0 -0.74763997200E+02 -0.18842642161E+03  0.79488144733E+03  0.82032352578E+03  0.00000000000E+00 0. -1.
          2    1    6    6  502    0  0.82451932192E+02  0.47832183902E+02 -0.33038664024E+02  0.10088504478E+03  0.00000000000E+00 0. -1.
          1    1    5    5  503    0  0.39263488612E+01 -0.69002683775E+01  0.19560467028E+01  0.81765541498E+01  0.00000000000E+00 0. -1.
         -2    1    5    5    0  503 -0.32659452743E+03 -0.12263417745E+03  0.67931414063E+02  0.35541216051E+03  0.00000000000E+00 0.  1.
         -1    1    6    6    0  502  0.34750282540E+03  0.31790922847E+03 -0.14861576091E+02  0.47121689024E+03  0.00000000000E+00 0.  1.
<mgrwt>
<rscale>  0 0.18358680E+04</rscale>
<asrwt>0</asrwt>
<pdfrwt beam="1">  1        1 0.27508666E+00 0.18358680E+04</pdfrwt>
<pdfrwt beam="2">  1       -1 0.72498109E-01 0.18358680E+04</pdfrwt>
<totfact> 0.74929072E+00</totfact>
</mgrwt>
</event>
<event>
12    1  0.1397649E-007  0.1938944E+04  0.7818608E-02  0.8635710E-01
          1   -1    0    0  501    0  0.00000000000E+00  0.00000000000E+00  0.67648899920E+03  0.67648899920E+03  0.00000000000E+00 0. -1.
         -1   -1    0    0    0  501 -0.00000000000E+00 -0.00000000000E+00 -0.13893447267E+04  0.13893447267E+04  0.00000000000E+00 0.  1.
         23    2    1    2    0    0 -0.41037055942E+03  0.17331174222E+03  0.37052613247E+03  0.58633533323E+03  0.89769438651E+02 0.  0.
        254    2    1    2    0    0  0.41037055942E+03 -0.17331174222E+03 -0.10833818599E+04  0.14794983926E+04  0.90374680267E+03 0.  0.
        -24    2    4    4    0    0 -0.62539855178E+02  0.27744692452E+03 -0.57957112902E+03  0.65052699134E+03  0.79966514624E+02 0.  0.
         24    2    4    4    0    0  0.47291041460E+03 -0.45075866674E+03 -0.50381073091E+03  0.82897140129E+03  0.80874567702E+02 0.  0.
         13    1    3    3    0    0 -0.18534443049E+03  0.30665453782E+02  0.16010737108E+03  0.24683455642E+03  0.00000000000E+00 0.  1.
        -13    1    3    3    0    0 -0.22502612893E+03  0.14264628844E+03  0.21041876140E+03  0.33950077681E+03  0.00000000000E+00 0. -1.
          2    1    6    6  502    0  0.19618954220E+03 -0.14009695867E+03 -0.20915757639E+03  0.31916200597E+03  0.00000000000E+00 0. -1.
          3    1    5    5  503    0 -0.65757379591E+02  0.11247487997E+03 -0.26591259327E+03  0.29611507705E+03  0.00000000000E+00 0. -1.
         -4    1    5    5    0  503  0.32175244127E+01  0.16497204455E+03 -0.31365853575E+03  0.35441191429E+03  0.00000000000E+00 0.  1.
         -1    1    6    6    0  502  0.27672087239E+03 -0.31066170807E+03 -0.29465315452E+03  0.50980939531E+03  0.00000000000E+00 0.  1.
<mgrwt>
<rscale>  0 0.19389445E+04</rscale>
<asrwt>0</asrwt>
<pdfrwt beam="1">  1        1 0.10407523E+00 0.19389445E+04</pdfrwt>
<pdfrwt beam="2">  1       -1 0.21374534E+00 0.19389445E+04</pdfrwt>
<totfact> 0.32436783E+00</totfact>
</mgrwt>
</event>
<event>
12    1  0.1431713E-007  0.1448237E+04  0.7818608E-02  0.8919624E-01
          2   -1    0    0  501    0  0.00000000000E+00  0.00000000000E+00  0.18184393884E+04  0.18184393884E+04  0.00000000000E+00 0. -1.
         -2   -1    0    0    0  501 -0.00000000000E+00 -0.00000000000E+00 -0.28835025534E+03  0.28835025534E+03  0.00000000000E+00 0.  1.
         23    2    1    2    0    0  0.27730261740E+03  0.29111909445E+03  0.68026016108E+03  0.79553457267E+03  0.92055965508E+02 0.  0.
        254    2    1    2    0    0 -0.27730261740E+03 -0.29111909445E+03  0.84982897199E+03  0.13112550711E+04  0.91407522178E+03 0.  0.
        -24    2    4    4    0    0 -0.57019105673E+03 -0.13543848685E+03  0.29780982539E+03  0.66227595002E+03  0.80357432605E+02 0.  0.
         24    2    4    4    0    0  0.29288843934E+03 -0.15568060760E+03  0.55201914660E+03  0.64897912108E+03  0.80178999118E+02 0.  0.
         11    1    3    3    0    0  0.41681900981E+02  0.33377811705E+02  0.41803721494E+02  0.67816003380E+02  0.00000000000E+00 0. -1.
        -11    1    3    3    0    0  0.23562071642E+03  0.25774128274E+03  0.63845643959E+03  0.72771856929E+03  0.00000000000E+00 0.  1.
          2    1    6    6  502    0  0.22858386174E+02  0.40859950391E+01  0.17113975137E+02  0.28845958451E+02  0.00000000000E+00 0. -1.
          1    1    5    5  503    0 -0.94393934192E+02 -0.48282919879E+02  0.73986432070E+02  0.12928823340E+03  0.00000000000E+00 0. -1.
         -2    1    5    5    0  503 -0.47579712254E+03 -0.87155566971E+02  0.22382339332E+03  0.53298771662E+03  0.00000000000E+00 0.  1.
         -1    1    6    6    0  502  0.27003005316E+03 -0.15976660264E+03  0.53490517146E+03  0.62013316262E+03  0.00000000000E+00 0.  1.
<mgrwt>
<rscale>  0 0.14482368E+04</rscale>
<asrwt>0</asrwt>
<pdfrwt beam="1">  1        2 0.27975990E+00 0.14482368E+04</pdfrwt>
<pdfrwt beam="2">  1       -2 0.44361579E-01 0.14482368E+04</pdfrwt>
<totfact> 0.39392359E+01</totfact>
</mgrwt>
</event>
<event>
12    1  0.1397649E-007  0.1667388E+04  0.7818608E-02  0.8780186E-01
          1   -1    0    0  501    0  0.00000000000E+00  0.00000000000E+00  0.60494186011E+03  0.60494186011E+03  0.00000000000E+00 0. -1.
         -1   -1    0    0    0  501 -0.00000000000E+00 -0.00000000000E+00 -0.11489457460E+04  0.11489457460E+04  0.00000000000E+00 0.  1.
         23    2    1    2    0    0  0.51897855012E+03  0.15929043741E+03 -0.42437882915E+03  0.69486712495E+03  0.89614461888E+02 0.  0.
        254    2    1    2    0    0 -0.51897855012E+03 -0.15929043741E+03 -0.11962505675E+03  0.10590204812E+04  0.90138895400E+03 0.  0.
        -24    2    4    4    0    0  0.29816463437E+02 -0.31556303886E+03 -0.31166260501E+03  0.45177823007E+03  0.80628387177E+02 0.  0.
         24    2    4    4    0    0 -0.54879501356E+03  0.15627260145E+03  0.19203754827E+03  0.60724225109E+03  0.79168419824E+02 0.  0.
         11    1    3    3    0    0  0.12013172375E+03  0.40435564415E+02 -0.14998324690E+03  0.19637117984E+03  0.00000000000E+00 0. -1.
        -11    1    3    3    0    0  0.39884682637E+03  0.11885487299E+03 -0.27439558225E+03  0.49849594511E+03  0.00000000000E+00 0.  1.
          4    1    6    6  502    0 -0.33009357468E+03  0.55296163724E+02  0.12408093263E+03  0.35695309441E+03  0.00000000000E+00 0. -1.
          3    1    5    5  503    0  0.14227381637E+01 -0.20515838812E+03 -0.24561669424E+03  0.32003054368E+03  0.00000000000E+00 0. -1.
         -4    1    5    5    0  503  0.28393725274E+02 -0.11040465074E+03 -0.66045910774E+02  0.13174768639E+03  0.00000000000E+00 0.  1.
         -3    1    6    6    0  502 -0.21870143887E+03  0.10097643773E+03  0.67956615641E+02  0.25028915668E+03  0.00000000000E+00 0.  1.
<mgrwt>
<rscale>  0 0.16673876E+04</rscale>
<asrwt>0</asrwt>
<pdfrwt beam="1">  1        1 0.93067979E-01 0.16673876E+04</pdfrwt>
<pdfrwt beam="2">  1       -1 0.17676088E+00 0.16673876E+04</pdfrwt>
<totfact> 0.70916217E+00</totfact>
</mgrwt>
</event>
<event>
12    1  0.1397649E-007  0.1656940E+04  0.7818608E-02  0.8786312E-01
         -1   -1    0    0    0  501 -0.00000000000E+00  0.00000000000E+00  0.56823489484E+03  0.56823489484E+03  0.00000000000E+00 0.  1.
          1   -1    0    0  501    0  0.00000000000E+00 -0.00000000000E+00 -0.12078848519E+04  0.12078848519E+04  0.00000000000E+00 0. -1.
         23    2    1    2    0    0  0.19571407364E+03 -0.33770361135E+03  0.22947982877E+03  0.46455233633E+03  0.10392378762E+03 0.  0.
        254    2    1    2    0    0 -0.19571407364E+03  0.33770361135E+03 -0.86912978587E+03  0.13115674104E+04  0.90137381797E+03 0.  0.
        -24    2    4    4    0    0 -0.30004654781E+03  0.26642386767E+03 -0.10201128696E+04  0.10990849137E+04  0.79672909733E+02 0.  0.
         24    2    4    4    0    0  0.10433247416E+03  0.71279743675E+02  0.15098308377E+03  0.21248249677E+03  0.79917787927E+02 0.  0.
         13    1    3    3    0    0  0.52970192844E+02 -0.17028604219E+03  0.64824431323E+02  0.18975084820E+03  0.00000000000E+00 0. -1.
        -13    1    3    3    0    0  0.14274388080E+03 -0.16741756916E+03  0.16465539745E+03  0.27480148813E+03  0.00000000000E+00 0.  1.
          4    1    6    6  502    0  0.10678224119E+03  0.37446434312E+02  0.98675063720E+02  0.15013810535E+03  0.00000000000E+00 0. -1.
          1    1    5    5  503    0 -0.27347866593E+03  0.21635850230E+03 -0.81922244122E+03  0.89035217214E+03  0.00000000000E+00 0. -1.
         -2    1    5    5    0  503 -0.26567881871E+02  0.50065365373E+02 -0.20089042842E+03  0.20873274153E+03  0.00000000000E+00 0.  1.
         -3    1    6    6    0  502 -0.24497670287E+01  0.33833309363E+02  0.52308020051E+02  0.62344391429E+02  0.00000000000E+00 0.  1.
<mgrwt>
<rscale>  0 0.16569397E+04</rscale>
<asrwt>0</asrwt>
<pdfrwt beam="1">  1        1 0.18582844E+00 0.16569397E+04</pdfrwt>
<pdfrwt beam="2">  1       -1 0.87420753E-01 0.16569397E+04</pdfrwt>
<totfact> 0.12969649E+01</totfact>
</mgrwt>
</event>
<event>
12    1  0.1397649E-007  0.4178587E+04  0.7818608E-02  0.7969458E-01
          2   -1    0    0  501    0  0.00000000000E+00  0.00000000000E+00  0.18887952056E+04  0.18887952056E+04  0.00000000000E+00 0. -1.
         -2   -1    0    0    0  501 -0.00000000000E+00 -0.00000000000E+00 -0.23110751427E+04  0.23110751427E+04  0.00000000000E+00 0.  1.
         23    2    1    2    0    0  0.15653702772E+03 -0.11106842089E+02  0.17943832262E+04  0.18035870395E+04  0.92129494971E+02 0.  0.
        254    2    1    2    0    0 -0.15653702772E+03  0.11106842089E+02 -0.22166631633E+04  0.23962833088E+04  0.89663309844E+03 0.  0.
        -24    2    4    4    0    0 -0.38694635406E+03  0.27497412586E+02 -0.40058267535E+03  0.56378350651E+03  0.83076914988E+02 0.  0.
         24    2    4    4    0    0  0.23040932634E+03 -0.16390570497E+02 -0.18160804880E+04  0.18324998023E+04  0.80932552103E+02 0.  0.
         11    1    3    3    0    0  0.18427719890E+02 -0.34533627584E+02  0.53702088876E+03  0.53844552859E+03  0.00000000000E+00 0.  1.
        -11    1    3    3    0    0  0.13810930783E+03  0.23426785496E+02  0.12573623374E+04  0.12651415109E+04  0.00000000000E+00 0. -1.
          2    1    6    6  502    0  0.20216495794E+03 -0.37756983290E+02 -0.16439060776E+04  0.16567206922E+04  0.00000000000E+00 0. -1.
          1    1    5    5  503    0 -0.31957487476E+03 -0.89624964237E+01 -0.31272998604E+03  0.44722306636E+03  0.00000000000E+00 0. -1.
         -2    1    5    5    0  503 -0.67371479300E+02  0.36459909010E+02 -0.87852689316E+02  0.11656044015E+03  0.00000000000E+00 0.  1.
         -1    1    6    6    0  502  0.28244368405E+02  0.21366412792E+02 -0.17217441040E+03  0.17577911007E+03  0.00000000000E+00 0.  1.
<mgrwt>
<rscale>  0 0.41785872E+04</rscale>
<asrwt>0</asrwt>
<pdfrwt beam="1">  1        2 0.29058388E+00 0.41785872E+04</pdfrwt>
<pdfrwt beam="2">  1       -2 0.35555002E+00 0.41785872E+04</pdfrwt>
<totfact> 0.85944712E-02</totfact>
</mgrwt>
</event>
<event>
12    1  0.1397649E-007  0.2351421E+04  0.7818608E-02  0.8457918E-01
          2   -1    0    0  501    0  0.00000000000E+00  0.00000000000E+00  0.26193055555E+04  0.26193055555E+04  0.00000000000E+00 0. -1.
         -2   -1    0    0    0  501 -0.00000000000E+00 -0.00000000000E+00 -0.52773338906E+03  0.52773338906E+03  0.00000000000E+00 0.  1.
         23    2    1    2    0    0  0.15735369310E+03  0.99026899833E+03  0.97513747887E+03  0.14017470676E+04  0.92783969277E+02 0.  0.
        254    2    1    2    0    0 -0.15735369310E+03 -0.99026899833E+03  0.11164346875E+04  0.17452918770E+04  0.89119271233E+03 0.  0.
        -24    2    4    4    0    0 -0.87384013248E+02  0.94950193542E+02  0.43235296424E+03  0.45800307402E+03  0.78652559380E+02 0.  0.
         24    2    4    4    0    0 -0.69969679856E+02 -0.10852191919E+04  0.68408172331E+03  0.12872888030E+04  0.80920995806E+02 0.  0.
         11    1    3    3    0    0  0.15548345749E+03  0.98637673813E+03  0.97702916414E+03  0.13970326276E+04  0.00000000000E+00 0.  1.
        -11    1    3    3    0    0  0.18702356168E+01  0.38922601954E+01 -0.18916852777E+01  0.47144399329E+01  0.00000000000E+00 0. -1.
          2    1    6    6  502    0 -0.29614222213E+02 -0.11170801664E+03  0.60046534209E+02  0.13023543838E+03  0.00000000000E+00 0. -1.
          3    1    5    5  503    0 -0.65802749962E+02  0.17622366349E+02  0.15600329473E+03  0.17022801668E+03  0.00000000000E+00 0. -1.
         -4    1    5    5    0  503 -0.21581263286E+02  0.77327827193E+02  0.27634966952E+03  0.28777505734E+03  0.00000000000E+00 0.  1.
         -1    1    6    6    0  502 -0.40355457643E+02 -0.97351117522E+03  0.62403518910E+03  0.11570533646E+04  0.00000000000E+00 0.  1.
<mgrwt>
<rscale>  0 0.23514208E+04</rscale>
<asrwt>0</asrwt>
<pdfrwt beam="1">  1        2 0.40297008E+00 0.23514208E+04</pdfrwt>
<pdfrwt beam="2">  1       -2 0.81189754E-01 0.23514208E+04</pdfrwt>
<totfact> 0.35787107E+00</totfact>
</mgrwt>
</event>
<event>
12    1  0.1397649E-007  0.1857895E+04  0.7818608E-02  0.8676103E-01
          2   -1    0    0  501    0  0.00000000000E+00  0.00000000000E+00  0.18211475932E+04  0.18211475932E+04  0.00000000000E+00 0. -1.
         -2   -1    0    0    0  501 -0.00000000000E+00 -0.00000000000E+00 -0.47384610524E+03  0.47384610524E+03  0.00000000000E+00 0.  1.
         23    2    1    2    0    0  0.11800536276E+03  0.34045168739E+01 -0.34174462326E+03  0.37259921341E+03  0.90021830306E+02 0.  0.
        254    2    1    2    0    0 -0.11800536276E+03 -0.34045168739E+01  0.16890461112E+04  0.19223944850E+04  0.91037735793E+03 0.  0.
        -24    2    4    4    0    0 -0.23515262158E+03  0.12593296556E+03  0.17055904422E+04  0.17282023245E+04  0.80552161414E+02 0.  0.
         24    2    4    4    0    0  0.11714725882E+03 -0.12933748243E+03 -0.16544330997E+02  0.19419216048E+03  0.83577602822E+02 0.  0.
         11    1    3    3    0    0 -0.44721686678E+01  0.10046256469E+01  0.38182402723E+01  0.59656117926E+01  0.00000000000E+00 0. -1.
        -11    1    3    3    0    0  0.12247753143E+03  0.23998912269E+01 -0.34556286353E+03  0.36663360162E+03  0.00000000000E+00 0.  1.
          2    1    6    6  502    0  0.36756017469E+02  0.21495723650E+01  0.91762879134E+01  0.37945088501E+02  0.00000000000E+00 0. -1.
          3    1    5    5  503    0 -0.89491379362E+02  0.92188478461E+02  0.84726906880E+03  0.85695524824E+03  0.00000000000E+00 0. -1.
         -4    1    5    5    0  503 -0.14566124222E+03  0.33744487098E+02  0.85832137338E+03  0.87124707626E+03  0.00000000000E+00 0.  1.
         -1    1    6    6    0  502  0.80391241352E+02 -0.13148705480E+03 -0.25720618910E+02  0.15624707198E+03  0.00000000000E+00 0.  1.
<mgrwt>
<rscale>  0 0.18578953E+04</rscale>
<asrwt>0</asrwt>
<pdfrwt beam="1">  1        2 0.28017655E+00 0.18578953E+04</pdfrwt>
<pdfrwt beam="2">  1       -2 0.72899402E-01 0.18578953E+04</pdfrwt>
<totfact> 0.13418739E+01</totfact>
</mgrwt>
</event>
<event>
12    1  0.1397649E-007  0.2240306E+04  0.7818608E-02  0.8501837E-01
         -1   -1    0    0    0  501 -0.00000000000E+00  0.00000000000E+00  0.37535742573E+03  0.37535742573E+03  0.00000000000E+00 0.  1.
          1   -1    0    0  501    0  0.00000000000E+00 -0.00000000000E+00 -0.33427937904E+04  0.33427937904E+04  0.00000000000E+00 0. -1.
         23    2    1    2    0    0  0.23922447308E+03 -0.66327868039E+03 -0.21992775993E+03  0.74426975507E+03  0.91664018810E+02 0.  0.
        254    2    1    2    0    0 -0.23922447308E+03  0.66327868039E+03 -0.27475086048E+04  0.29738814611E+04  0.89330871200E+03 0.  0.
        -24    2    4    4    0    0 -0.12715891142E+03  0.63798670334E+03 -0.86001506766E+03  0.10809561268E+04  0.75125288789E+02 0.  0.
         24    2    4    4    0    0 -0.11206556166E+03  0.25291977055E+02 -0.18874935371E+04  0.18929253343E+04  0.85651003769E+02 0.  0.
         13    1    3    3    0    0  0.28569960715E+02 -0.26078936035E+02 -0.23114741695E+01  0.38751728643E+02  0.00000000000E+00 0. -1.
        -13    1    3    3    0    0  0.21065451237E+03 -0.63719974436E+03 -0.21761628577E+03  0.70551802643E+03  0.00000000000E+00 0.  1.
          2    1    6    6  502    0 -0.67137843724E+02  0.31552145125E+02 -0.16133202277E+04  0.16150248249E+04  0.00000000000E+00 0. -1.
          1    1    5    5  503    0 -0.13726872016E+03  0.58234927161E+03 -0.78506021974E+03  0.98706277627E+03  0.00000000000E+00 0. -1.
         -4    1    5    5    0  503  0.10109808738E+02  0.55637431731E+02 -0.74954847920E+02  0.93893350505E+02  0.00000000000E+00 0.  1.
         -1    1    6    6    0  502 -0.44927717937E+02 -0.62601680699E+01 -0.27417330944E+03  0.27790050945E+03  0.00000000000E+00 0.  1.
<mgrwt>
<rscale>  0 0.22403058E+04</rscale>
<asrwt>0</asrwt>
<pdfrwt beam="1">  1        1 0.51427595E+00 0.22403058E+04</pdfrwt>
<pdfrwt beam="2">  1       -1 0.57747298E-01 0.22403058E+04</pdfrwt>
<totfact> 0.91565183E-01</totfact>
</mgrwt>
</event>
<event>
12    1  0.1397649E-007  0.1439018E+04  0.7818608E-02  0.8926050E-01
          2   -1    0    0  501    0  0.00000000000E+00  0.00000000000E+00  0.12511051153E+04  0.12511051153E+04  0.00000000000E+00 0. -1.
         -2   -1    0    0    0  501 -0.00000000000E+00 -0.00000000000E+00 -0.41378870781E+03  0.41378870781E+03  0.00000000000E+00 0.  1.
         23    2    1    2    0    0  0.60648874708E+02 -0.16973612865E+03 -0.20325039535E+03  0.28250742953E+03  0.77531188298E+02 0.  0.
        254    2    1    2    0    0 -0.60648874708E+02  0.16973612865E+03  0.10405668029E+04  0.13823863936E+04  0.89203376093E+03 0.  0.
        -24    2    4    4    0    0  0.17035235141E+02 -0.17155368462E+03 -0.78644809152E+02  0.20690601859E+03  0.83091687801E+02 0.  0.
         24    2    4    4    0    0 -0.77684109849E+02  0.34128981326E+03  0.11192116120E+04  0.11754803750E+04  0.81276823280E+02 0.  0.
         13    1    3    3    0    0  0.16503232748E+02 -0.14434206471E+03 -0.15114080216E+03  0.20964381797E+03  0.00000000000E+00 0.  1.
        -13    1    3    3    0    0  0.44145641960E+02 -0.25394063940E+02 -0.52109593194E+02  0.72863611565E+02  0.00000000000E+00 0. -1.
          4    1    6    6  502    0 -0.50213759200E+02  0.21321316854E+03  0.82196779221E+03  0.85065405911E+03  0.00000000000E+00 0. -1.
          1    1    5    5  503    0 -0.72414168469E+01 -0.21766061086E+02 -0.46421928434E+02  0.51780256592E+02  0.00000000000E+00 0. -1.
         -2    1    5    5    0  503  0.24276651988E+02 -0.14978762353E+03 -0.32222880718E+02  0.15512576200E+03  0.00000000000E+00 0.  1.
         -3    1    6    6    0  502 -0.27470350649E+02  0.12807664472E+03  0.29724381982E+03  0.32482631591E+03  0.00000000000E+00 0.  1.
<mgrwt>
<rscale>  0 0.14390180E+04</rscale>
<asrwt>0</asrwt>
<pdfrwt beam="1">  1        2 0.19247771E+00 0.14390180E+04</pdfrwt>
<pdfrwt beam="2">  1       -2 0.63659801E-01 0.14390180E+04</pdfrwt>
<totfact> 0.39134348E+01</totfact>
</mgrwt>
</event>
<event>
12    1  0.1397649E-007  0.2563679E+04  0.7818608E-02  0.8380644E-01
          2   -1    0    0  501    0  0.00000000000E+00  0.00000000000E+00  0.80595260637E+03  0.80595260637E+03  0.00000000000E+00 0. -1.
         -2   -1    0    0    0  501 -0.00000000000E+00 -0.00000000000E+00 -0.20387214941E+04  0.20387214941E+04  0.00000000000E+00 0.  1.
         23    2    1    2    0    0 -0.28507543833E+03  0.76858974409E+03  0.30598398054E+03  0.88000280723E+03  0.93704557623E+02 0.  0.
        254    2    1    2    0    0  0.28507543833E+03 -0.76858974409E+03 -0.15387528683E+04  0.19646712932E+04  0.90563497096E+03 0.  0.
        -24    2    4    4    0    0  0.41434684637E+03 -0.86275632763E+03 -0.95681210696E+03  0.13557551253E+04  0.80936776048E+02 0.  0.
         24    2    4    4    0    0 -0.12927140804E+03  0.94166583538E+02 -0.58194076130E+03  0.60891616796E+03  0.80903693077E+02 0.  0.
         13    1    3    3    0    0 -0.22740636734E+03  0.61268030692E+03  0.20243795169E+03  0.68415783170E+03  0.00000000000E+00 0. -1.
        -13    1    3    3    0    0 -0.57669070994E+02  0.15590943717E+03  0.10354602885E+03  0.19584497553E+03  0.00000000000E+00 0.  1.
          2    1    6    6  502    0 -0.61551260440E+02  0.67247568657E+02 -0.44018070846E+03  0.44952180064E+03  0.00000000000E+00 0. -1.
          1    1    5    5  503    0  0.24348608716E+03 -0.49439098797E+03 -0.49445346509E+03  0.74039999512E+03  0.00000000000E+00 0. -1.
         -4    1    5    5    0  503  0.17086075921E+03 -0.36836533966E+03 -0.46235864187E+03  0.61535513016E+03  0.00000000000E+00 0.  1.
         -1    1    6    6    0  502 -0.67720147596E+02  0.26919014882E+02 -0.14176005285E+03  0.15939436733E+03  0.00000000000E+00 0.  1.
<mgrwt>
<rscale>  0 0.25636793E+04</rscale>
<asrwt>0</asrwt>
<pdfrwt beam="1">  1        2 0.12399271E+00 0.25636793E+04</pdfrwt>
<pdfrwt beam="2">  1       -2 0.31364946E+00 0.25636793E+04</pdfrwt>
<totfact> 0.79310902E-01</totfact>
</mgrwt>
</event>
<event>
12    1  0.1397649E-007  0.1694866E+04  0.7818608E-02  0.8764298E-01
          2   -1    0    0  501    0  0.00000000000E+00  0.00000000000E+00  0.15495910919E+04  0.15495910919E+04  0.00000000000E+00 0. -1.
         -2   -1    0    0    0  501 -0.00000000000E+00 -0.00000000000E+00 -0.46344035292E+03  0.46344035292E+03  0.00000000000E+00 0.  1.
         23    2    1    2    0    0  0.36067171584E+03  0.14306489899E+02  0.97779626660E+03  0.10452849033E+04  0.79033079999E+02 0.  0.
        254    2    1    2    0    0 -0.36067171584E+03 -0.14306489899E+02  0.10835447236E+03  0.96774654155E+03  0.89134949079E+03 0.  0.
        -24    2    4    4    0    0 -0.16573197571E+03  0.34742679672E+03  0.31156569452E+03  0.50234730881E+03  0.84304031991E+02 0.  0.
         24    2    4    4    0    0 -0.19493974013E+03 -0.36173328662E+03 -0.20321122217E+03  0.46539923274E+03  0.80306737498E+02 0.  0.
         11    1    3    3    0    0  0.25601783999E+03 -0.26047233416E+02  0.67919563797E+03  0.72631281649E+03  0.00000000000E+00 0. -1.
        -11    1    3    3    0    0  0.10465387585E+03  0.40353723315E+02  0.29860062863E+03  0.31897208677E+03  0.00000000000E+00 0.  1.
          2    1    6    6  502    0 -0.11952987666E+03 -0.29252364907E+03 -0.14543486509E+03  0.34786315795E+03  0.00000000000E+00 0. -1.
          1    1    5    5  503    0 -0.14524922823E+03  0.21137165617E+03  0.20292370077E+03  0.32703722062E+03  0.00000000000E+00 0. -1.
         -2    1    5    5    0  503 -0.20482747472E+02  0.13605514055E+03  0.10864199375E+03  0.17531008819E+03  0.00000000000E+00 0.  1.
         -1    1    6    6    0  502 -0.75409863471E+02 -0.69209637556E+02 -0.57776357074E+02  0.11753607479E+03  0.00000000000E+00 0.  1.
<mgrwt>
<rscale>  0 0.16948664E+04</rscale>
<asrwt>0</asrwt>
<pdfrwt beam="1">  1        2 0.23839863E+00 0.16948664E+04</pdfrwt>
<pdfrwt beam="2">  1       -2 0.71298516E-01 0.16948664E+04</pdfrwt>
<totfact> 0.20229278E+01</totfact>
</mgrwt>
</event>
<event>
12    1  0.1397649E-007  0.1331122E+04  0.7818608E-02  0.9005243E-01
          2   -1    0    0  501    0  0.00000000000E+00  0.00000000000E+00  0.53354959231E+03  0.53354959231E+03  0.00000000000E+00 0. -1.
         -2   -1    0    0    0  501 -0.00000000000E+00 -0.00000000000E+00 -0.83023501707E+03  0.83023501707E+03  0.00000000000E+00 0.  1.
         23    2    1    2    0    0  0.12174877487E+03 -0.28529882143E+03  0.74327245209E+02  0.33224015648E+03  0.92955906253E+02 0.  0.
        254    2    1    2    0    0 -0.12174877487E+03  0.28529882143E+03 -0.37101266997E+03  0.10315444529E+04  0.91116155282E+03 0.  0.
        -24    2    4    4    0    0  0.10346894832E+03 -0.21046126339E+02 -0.57680348688E+03  0.59155858710E+03  0.78041891298E+02 0.  0.
         24    2    4    4    0    0 -0.22521772318E+03  0.30634494777E+03  0.20579081691E+03  0.43998586580E+03  0.81654466605E+02 0.  0.
         13    1    3    3    0    0 -0.43388805974E+01 -0.81448691762E+02  0.37357682297E+02  0.89712383210E+02  0.00000000000E+00 0.  1.
        -13    1    3    3    0    0  0.12608765546E+03 -0.20385012967E+03  0.36969562913E+02  0.24252777327E+03  0.00000000000E+00 0. -1.
          4    1    6    6  502    0 -0.20677903326E+02  0.22324722703E+01  0.20925192373E+02  0.29502937044E+02  0.00000000000E+00 0. -1.
          1    1    5    5  503    0  0.85304411270E+02  0.10341502386E+02 -0.28974282307E+03  0.30221630131E+03  0.00000000000E+00 0. -1.
         -2    1    5    5    0  503  0.18164537045E+02 -0.31387628726E+02 -0.28706066381E+03  0.28934228580E+03  0.00000000000E+00 0.  1.
         -3    1    6    6    0  502 -0.20453981986E+03  0.30411247550E+03  0.18486562454E+03  0.41048292875E+03  0.00000000000E+00 0.  1.
<mgrwt>
<rscale>  0 0.13311222E+04</rscale>
<asrwt>0</asrwt>
<pdfrwt beam="1">  1        2 0.82084553E-01 0.13311222E+04</pdfrwt>
<pdfrwt beam="2">  1       -2 0.12772846E+00 0.13311222E+04</pdfrwt>
<totfact> 0.25334463E+01</totfact>
</mgrwt>
</event>
<event>
12    1  0.1397649E-007  0.1932082E+04  0.7818608E-02  0.8639050E-01
          1   -1    0    0  501    0  0.00000000000E+00  0.00000000000E+00  0.94189612114E+03  0.94189612114E+03  0.00000000000E+00 0. -1.
         -1   -1    0    0    0  501 -0.00000000000E+00 -0.00000000000E+00 -0.99080518021E+03  0.99080518021E+03  0.00000000000E+00 0.  1.
         23    2    1    2    0    0 -0.83288622246E+02 -0.38354552455E+03  0.62346413914E+03  0.74452300792E+03  0.10753051904E+03 0.  0.
        254    2    1    2    0    0  0.83288622246E+02  0.38354552455E+03 -0.67237319821E+03  0.11881782934E+04  0.89757327016E+03 0.  0.
        -24    2    4    4    0    0  0.14096023613E+03  0.13627101615E+03  0.19068319174E+03  0.28477239884E+03  0.79345204760E+02 0.  0.
         24    2    4    4    0    0 -0.57671613884E+02  0.24727450840E+03 -0.86305638995E+03  0.90340589459E+03  0.82493518390E+02 0.  0.
         11    1    3    3    0    0 -0.67449766305E+02 -0.37763470937E+03  0.61678036370E+03  0.72634390046E+03  0.00000000000E+00 0. -1.
        -11    1    3    3    0    0 -0.15838855941E+02 -0.59108151789E+01  0.66837754395E+01  0.18179107452E+02  0.00000000000E+00 0.  1.
          2    1    6    6  502    0 -0.13485479871E+02  0.17296543503E+03 -0.66586359993E+03  0.68809391335E+03  0.00000000000E+00 0. -1.
          3    1    5    5  503    0 -0.24658008950E+00  0.38849932882E+02  0.24522238555E+02  0.45942554026E+02  0.00000000000E+00 0. -1.
         -4    1    5    5    0  503  0.14120681622E+03  0.97421083264E+02  0.16616095319E+03  0.23882984482E+03  0.00000000000E+00 0.  1.
         -1    1    6    6    0  502 -0.44186134013E+02  0.74309073369E+02 -0.19719279003E+03  0.21531198123E+03  0.00000000000E+00 0.  1.
<mgrwt>
<rscale>  0 0.19320824E+04</rscale>
<asrwt>0</asrwt>
<pdfrwt beam="1">  1        1 0.14490710E+00 0.19320824E+04</pdfrwt>
<pdfrwt beam="2">  1       -1 0.15243157E+00 0.19320824E+04</pdfrwt>
<totfact> 0.52440716E+00</totfact>
</mgrwt>
</event>
<event>
12    1  0.1397649E-007  0.2967403E+04  0.7818608E-02  0.8253101E-01
          2   -1    0    0  501    0  0.00000000000E+00  0.00000000000E+00  0.36617075205E+04  0.36617075205E+04  0.00000000000E+00 0. -1.
         -2   -1    0    0    0  501 -0.00000000000E+00 -0.00000000000E+00 -0.60118670908E+03  0.60118670908E+03  0.00000000000E+00 0.  1.
         23    2    1    2    0    0 -0.13421424647E+04 -0.13992602862E+03  0.16166097126E+04  0.21077424807E+04  0.90695716411E+02 0.  0.
        254    2    1    2    0    0  0.13421424647E+04  0.13992602862E+03  0.14439110988E+04  0.21551517489E+04  0.85957786772E+03 0.  0.
        -24    2    4    4    0    0 -0.86571830582E+02  0.12023084311E+03  0.15180245625E+03  0.22703866465E+03  0.80947094077E+02 0.  0.
         24    2    4    4    0    0  0.14287142952E+04  0.19695185512E+02  0.12921086426E+04  0.19281130843E+04  0.80392062861E+02 0.  0.
         13    1    3    3    0    0 -0.67916476462E+03 -0.50072812855E+02  0.75250675598E+03  0.10149081150E+04  0.00000000000E+00 0.  1.
        -13    1    3    3    0    0 -0.66297770003E+03 -0.89853215765E+02  0.86410295667E+03  0.10928343657E+04  0.00000000000E+00 0. -1.
          2    1    6    6  502    0  0.52776073572E+03  0.14689944944E+02  0.42660340122E+03  0.67877658371E+03  0.00000000000E+00 0. -1.
          3    1    5    5  503    0 -0.28254777013E+02  0.82167488868E+02  0.40782112469E+02  0.95984422426E+02  0.00000000000E+00 0. -1.
         -4    1    5    5    0  503 -0.58317053569E+02  0.38063354240E+02  0.11102034378E+03  0.13105424223E+03  0.00000000000E+00 0.  1.
         -1    1    6    6    0  502  0.90095355951E+03  0.50052405675E+01  0.86550524134E+03  0.12493365006E+04  0.00000000000E+00 0.  1.
<mgrwt>
<rscale>  0 0.29674028E+04</rscale>
<asrwt>0</asrwt>
<pdfrwt beam="1">  1        2 0.56333961E+00 0.29674028E+04</pdfrwt>
<pdfrwt beam="2">  1       -2 0.92490265E-01 0.29674028E+04</pdfrwt>
<totfact> 0.52995350E-01</totfact>
</mgrwt>
</event>
<event>
12    1  0.1397649E-007  0.3129907E+04  0.7818608E-02  0.8207578E-01
          2   -1    0    0  501    0  0.00000000000E+00  0.00000000000E+00  0.85265187156E+03  0.85265187156E+03  0.00000000000E+00 0. -1.
         -2   -1    0    0    0  501 -0.00000000000E+00 -0.00000000000E+00 -0.28723088458E+04  0.28723088458E+04  0.00000000000E+00 0.  1.
         23    2    1    2    0    0 -0.76314368499E+03 -0.10304865744E+04 -0.16256496301E+03  0.12959348253E+04  0.93428262137E+02 0.  0.
        254    2    1    2    0    0  0.76314368499E+03  0.10304865744E+04 -0.18570920112E+04  0.24290258920E+04  0.89837919732E+03 0.  0.
        -24    2    4    4    0    0  0.34770857881E+03  0.67770339231E+03 -0.16864905901E+04  0.18522136541E+04  0.79131323354E+02 0.  0.
         24    2    4    4    0    0  0.41543510618E+03  0.35278318211E+03 -0.17060142115E+03  0.57681223796E+03  0.81025995429E+02 0.  0.
         13    1    3    3    0    0 -0.31141479721E+03 -0.44521756878E+03 -0.24808778297E+02  0.54388724471E+03  0.00000000000E+00 0. -1.
        -13    1    3    3    0    0 -0.45172888778E+03 -0.58526900564E+03 -0.13775618471E+03  0.75204758057E+03  0.00000000000E+00 0.  1.
          2    1    6    6  502    0  0.75766302249E+02  0.82369859384E+02 -0.67069851983E+02  0.13047486860E+03  0.00000000000E+00 0. -1.
          1    1    5    5  503    0  0.10070706104E+03  0.17699631612E+03 -0.37256891424E+03  0.42459063098E+03  0.00000000000E+00 0. -1.
         -2    1    5    5    0  503  0.24700151778E+03  0.50070707619E+03 -0.13139216758E+04  0.14276230231E+04  0.00000000000E+00 0.  1.
         -1    1    6    6    0  502  0.33966880393E+03  0.27041332273E+03 -0.10353156916E+03  0.44633736936E+03  0.00000000000E+00 0.  1.
<mgrwt>
<rscale>  0 0.31299070E+04</rscale>
<asrwt>0</asrwt>
<pdfrwt beam="1">  1        2 0.13117721E+00 0.31299070E+04</pdfrwt>
<pdfrwt beam="2">  1       -2 0.44189366E+00 0.31299070E+04</pdfrwt>
<totfact> 0.10497255E-01</totfact>
</mgrwt>
</event>
<event>
12    1  0.1397649E-007  0.1546689E+04  0.7818608E-02  0.8853986E-01
          1   -1    0    0  501    0  0.00000000000E+00  0.00000000000E+00  0.59556687633E+03  0.59556687633E+03  0.00000000000E+00 0. -1.
         -1   -1    0    0    0  501 -0.00000000000E+00 -0.00000000000E+00 -0.10041887545E+04  0.10041887545E+04  0.00000000000E+00 0.  1.
         23    2    1    2    0    0 -0.50348266019E+03 -0.63494416526E+02 -0.37367765826E+03  0.63688750128E+03  0.92001994335E+02 0.  0.
        254    2    1    2    0    0  0.50348266019E+03  0.63494416526E+02 -0.34944219961E+02  0.96286812960E+03  0.81753752601E+03 0.  0.
        -24    2    4    4    0    0 -0.19906391085E+03  0.12784828275E+03 -0.45035581969E+02  0.25289518761E+03  0.77176086141E+02 0.  0.
         24    2    4    4    0    0  0.70254657104E+03 -0.64353866221E+02  0.10091362008E+02  0.70997294198E+03  0.79035676640E+02 0.  0.
         13    1    3    3    0    0 -0.19271740732E+03 -0.55494616647E+02 -0.10700100624E+03  0.22730786809E+03  0.00000000000E+00 0. -1.
        -13    1    3    3    0    0 -0.31076525288E+03 -0.79997998792E+01 -0.26667665201E+03  0.40957963319E+03  0.00000000000E+00 0.  1.
          2    1    6    6  502    0  0.23527051486E+02  0.19458523652E+01  0.14509898244E+02  0.27710027790E+02  0.00000000000E+00 0. -1.
          3    1    5    5  503    0 -0.95950667312E+02  0.17428676806E+02 -0.12106205173E+02  0.98269270560E+02  0.00000000000E+00 0. -1.
         -4    1    5    5    0  503 -0.10311324354E+03  0.11041960594E+03 -0.32929376795E+02  0.15462591705E+03  0.00000000000E+00 0.  1.
         -1    1    6    6    0  502  0.67901951955E+03 -0.66299718586E+02 -0.44185362360E+01  0.68226291419E+03  0.00000000000E+00 0.  1.
<mgrwt>
<rscale>  0 0.15466888E+04</rscale>
<asrwt>0</asrwt>
<pdfrwt beam="1">  1        1 0.91625675E-01 0.15466888E+04</pdfrwt>
<pdfrwt beam="2">  1       -1 0.15449058E+00 0.15466888E+04</pdfrwt>
<totfact> 0.10743289E+01</totfact>
</mgrwt>
</event>
<event>
12    1  0.1397649E-007  0.2105593E+04  0.7818608E-02  0.8558784E-01
         -2   -1    0    0    0  501 -0.00000000000E+00  0.00000000000E+00  0.11292778660E+04  0.11292778660E+04  0.00000000000E+00 0. -1.
          2   -1    0    0  501    0  0.00000000000E+00 -0.00000000000E+00 -0.98149473410E+03  0.98149473410E+03  0.00000000000E+00 0.  1.
         23    2    1    2    0    0 -0.81438908356E+03  0.79873087761E+01 -0.21505686279E+03  0.84676462752E+03  0.86414718993E+02 0.  0.
        254    2    1    2    0    0  0.81438908356E+03 -0.79873087761E+01  0.36283999465E+03  0.12640079725E+04  0.89597428333E+03 0.  0.
        -24    2    4    4    0    0  0.20040889041E+03 -0.36310414172E+03  0.35079022611E+03  0.55011658631E+03  0.86983531254E+02 0.  0.
         24    2    4    4    0    0  0.61398019315E+03  0.35511683294E+03  0.12049768542E+02  0.71389138623E+03  0.80100385665E+02 0.  0.
         11    1    3    3    0    0 -0.62798387129E+03  0.34706250968E+02 -0.18855677030E+03  0.65659875273E+03  0.00000000000E+00 0.  1.
        -11    1    3    3    0    0 -0.18640521227E+03 -0.26718942192E+02 -0.26500092498E+02  0.19016587479E+03  0.00000000000E+00 0. -1.
          4    1    6    6  502    0  0.33889035670E+03  0.15041392735E+03  0.12875630762E+02  0.37099434669E+03  0.00000000000E+00 0. -1.
          1    1    5    5  503    0  0.56779897584E+01 -0.78625754192E+02  0.58999160678E+02  0.98463951528E+02  0.00000000000E+00 0. -1.
         -2    1    5    5    0  503  0.19473090065E+03 -0.28447838753E+03  0.29179106543E+03  0.45165263478E+03  0.00000000000E+00 0.  1.
         -3    1    6    6    0  502  0.27508983645E+03  0.20470290559E+03 -0.82586221994E+00  0.34289703954E+03  0.00000000000E+00 0.  1.
<mgrwt>
<rscale>  0 0.21055928E+04</rscale>
<asrwt>0</asrwt>
<pdfrwt beam="1">  1        2 0.15099919E+00 0.21055928E+04</pdfrwt>
<pdfrwt beam="2">  1       -2 0.17373506E+00 0.21055928E+04</pdfrwt>
<totfact> 0.47819943E+00</totfact>
</mgrwt>
</event>
<event>
12    1  0.1397649E-007  0.1249178E+04  0.7818608E-02  0.9070867E-01
          2   -1    0    0  501    0  0.00000000000E+00  0.00000000000E+00  0.33853694868E+04  0.33853694868E+04  0.00000000000E+00 0. -1.
         -2   -1    0    0    0  501 -0.00000000000E+00 -0.00000000000E+00 -0.11523459118E+03  0.11523459118E+03  0.00000000000E+00 0.  1.
         23    2    1    2    0    0 -0.84808448611E+02  0.25240053394E+03  0.49324039621E+03  0.56788929148E+03  0.91179254397E+02 0.  0.
        254    2    1    2    0    0  0.84808448611E+02 -0.25240053394E+03  0.27768944994E+04  0.29327147865E+04  0.90486156712E+03 0.  0.
        -24    2    4    4    0    0  0.19258051431E+03 -0.56234631915E+03  0.19300332999E+04  0.20211580393E+04  0.82040501113E+02 0.  0.
         24    2    4    4    0    0 -0.10777206570E+03  0.30994578521E+03  0.84686119944E+03  0.91155674717E+03  0.77978229518E+02 0.  0.
         13    1    3    3    0    0 -0.62527328381E+02  0.24641844671E+03  0.41847877533E+03  0.48964906114E+03  0.00000000000E+00 0.  1.
        -13    1    3    3    0    0 -0.22281120230E+02  0.59820872263E+01  0.74761620888E+02  0.78240230342E+02  0.00000000000E+00 0. -1.
          2    1    6    6  502    0 -0.11601795125E+03  0.24957387672E+03  0.72035186833E+03  0.77113818422E+03  0.00000000000E+00 0. -1.
          1    1    5    5  503    0  0.18553175264E+03 -0.46821458327E+03  0.15604652160E+04  0.16397251653E+04  0.00000000000E+00 0. -1.
         -2    1    5    5    0  503  0.70487616759E+01 -0.94131735881E+02  0.36956808392E+03  0.38143287403E+03  0.00000000000E+00 0.  1.
         -1    1    6    6    0  502  0.82458855502E+01  0.60371908494E+02  0.12650933111E+03  0.14041856295E+03  0.00000000000E+00 0.  1.
<mgrwt>
<rscale>  0 0.12491784E+04</rscale>
<asrwt>0</asrwt>
<pdfrwt beam="1">  1        2 0.52082600E+00 0.12491784E+04</pdfrwt>
<pdfrwt beam="2">  1       -2 0.17728401E-01 0.12491784E+04</pdfrwt>
<totfact> 0.25835827E+01</totfact>
</mgrwt>
</event>
<event>
12    1  0.1397649E-007  0.1377704E+04  0.7818608E-02  0.8970117E-01
         -1   -1    0    0    0  501 -0.00000000000E+00  0.00000000000E+00  0.19251327845E+03  0.19251327845E+03  0.00000000000E+00 0.  1.
          1   -1    0    0  501    0  0.00000000000E+00 -0.00000000000E+00 -0.24648548295E+04  0.24648548295E+04  0.00000000000E+00 0. -1.
         23    2    1    2    0    0 -0.28071609219E+03  0.15610751419E+03 -0.10828101901E+04  0.11331118632E+04  0.91068690240E+02 0.  0.
        254    2    1    2    0    0  0.28071609219E+03 -0.15610751419E+03 -0.11895313609E+04  0.15242562447E+04  0.89733001761E+03 0.  0.
        -24    2    4    4    0    0 -0.24250206613E+03 -0.32269429379E+02 -0.50994255281E+02  0.26265449118E+03  0.80860370507E+02 0.  0.
         24    2    4    4    0    0  0.52321815832E+03 -0.12383808481E+03 -0.11385371056E+04  0.12616017535E+04  0.79240968775E+02 0.  0.
         11    1    3    3    0    0 -0.10418540862E+03  0.68126020536E+02 -0.27995188646E+03  0.30638017686E+03  0.00000000000E+00 0.  1.
        -11    1    3    3    0    0 -0.17653068357E+03  0.87981493656E+02 -0.80285830369E+03  0.82673168638E+03  0.00000000000E+00 0. -1.
          4    1    6    6  502    0  0.46050918514E+03 -0.10123734746E+03 -0.93044510133E+03  0.10430943374E+04  0.00000000000E+00 0. -1.
          1    1    5    5  503    0 -0.20560902682E+03 -0.55571310089E+02 -0.33328077355E+02  0.21557829936E+03  0.00000000000E+00 0. -1.
         -2    1    5    5    0  503 -0.36893039303E+02  0.23301880710E+02 -0.17666177927E+02  0.47076191819E+02  0.00000000000E+00 0.  1.
         -3    1    6    6    0  502  0.62708973179E+02 -0.22600737357E+02 -0.20809200428E+03  0.21850741610E+03  0.00000000000E+00 0.  1.
<mgrwt>
<rscale>  0 0.13777043E+04</rscale>
<asrwt>0</asrwt>
<pdfrwt beam="1">  1        1 0.37920841E+00 0.13777043E+04</pdfrwt>
<pdfrwt beam="2">  1       -1 0.29617429E-01 0.13777043E+04</pdfrwt>
<totfact> 0.14658247E+01</totfact>
</mgrwt>
</event>
<event>
12    1  0.1397649E-007  0.2615931E+04  0.7818608E-02  0.8362810E-01
         -2   -1    0    0    0  501 -0.00000000000E+00  0.00000000000E+00  0.10705175123E+04  0.10705175123E+04  0.00000000000E+00 0.  1.
          2   -1    0    0  501    0  0.00000000000E+00 -0.00000000000E+00 -0.15980815214E+04  0.15980815214E+04  0.00000000000E+00 0. -1.
         23    2    1    2    0    0  0.30740167751E+03  0.10114901244E+04 -0.68012822634E+03  0.12601067350E+04  0.87672779688E+02 0.  0.
        254    2    1    2    0    0 -0.30740167751E+03 -0.10114901244E+04  0.15256421719E+03  0.14084922987E+04  0.91813215395E+03 0.  0.
        -24    2    4    4    0    0 -0.45752325000E+03 -0.10917337631E+04  0.34431358680E+02  0.11869879912E+04  0.80900179970E+02 0.  0.
         24    2    4    4    0    0  0.15012157249E+03  0.80243638705E+02  0.11813285851E+03  0.22150430748E+03  0.78315119198E+02 0.  0.
         13    1    3    3    0    0  0.23618294383E+03  0.77976926702E+03 -0.47907811102E+03  0.94516576811E+03  0.00000000000E+00 0. -1.
        -13    1    3    3    0    0  0.71218733677E+02  0.23172085736E+03 -0.20105011532E+03  0.31494096690E+03  0.00000000000E+00 0.  1.
          4    1    6    6  502    0  0.37413119129E+02  0.45411946559E+02  0.66847794428E+01  0.59217165158E+02  0.00000000000E+00 0. -1.
          1    1    5    5  503    0 -0.62799400224E+02 -0.19133128081E+03  0.31746945192E+02  0.20386096294E+03  0.00000000000E+00 0. -1.
         -2    1    5    5    0  503 -0.39472384977E+03 -0.90040248228E+03  0.26844134883E+01  0.98312702829E+03  0.00000000000E+00 0.  1.
         -1    1    6    6    0  502  0.11270845336E+03  0.34831692147E+02  0.11144807906E+03  0.16228714232E+03  0.00000000000E+00 0.  1.
<mgrwt>
<rscale>  0 0.26159314E+04</rscale>
<asrwt>0</asrwt>
<pdfrwt beam="1">  1        2 0.24585870E+00 0.26159314E+04</pdfrwt>
<pdfrwt beam="2">  1       -2 0.16469500E+00 0.26159314E+04</pdfrwt>
<totfact> 0.22985340E+00</totfact>
</mgrwt>
</event>
<event>
12    1  0.1397649E-007  0.1789367E+04  0.7818608E-02  0.8711974E-01
         -1   -1    0    0    0  501 -0.00000000000E+00  0.00000000000E+00  0.41176499803E+03  0.41176499803E+03  0.00000000000E+00 0.  1.
          1   -1    0    0  501    0  0.00000000000E+00 -0.00000000000E+00 -0.19439695158E+04  0.19439695158E+04  0.00000000000E+00 0. -1.
         23    2    1    2    0    0 -0.18248858747E+03 -0.47989606854E+03 -0.10270973687E+04  0.11519478068E+04  0.91937063659E+02 0.  0.
        254    2    1    2    0    0  0.18248858747E+03  0.47989606854E+03 -0.50510714902E+03  0.12037867070E+04  0.96455527719E+03 0.  0.
        -24    2    4    4    0    0 -0.20503320872E+03  0.59734973191E+03 -0.46674083261E+03  0.78933889864E+03  0.79646551643E+02 0.  0.
         24    2    4    4    0    0  0.38752179619E+03 -0.11745366337E+03 -0.38366316410E+02  0.41444780834E+03  0.79539336419E+02 0.  0.
         11    1    3    3    0    0  0.80920101158E+01 -0.19856170110E+02 -0.24896716343E+02  0.32857184964E+02  0.00000000000E+00 0.  1.
        -11    1    3    3    0    0 -0.19058059759E+03 -0.46003989843E+03 -0.10022006524E+04  0.11190906219E+04  0.00000000000E+00 0. -1.
          2    1    6    6  502    0  0.21382204222E+03 -0.98844948307E+02  0.12620695053E+00  0.23556359115E+03  0.00000000000E+00 0. -1.
          1    1    5    5  503    0 -0.11220509821E+03  0.43046089196E+03 -0.30880257862E+03  0.54152155648E+03  0.00000000000E+00 0. -1.
         -2    1    5    5    0  503 -0.92828110508E+02  0.16688883995E+03 -0.15793825400E+03  0.24781734216E+03  0.00000000000E+00 0.  1.
         -1    1    6    6    0  502  0.17369975397E+03 -0.18608715067E+02 -0.38492523360E+02  0.17888421719E+03  0.00000000000E+00 0.  1.
<mgrwt>
<rscale>  0 0.17893670E+04</rscale>
<asrwt>0</asrwt>
<pdfrwt beam="1">  1        1 0.29907223E+00 0.17893670E+04</pdfrwt>
<pdfrwt beam="2">  1       -1 0.63348462E-01 0.17893670E+04</pdfrwt>
<totfact> 0.77647155E+00</totfact>
</mgrwt>
</event>
<event>
12    1  0.1397649E-007  0.1359114E+04  0.7818608E-02  0.8983958E-01
         -2   -1    0    0    0  501 -0.00000000000E+00  0.00000000000E+00  0.39487240334E+03  0.39487240334E+03  0.00000000000E+00 0.  1.
          2   -1    0    0  501    0  0.00000000000E+00 -0.00000000000E+00 -0.11694856355E+04  0.11694856355E+04  0.00000000000E+00 0. -1.
         23    2    1    2    0    0  0.34348235535E+03  0.36272684727E+02 -0.58821452744E+02  0.36195149606E+03  0.90846497469E+02 0.  0.
        254    2    1    2    0    0 -0.34348235535E+03 -0.36272684727E+02 -0.71579177945E+03  0.12024065428E+04  0.90229030062E+03 0.  0.
        -24    2    4    4    0    0  0.12826441814E+03  0.32274178876E+03 -0.18191072466E+03  0.40032371826E+03  0.80953965209E+02 0.  0.
         24    2    4    4    0    0 -0.47174677349E+03 -0.35901447349E+03 -0.53388105478E+03  0.80208282455E+03  0.82894308091E+02 0.  0.
         13    1    3    3    0    0  0.12384012181E+03  0.43060477958E+02  0.10492070123E+02  0.13153198876E+03  0.00000000000E+00 0. -1.
        -13    1    3    3    0    0  0.21964223353E+03 -0.67877932306E+01 -0.69313522867E+02  0.23041950729E+03  0.00000000000E+00 0.  1.
          2    1    6    6  502    0 -0.26875040827E+03 -0.20937432316E+03 -0.25134347243E+03  0.42336500833E+03  0.00000000000E+00 0. -1.
          3    1    5    5  503    0  0.56787710282E+02  0.11612004476E+03 -0.11127710029E+03  0.17056172456E+03  0.00000000000E+00 0. -1.
         -4    1    5    5    0  503  0.71476707858E+02  0.20662174400E+03 -0.70633624367E+02  0.22976199370E+03  0.00000000000E+00 0.  1.
         -1    1    6    6    0  502 -0.20299636521E+03 -0.14964015033E+03 -0.28253758236E+03  0.37871781622E+03  0.00000000000E+00 0.  1.
<mgrwt>
<rscale>  0 0.13591138E+04</rscale>
<asrwt>0</asrwt>
<pdfrwt beam="1">  1        2 0.17992086E+00 0.13591138E+04</pdfrwt>
<pdfrwt beam="2">  1       -2 0.60749602E-01 0.13591138E+04</pdfrwt>
<totfact> 0.48654884E+01</totfact>
</mgrwt>
</event>
<event>
12    1  0.1397649E-007  0.2277656E+04  0.7818608E-02  0.8486783E-01
          2   -1    0    0  501    0  0.00000000000E+00  0.00000000000E+00  0.35147671244E+04  0.35147671244E+04  0.00000000000E+00 0. -1.
         -2   -1    0    0    0  501 -0.00000000000E+00 -0.00000000000E+00 -0.36899450225E+03  0.36899450225E+03  0.00000000000E+00 0.  1.
         23    2    1    2    0    0 -0.12994397513E+03 -0.92347402686E+03  0.16622397527E+04  0.19081802697E+04  0.91767267183E+02 0.  0.
        254    2    1    2    0    0  0.12994397513E+03  0.92347402686E+03  0.14835328695E+04  0.19755813570E+04  0.91233886697E+03 0.  0.
        -24    2    4    4    0    0 -0.78640540517E+02  0.89627668733E+03  0.14995593773E+04  0.17502345711E+04  0.71739061848E+02 0.  0.
         24    2    4    4    0    0  0.20858451564E+03  0.27197339527E+02 -0.16026507760E+02  0.22534678590E+03  0.79228337856E+02 0.  0.
         13    1    3    3    0    0 -0.10390619988E+03 -0.84213322902E+03  0.15510347205E+04  0.17679631156E+04  0.00000000000E+00 0. -1.
        -13    1    3    3    0    0 -0.26037775245E+02 -0.81340797840E+02  0.11120503221E+03  0.14021715417E+03  0.00000000000E+00 0.  1.
          4    1    6    6  502    0  0.74262446612E+01  0.10646464077E+02 -0.19562993161E+02  0.23477798205E+02  0.00000000000E+00 0. -1.
          3    1    5    5  503    0 -0.43307519143E+01  0.75514136888E+02  0.91334898257E+02  0.11858838021E+03  0.00000000000E+00 0. -1.
         -4    1    5    5    0  503 -0.74309788603E+02  0.82076255045E+03  0.14082244790E+04  0.16316461909E+04  0.00000000000E+00 0.  1.
         -3    1    6    6    0  502  0.20115827098E+03  0.16550875450E+02  0.35364854016E+01  0.20186898769E+03  0.00000000000E+00 0.  1.
<mgrwt>
<rscale>  0 0.22776565E+04</rscale>
<asrwt>0</asrwt>
<pdfrwt beam="1">  1        2 0.54073338E+00 0.22776565E+04</pdfrwt>
<pdfrwt beam="2">  1       -2 0.56768387E-01 0.22776565E+04</pdfrwt>
<totfact> 0.21043553E+00</totfact>
</mgrwt>
</event>
<event>
12    1  0.1397649E-007  0.1506292E+04  0.7818608E-02  0.8880280E-01
         -2   -1    0    0    0  501 -0.00000000000E+00  0.00000000000E+00  0.12465397375E+04  0.12465397375E+04  0.00000000000E+00 0.  1.
          2   -1    0    0  501    0  0.00000000000E+00 -0.00000000000E+00 -0.45504278081E+03  0.45504278081E+03  0.00000000000E+00 0. -1.
         23    2    1    2    0    0 -0.18084653609E+03  0.27004384525E+03  0.64672507848E+03  0.72919699533E+03  0.88576424058E+02 0.  0.
        254    2    1    2    0    0  0.18084653609E+03 -0.27004384525E+03  0.14477187826E+03  0.97238552303E+03  0.90495610982E+03 0.  0.
        -24    2    4    4    0    0  0.37120124882E+03 -0.36421293448E+02 -0.26031602481E+03  0.46121146514E+03  0.76385241107E+02 0.  0.
         24    2    4    4    0    0 -0.19035471273E+03 -0.23362255180E+03  0.40508790307E+03  0.51117405789E+03  0.79926809488E+02 0.  0.
         13    1    3    3    0    0 -0.10107483064E+03  0.76185837390E+02  0.22169221805E+03  0.25527993018E+03  0.00000000000E+00 0. -1.
        -13    1    3    3    0    0 -0.79771705444E+02  0.19385800786E+03  0.42503286042E+03  0.47391706515E+03  0.00000000000E+00 0.  1.
          4    1    6    6  502    0 -0.16724752021E+03 -0.15009414689E+03  0.28072437502E+03  0.35959165824E+03  0.00000000000E+00 0. -1.
          3    1    5    5  503    0  0.34376967905E+03 -0.46285297162E+02 -0.21752704524E+03  0.40943612002E+03  0.00000000000E+00 0. -1.
         -2    1    5    5    0  503  0.27431569777E+02  0.98640037144E+01 -0.42788979572E+02  0.51775345123E+02  0.00000000000E+00 0.  1.
         -3    1    6    6    0  502 -0.23107192521E+02 -0.83528404911E+02  0.12436352805E+03  0.15158239965E+03  0.00000000000E+00 0.  1.
<mgrwt>
<rscale>  0 0.15062920E+04</rscale>
<asrwt>0</asrwt>
<pdfrwt beam="1">  1        2 0.70006582E-01 0.15062920E+04</pdfrwt>
<pdfrwt beam="2">  1       -2 0.19177534E+00 0.15062920E+04</pdfrwt>
<totfact> 0.99898636E+00</totfact>
</mgrwt>
</event>
<event>
12    1  0.1397649E-007  0.2673350E+04  0.7818608E-02  0.8343704E-01
         -2   -1    0    0    0  501 -0.00000000000E+00  0.00000000000E+00  0.10234215198E+04  0.10234215198E+04  0.00000000000E+00 0.  1.
          2   -1    0    0  501    0  0.00000000000E+00 -0.00000000000E+00 -0.17458098854E+04  0.17458098854E+04  0.00000000000E+00 0. -1.
         23    2    1    2    0    0 -0.11203360017E+04 -0.39012170246E+03 -0.40521369971E+03  0.12568320692E+04  0.89894428936E+02 0.  0.
        254    2    1    2    0    0  0.11203360017E+04  0.39012170246E+03 -0.31717466592E+03  0.15123993360E+04  0.88283876417E+03 0.  0.
        -24    2    4    4    0    0  0.19900765762E+03  0.43369318702E+03 -0.33142405524E+03  0.58645117098E+03  0.79932742344E+02 0.  0.
         24    2    4    4    0    0  0.92132834408E+03 -0.43571484562E+02  0.14249389321E+02  0.92594816506E+03  0.80203288008E+02 0.  0.
         13    1    3    3    0    0 -0.40533901024E+03 -0.14091385537E+03 -0.10125913475E+03  0.44091931260E+03  0.00000000000E+00 0. -1.
        -13    1    3    3    0    0 -0.71499699146E+03 -0.24920784708E+03 -0.30395456496E+03  0.81591275661E+03  0.00000000000E+00 0.  1.
          4    1    6    6  502    0  0.10413950894E+03 -0.26766465833E+02  0.15147666586E+02  0.10858606180E+03  0.00000000000E+00 0. -1.
          1    1    5    5  503    0  0.14575890981E+02  0.84448020127E+02 -0.34703052770E+02  0.92456619952E+02  0.00000000000E+00 0. -1.
         -2    1    5    5    0  503  0.18443176664E+03  0.34924516689E+03 -0.29672100247E+03  0.49399455103E+03  0.00000000000E+00 0.  1.
         -3    1    6    6    0  502  0.81718883514E+03 -0.16805018730E+02 -0.89827726483E+00  0.81736210325E+03  0.00000000000E+00 0.  1.
<mgrwt>
<rscale>  0 0.26733495E+04</rscale>
<asrwt>0</asrwt>
<pdfrwt beam="1">  1        2 0.26858614E+00 0.26733495E+04</pdfrwt>
<pdfrwt beam="2">  1       -2 0.15744947E+00 0.26733495E+04</pdfrwt>
<totfact> 0.21399212E+00</totfact>
</mgrwt>
</event>
<event>
12    1  0.1397649E-007  0.2423341E+04  0.7818608E-02  0.8430817E-01
         -2   -1    0    0    0  501 -0.00000000000E+00  0.00000000000E+00  0.42072859588E+03  0.42072859588E+03  0.00000000000E+00 0.  1.
          2   -1    0    0  501    0  0.00000000000E+00 -0.00000000000E+00 -0.34895294621E+04  0.34895294621E+04  0.00000000000E+00 0. -1.
         23    2    1    2    0    0 -0.47039871856E+03  0.70609472732E+03 -0.22965271977E+04  0.24505294873E+04  0.10589088860E+03 0.  0.
        254    2    1    2    0    0  0.47039871856E+03 -0.70609472732E+03 -0.77227366852E+03  0.14597285706E+04  0.90252765187E+03 0.  0.
        -24    2    4    4    0    0  0.27841889676E+03  0.41366032121E+02  0.83311969763E+02  0.30474590155E+03  0.81859327621E+02 0.  0.
         24    2    4    4    0    0  0.19197982180E+03 -0.74746075944E+03 -0.85558563828E+03  0.11549826691E+04  0.80027136081E+02 0.  0.
         11    1    3    3    0    0 -0.12984550458E+03  0.12670513297E+03 -0.55060615859E+03  0.57972509663E+03  0.00000000000E+00 0.  1.
        -11    1    3    3    0    0 -0.34055321397E+03  0.57938959435E+03 -0.17459210391E+04  0.18708043907E+04  0.00000000000E+00 0. -1.
          4    1    6    6  502    0  0.94457514598E+02 -0.51701518765E+03 -0.58604404835E+03  0.78719410118E+03  0.00000000000E+00 0. -1.
          3    1    5    5  503    0  0.27792677064E+03  0.34388897616E+02  0.90896683272E+02  0.29442841770E+03  0.00000000000E+00 0. -1.
         -4    1    5    5    0  503  0.49212611924E+00  0.69771345052E+01 -0.75847135085E+01  0.10317483852E+02  0.00000000000E+00 0.  1.
         -3    1    6    6    0  502  0.97522307199E+02 -0.23044557179E+03 -0.26954158993E+03  0.36778856788E+03  0.00000000000E+00 0.  1.
<mgrwt>
<rscale>  0 0.24233405E+04</rscale>
<asrwt>0</asrwt>
<pdfrwt beam="1">  1        2 0.53685067E+00 0.24233405E+04</pdfrwt>
<pdfrwt beam="2">  1       -2 0.64727478E-01 0.24233405E+04</pdfrwt>
<totfact> 0.16376467E+00</totfact>
</mgrwt>
</event>
<event>
12    1  0.1397649E-007  0.3581130E+04  0.7818608E-02  0.8094828E-01
         -2   -1    0    0    0  501 -0.00000000000E+00  0.00000000000E+00  0.10832381471E+04  0.10832381471E+04  0.00000000000E+00 0.  1.
          2   -1    0    0  501    0  0.00000000000E+00 -0.00000000000E+00 -0.29597588378E+04  0.29597588378E+04  0.00000000000E+00 0. -1.
         23    2    1    2    0    0  0.92797140728E+03  0.13844999999E+04 -0.10301150686E+04  0.19614887182E+04  0.91267489190E+02 0.  0.
        254    2    1    2    0    0 -0.92797140728E+03 -0.13844999999E+04 -0.84640562211E+03  0.20815082667E+04  0.91558888396E+03 0.  0.
        -24    2    4    4    0    0 -0.55279030341E+03 -0.16420307307E+03 -0.74900658752E+02  0.58760190204E+03  0.84416336403E+02 0.  0.
         24    2    4    4    0    0 -0.37518110387E+03 -0.12202969269E+04 -0.77150496336E+03  0.14939063646E+04  0.81552849770E+02 0.  0.
         11    1    3    3    0    0  0.42932305618E+03  0.60196431126E+03 -0.41002620099E+03  0.84545893105E+03  0.00000000000E+00 0.  1.
        -11    1    3    3    0    0  0.49864835110E+03  0.78253568869E+03 -0.62008886757E+03  0.11160297872E+04  0.00000000000E+00 0. -1.
          2    1    6    6  502    0 -0.11375486775E+03 -0.41381698286E+03 -0.21734070296E+03  0.48106303787E+03  0.00000000000E+00 0. -1.
          1    1    5    5  503    0  0.10973186258E+01 -0.17857047715E+01  0.44929039974E+01  0.49577248842E+01  0.00000000000E+00 0. -1.
         -2    1    5    5    0  503 -0.55388762203E+03 -0.16241736830E+03 -0.79393562749E+02  0.58264417716E+03  0.00000000000E+00 0.  1.
         -1    1    6    6    0  502 -0.26142623611E+03 -0.80647994402E+03 -0.55416426040E+03  0.10128433267E+04  0.00000000000E+00 0.  1.
<mgrwt>
<rscale>  0 0.35811304E+04</rscale>
<asrwt>0</asrwt>
<pdfrwt beam="1">  1        2 0.45534751E+00 0.35811304E+04</pdfrwt>
<pdfrwt beam="2">  1       -2 0.16665202E+00 0.35811304E+04</pdfrwt>
<totfact> 0.33899479E-01</totfact>
</mgrwt>
</event>
<event>
12    1  0.1397649E-007  0.1450334E+04  0.7818608E-02  0.8918169E-01
         -1   -1    0    0    0  501 -0.00000000000E+00  0.00000000000E+00  0.19281988232E+03  0.19281988232E+03  0.00000000000E+00 0.  1.
          1   -1    0    0  501    0  0.00000000000E+00 -0.00000000000E+00 -0.27272474896E+04  0.27272474896E+04  0.00000000000E+00 0. -1.
         23    2    1    2    0    0 -0.15111680560E+02  0.37670482899E+03 -0.29766430124E+03  0.48892162769E+03  0.91134135862E+02 0.  0.
        254    2    1    2    0    0  0.15111680560E+02 -0.37670482899E+03 -0.22367633061E+04  0.24311457443E+04  0.87477119944E+03 0.  0.
        -24    2    4    4    0    0  0.54165866777E+02 -0.65385975807E+03 -0.15133851687E+04  0.16513858921E+04  0.79209667468E+02 0.  0.
         24    2    4    4    0    0 -0.39054186217E+02  0.27715492909E+03 -0.72337813741E+03  0.77975985220E+03  0.80058811118E+02 0.  0.
         13    1    3    3    0    0 -0.38882349176E+02  0.68865466750E+02 -0.58403734061E+02  0.98312185107E+02  0.00000000000E+00 0. -1.
        -13    1    3    3    0    0  0.23770668616E+02  0.30783936224E+03 -0.23926056718E+03  0.39060944259E+03  0.00000000000E+00 0.  1.
          4    1    6    6  502    0  0.41749231949E+01  0.21681044127E+03 -0.54422189557E+03  0.58583416514E+03  0.00000000000E+00 0. -1.
          1    1    5    5  503    0 -0.27971061749E+01 -0.36561273357E+03 -0.78497795758E+03  0.86595085809E+03  0.00000000000E+00 0. -1.
         -2    1    5    5    0  503  0.56962972951E+02 -0.28824702451E+03 -0.72840721109E+03  0.78543503397E+03  0.00000000000E+00 0.  1.
         -3    1    6    6    0  502 -0.43229109412E+02  0.60344487818E+02 -0.17915624184E+03  0.19392568706E+03  0.00000000000E+00 0.  1.
<mgrwt>
<rscale>  0 0.14503345E+04</rscale>
<asrwt>0</asrwt>
<pdfrwt beam="1">  1        1 0.41957655E+00 0.14503345E+04</pdfrwt>
<pdfrwt beam="2">  1       -1 0.29664597E-01 0.14503345E+04</pdfrwt>
<totfact> 0.95330714E+00</totfact>
</mgrwt>
</event>
<event>
12    1  0.1444067E-007  0.1263705E+04  0.7818608E-02  0.9058854E-01
         -2   -1    0    0    0  501 -0.00000000000E+00  0.00000000000E+00  0.35743806828E+03  0.35743806828E+03  0.00000000000E+00 0.  1.
          2   -1    0    0  501    0  0.00000000000E+00 -0.00000000000E+00 -0.11169411198E+04  0.11169411198E+04  0.00000000000E+00 0. -1.
         23    2    1    2    0    0 -0.21433881669E+03 -0.17824512380E+03 -0.19100488370E+02  0.29277437889E+03  0.87404552395E+02 0.  0.
        254    2    1    2    0    0  0.21433881669E+03  0.17824512380E+03 -0.74040256317E+03  0.11816048092E+04  0.87765683334E+03 0.  0.
        -24    2    4    4    0    0  0.51927835038E+03 -0.43406845074E+02 -0.50483456800E+03  0.73012260499E+03  0.81773576978E+02 0.  0.
         24    2    4    4    0    0 -0.30493953369E+03  0.22165196887E+03 -0.23556799517E+03  0.45148220423E+03  0.78906184030E+02 0.  0.
         11    1    3    3    0    0 -0.10120018949E+02 -0.33172650910E+02  0.18754577142E+02  0.39428082831E+02  0.00000000000E+00 0. -1.
        -11    1    3    3    0    0 -0.20421879774E+03 -0.14507247289E+03 -0.37855065512E+02  0.25334629606E+03  0.00000000000E+00 0.  1.
          4    1    6    6  502    0 -0.35116399433E+02  0.24623939436E+02 -0.36111566939E+00  0.42890911706E+02  0.00000000000E+00 0. -1.
          1    1    5    5  503    0  0.23813347430E+02 -0.83141199461E+01 -0.52813168163E+02  0.58527180333E+02  0.00000000000E+00 0. -1.
         -2    1    5    5    0  503  0.49546500295E+03 -0.35092725128E+02 -0.45202139984E+03  0.67159542465E+03  0.00000000000E+00 0.  1.
         -3    1    6    6    0  502 -0.26982313425E+03  0.19702802943E+03 -0.23520687950E+03  0.40859129252E+03  0.00000000000E+00 0.  1.
<mgrwt>
<rscale>  0 0.12637045E+04</rscale>
<asrwt>0</asrwt>
<pdfrwt beam="1">  1        2 0.17183709E+00 0.12637045E+04</pdfrwt>
<pdfrwt beam="2">  1       -2 0.54990473E-01 0.12637045E+04</pdfrwt>
<totfact> 0.64991626E+01</totfact>
</mgrwt>
</event>
<event>
12    1  0.1397649E-007  0.1721708E+04  0.7818608E-02  0.8749079E-01
          2   -1    0    0  501    0  0.00000000000E+00  0.00000000000E+00  0.31394988274E+04  0.31394988274E+04  0.00000000000E+00 0. -1.
         -2   -1    0    0    0  501 -0.00000000000E+00 -0.00000000000E+00 -0.23604717473E+03  0.23604717473E+03  0.00000000000E+00 0.  1.
         23    2    1    2    0    0 -0.29693702313E+02 -0.42759039246E+03  0.19006608999E+04  0.19505318726E+04  0.91364489264E+02 0.  0.
        254    2    1    2    0    0  0.29693702313E+02  0.42759039246E+03  0.10027907528E+04  0.14250141295E+04  0.91725716996E+03 0.  0.
        -24    2    4    4    0    0  0.44096178286E+03  0.55602945873E+02  0.42571953744E+03  0.62065210917E+03  0.80205576677E+02 0.  0.
         24    2    4    4    0    0 -0.41126808055E+03  0.37198744658E+03  0.57707121532E+03  0.80436202035E+03  0.80442387648E+02 0.  0.
         11    1    3    3    0    0 -0.14065318689E+02 -0.99021085509E+02  0.63479933868E+03  0.64262991601E+03  0.00000000000E+00 0.  1.
        -11    1    3    3    0    0 -0.15628383624E+02 -0.32856930695E+03  0.12658615612E+04  0.13079019566E+04  0.00000000000E+00 0. -1.
          2    1    6    6  502    0 -0.60866858848E+02  0.93474361420E+02  0.13686903883E+03  0.17656546814E+03  0.00000000000E+00 0. -1.
          1    1    5    5  503    0  0.11464579222E+03  0.22137110335E+02  0.16235664747E+03  0.19998347509E+03  0.00000000000E+00 0. -1.
         -2    1    5    5    0  503  0.32631599064E+03  0.33465835538E+02  0.26336288996E+03  0.42066863409E+03  0.00000000000E+00 0.  1.
         -1    1    6    6    0  502 -0.35040122170E+03  0.27851308516E+03  0.44020217649E+03  0.62779655221E+03  0.00000000000E+00 0.  1.
<mgrwt>
<rscale>  0 0.17217083E+04</rscale>
<asrwt>0</asrwt>
<pdfrwt beam="1">  1        2 0.48299979E+00 0.17217083E+04</pdfrwt>
<pdfrwt beam="2">  1       -2 0.36314952E-01 0.17217083E+04</pdfrwt>
<totfact> 0.96790615E+00</totfact>
</mgrwt>
</event>
<event>
12    1  0.1397649E-007  0.3131991E+04  0.7818608E-02  0.8207013E-01
          2   -1    0    0  501    0  0.00000000000E+00  0.00000000000E+00  0.22899796741E+04  0.22899796741E+04  0.00000000000E+00 0.  1.
         -2   -1    0    0    0  501 -0.00000000000E+00 -0.00000000000E+00 -0.10709010654E+04  0.10709010654E+04  0.00000000000E+00 0. -1.
         23    2    1    2    0    0 -0.78225255728E+03 -0.62632743911E+03  0.16602789140E+04  0.19414196293E+04  0.91536769643E+02 0.  0.
        254    2    1    2    0    0  0.78225255728E+03  0.62632743911E+03 -0.44120030539E+03  0.14194611102E+04  0.90333106313E+03 0.  0.
        -24    2    4    4    0    0  0.84377356344E+03  0.76430421638E+03 -0.25962783582E+03  0.11703546459E+04  0.78794812210E+02 0.  0.
         24    2    4    4    0    0 -0.61521006165E+02 -0.13797677728E+03 -0.18157246957E+03  0.24910646436E+03  0.79139393549E+02 0.  0.
         11    1    3    3    0    0 -0.69405535907E+03 -0.52325900512E+03  0.14696857487E+04  0.17074803155E+04  0.00000000000E+00 0.  1.
        -11    1    3    3    0    0 -0.88197198203E+02 -0.10306843398E+03  0.19059316533E+03  0.23393931376E+03  0.00000000000E+00 0. -1.
          2    1    6    6  502    0 -0.72474917325E+01 -0.24511948278E+02 -0.89909467591E+02  0.93472317332E+02  0.00000000000E+00 0. -1.
          1    1    5    5  503    0  0.23860381257E+03  0.23373089481E+03 -0.42082872911E+02  0.33664948946E+03  0.00000000000E+00 0. -1.
         -2    1    5    5    0  503  0.60516975087E+03  0.53057332157E+03 -0.21754496291E+03  0.83370515641E+03  0.00000000000E+00 0.  1.
         -1    1    6    6    0  502 -0.54273514432E+02 -0.11346482900E+03 -0.91663001979E+02  0.15563414702E+03  0.00000000000E+00 0.  1.
<mgrwt>
<rscale>  0 0.31319909E+04</rscale>
<asrwt>0</asrwt>
<pdfrwt beam="1">  1        2 0.35230456E+00 0.31319909E+04</pdfrwt>
<pdfrwt beam="2">  1       -2 0.16475401E+00 0.31319909E+04</pdfrwt>
<totfact> 0.90417052E-01</totfact>
</mgrwt>
</event>
<event>
12    1  0.1397649E-007  0.1474130E+04  0.7818608E-02  0.8901841E-01
          1   -1    0    0  501    0  0.00000000000E+00  0.00000000000E+00  0.15384955508E+04  0.15384955508E+04  0.00000000000E+00 0.  1.
         -1   -1    0    0    0  501 -0.00000000000E+00 -0.00000000000E+00 -0.35311439984E+03  0.35311439984E+03  0.00000000000E+00 0. -1.
         23    2    1    2    0    0  0.21805417853E+03  0.39891122385E+03  0.44230449292E+03  0.64036362641E+03  0.88059754057E+02 0.  0.
        254    2    1    2    0    0 -0.21805417853E+03 -0.39891122385E+03  0.74307665801E+03  0.12512463242E+04  0.89820746760E+03 0.  0.
        -24    2    4    4    0    0 -0.77489955903E+02 -0.64673300267E+03  0.30588143188E+03  0.72400524041E+03  0.79698605769E+02 0.  0.
         24    2    4    4    0    0 -0.14056422262E+03  0.24782177882E+03  0.43719522613E+03  0.52724108379E+03  0.75296480309E+02 0.  0.
         13    1    3    3    0    0  0.65896380670E+02  0.85671887934E+02  0.61573352497E+02  0.12439165207E+03  0.00000000000E+00 0. -1.
        -13    1    3    3    0    0  0.15215779786E+03  0.31323933592E+03  0.38073114042E+03  0.51597197434E+03  0.00000000000E+00 0.  1.
          4    1    6    6  502    0 -0.55817876587E+02  0.44615650339E+02  0.14217197002E+03  0.15911964260E+03  0.00000000000E+00 0. -1.
          3    1    5    5  503    0  0.52675017329E+01 -0.28817083686E+03  0.13247407319E+03  0.31720586038E+03  0.00000000000E+00 0. -1.
         -4    1    5    5    0  503 -0.82757457636E+02 -0.35856216581E+03  0.17340735868E+03  0.40679938003E+03  0.00000000000E+00 0.  1.
         -1    1    6    6    0  502 -0.84746346036E+02  0.20320612848E+03  0.29502325611E+03  0.36812144119E+03  0.00000000000E+00 0.  1.
<mgrwt>
<rscale>  0 0.14741302E+04</rscale>
<asrwt>0</asrwt>
<pdfrwt beam="1">  1        1 0.23669162E+00 0.14741302E+04</pdfrwt>
<pdfrwt beam="2">  1       -1 0.54325293E-01 0.14741302E+04</pdfrwt>
<totfact> 0.20407452E+01</totfact>
</mgrwt>
</event>
<event>
12    1  0.1397649E-007  0.1163825E+04  0.7818608E-02  0.9145123E-01
          2   -1    0    0  501    0  0.00000000000E+00  0.00000000000E+00  0.23598432843E+04  0.23598432843E+04  0.00000000000E+00 0. -1.
         -2   -1    0    0    0  501 -0.00000000000E+00 -0.00000000000E+00 -0.14349349690E+03  0.14349349690E+03  0.00000000000E+00 0.  1.
         23    2    1    2    0    0  0.14791118299E+03 -0.14885963430E+03  0.31173307153E+03  0.38671938484E+03  0.91309725381E+02 0.  0.
        254    2    1    2    0    0 -0.14791118299E+03  0.14885963430E+03  0.19046167159E+04  0.21166173964E+04  0.89914818546E+03 0.  0.
        -24    2    4    4    0    0  0.11338471634E+03 -0.17293319275E+03  0.15477659476E+04  0.15635533886E+04  0.79735735436E+02 0.  0.
         24    2    4    4    0    0 -0.26129589933E+03  0.32179282705E+03  0.35685076835E+03  0.55306400780E+03  0.81921641213E+02 0.  0.
         11    1    3    3    0    0  0.14013693183E+03 -0.16149670090E+03  0.29522796845E+03  0.36452585288E+03  0.00000000000E+00 0.  1.
        -11    1    3    3    0    0  0.77742511573E+01  0.12637066596E+02  0.16505103087E+02  0.22193531966E+02  0.00000000000E+00 0. -1.
          4    1    6    6  502    0 -0.21108027453E+03  0.29796159667E+03  0.29123051126E+03  0.46706659704E+03  0.00000000000E+00 0. -1.
          1    1    5    5  503    0  0.11580241801E+03 -0.11458333124E+03  0.11753294849E+04  0.11865660276E+04  0.00000000000E+00 0. -1.
         -2    1    5    5    0  503 -0.24177016670E+01 -0.58349861514E+02  0.37243646265E+03  0.37698736097E+03  0.00000000000E+00 0.  1.
         -3    1    6    6    0  502 -0.50215624808E+02  0.23831230386E+02  0.65620257091E+02  0.85997410759E+02  0.00000000000E+00 0.  1.
<mgrwt>
<rscale>  0 0.11638250E+04</rscale>
<asrwt>0</asrwt>
<pdfrwt beam="1">  1        2 0.36305278E+00 0.11638250E+04</pdfrwt>
<pdfrwt beam="2">  1       -2 0.22075924E-01 0.11638250E+04</pdfrwt>
<totfact> 0.74783989E+01</totfact>
</mgrwt>
</event>
<event>
12    1  0.1397649E-007  0.1035802E+04  0.7818608E-02  0.9270127E-01
          1   -1    0    0  501    0  0.00000000000E+00  0.00000000000E+00  0.84944733687E+03  0.84944733687E+03  0.00000000000E+00 0. -1.
         -1   -1    0    0    0  501 -0.00000000000E+00 -0.00000000000E+00 -0.31575987854E+03  0.31575987854E+03  0.00000000000E+00 0.  1.
         23    2    1    2    0    0  0.21679222236E+02  0.52934627606E+02  0.15816137926E+03  0.19063924301E+03  0.89756535191E+02 0.  0.
        254    2    1    2    0    0 -0.21679222236E+02 -0.52934627606E+02  0.37552607907E+03  0.97456797240E+03  0.89749141126E+03 0.  0.
        -24    2    4    4    0    0 -0.34591949908E+03  0.26096787059E+03  0.17911988172E+03  0.47573592613E+03  0.80474903307E+02 0.  0.
         24    2    4    4    0    0  0.32424027684E+03 -0.31390249820E+03  0.19640619736E+03  0.49883204626E+03  0.81187933297E+02 0.  0.
         13    1    3    3    0    0 -0.24355976779E+02  0.92884664693E+00  0.90317000020E+02  0.93548045696E+02  0.00000000000E+00 0. -1.
        -13    1    3    3    0    0  0.46035199015E+02  0.52005780959E+02  0.67844379244E+02  0.97091197317E+02  0.00000000000E+00 0.  1.
          2    1    6    6  502    0  0.94981530320E+02 -0.14051216011E+03  0.53615685559E+02  0.17787579930E+03  0.00000000000E+00 0. -1.
          3    1    5    5  503    0 -0.18865585174E+03  0.19145097659E+03  0.10972304717E+03  0.29031647200E+03  0.00000000000E+00 0. -1.
         -4    1    5    5    0  503 -0.15726364734E+03  0.69516894000E+02  0.69396834543E+02  0.18541945413E+03  0.00000000000E+00 0.  1.
         -1    1    6    6    0  502  0.22925874652E+03 -0.17339033809E+03  0.14279051180E+03  0.32095624696E+03  0.00000000000E+00 0.  1.
<mgrwt>
<rscale>  0 0.10358019E+04</rscale>
<asrwt>0</asrwt>
<pdfrwt beam="1">  1        1 0.13068420E+00 0.10358019E+04</pdfrwt>
<pdfrwt beam="2">  1       -1 0.48578443E-01 0.10358019E+04</pdfrwt>
<totfact> 0.85019185E+01</totfact>
</mgrwt>
</event>
<event>
12    1  0.1397649E-007  0.1845131E+04  0.7818608E-02  0.8682661E-01
          1   -1    0    0  501    0  0.00000000000E+00  0.00000000000E+00  0.76903437244E+03  0.76903437244E+03  0.00000000000E+00 0. -1.
         -1   -1    0    0    0  501 -0.00000000000E+00 -0.00000000000E+00 -0.11067472549E+04  0.11067472549E+04  0.00000000000E+00 0.  1.
         23    2    1    2    0    0 -0.41987029333E+03  0.22635237001E+03 -0.64832325587E+03  0.80784228890E+03  0.68990296457E+02 0.  0.
        254    2    1    2    0    0  0.41987029333E+03 -0.22635237001E+03  0.31061037342E+03  0.10679393384E+04  0.90359790164E+03 0.  0.
        -24    2    4    4    0    0 -0.19544028616E+03 -0.44330396375E+02  0.36006037571E+03  0.41951143922E+03  0.78640218601E+02 0.  0.
         24    2    4    4    0    0  0.61531057948E+03 -0.18202197364E+03 -0.49450002287E+02  0.64842789921E+03  0.79210666191E+02 0.  0.
         11    1    3    3    0    0 -0.40652372848E+02  0.26309007895E+02 -0.36005974722E+02  0.60342435568E+02  0.00000000000E+00 0. -1.
        -11    1    3    3    0    0 -0.37921792048E+03  0.20004336212E+03 -0.61231728114E+03  0.74749985333E+03  0.00000000000E+00 0.  1.
          2    1    6    6  502    0  0.34949570819E+03 -0.12712016335E+03 -0.60462806316E+02  0.37677916200E+03  0.00000000000E+00 0. -1.
          1    1    5    5  503    0 -0.19457649163E+03 -0.34136550225E+02  0.30415928542E+03  0.36268193512E+03  0.00000000000E+00 0. -1.
         -2    1    5    5    0  503 -0.86379452964E+00 -0.10193846150E+02  0.55901090288E+02  0.56829504096E+02  0.00000000000E+00 0.  1.
         -1    1    6    6    0  502  0.26581487129E+03 -0.54901810290E+02  0.11012804029E+02  0.27164873721E+03  0.00000000000E+00 0.  1.
<mgrwt>
<rscale>  0 0.18451305E+04</rscale>
<asrwt>0</asrwt>
<pdfrwt beam="1">  1        1 0.11831298E+00 0.18451305E+04</pdfrwt>
<pdfrwt beam="2">  1       -1 0.17026881E+00 0.18451305E+04</pdfrwt>
<totfact> 0.54212820E+00</totfact>
</mgrwt>
</event>
<event>
12    1  0.1397649E-007  0.1544060E+04  0.7818608E-02  0.8855671E-01
         -1   -1    0    0    0  501 -0.00000000000E+00  0.00000000000E+00  0.37174744022E+03  0.37174744022E+03  0.00000000000E+00 0.  1.
          1   -1    0    0  501    0  0.00000000000E+00 -0.00000000000E+00 -0.16033202284E+04  0.16033202284E+04  0.00000000000E+00 0. -1.
         23    2    1    2    0    0  0.25144577040E+03  0.37605705667E+03 -0.72765284657E+03  0.86180783787E+03  0.92683326278E+02 0.  0.
        254    2    1    2    0    0 -0.25144577040E+03 -0.37605705667E+03 -0.50391994165E+03  0.11132598308E+04  0.88361091998E+03 0.  0.
        -24    2    4    4    0    0 -0.80330658167E+02 -0.58116278173E+03 -0.68413337316E+02  0.59605811916E+03  0.80010644188E+02 0.  0.
         24    2    4    4    0    0 -0.17111511224E+03  0.20510572506E+03 -0.43550660433E+03  0.51720171162E+03  0.80516259236E+02 0.  0.
         11    1    3    3    0    0 -0.77084777943E+01  0.12676653772E+02 -0.16416850460E+02  0.22127610802E+02  0.00000000000E+00 0.  1.
        -11    1    3    3    0    0  0.25915424820E+03  0.36338040290E+03 -0.71123599611E+03  0.83968022707E+03  0.00000000000E+00 0. -1.
          4    1    6    6  502    0  0.86180399408E+01  0.13370930861E+02 -0.19925510906E+02  0.25496634864E+02  0.00000000000E+00 0. -1.
          1    1    5    5  503    0  0.26508383001E+01 -0.75109358057E+02 -0.32828431848E+02  0.82013099862E+02  0.00000000000E+00 0. -1.
         -2    1    5    5    0  503 -0.82981496467E+02 -0.50605342367E+03 -0.35584905469E+02  0.51404501930E+03  0.00000000000E+00 0.  1.
         -3    1    6    6    0  502 -0.17973315218E+03  0.19173479420E+03 -0.41558109342E+03  0.49170507676E+03  0.00000000000E+00 0.  1.
<mgrwt>
<rscale>  0 0.15440598E+04</rscale>
<asrwt>0</asrwt>
<pdfrwt beam="1">  1        1 0.24666465E+00 0.15440598E+04</pdfrwt>
<pdfrwt beam="2">  1       -1 0.57191915E-01 0.15440598E+04</pdfrwt>
<totfact> 0.16563432E+01</totfact>
</mgrwt>
</event>
<event>
12    1  0.1397649E-007  0.1089834E+04  0.7818608E-02  0.9215158E-01
          1   -1    0    0  501    0  0.00000000000E+00  0.00000000000E+00  0.11483432272E+04  0.11483432272E+04  0.00000000000E+00 0. -1.
         -1   -1    0    0    0  501 -0.00000000000E+00 -0.00000000000E+00 -0.25857624218E+03  0.25857624218E+03  0.00000000000E+00 0.  1.
         23    2    1    2    0    0 -0.92569420922E+02 -0.11052385309E+03  0.88846051289E+02  0.19165076755E+03  0.89731689385E+02 0.  0.
        254    2    1    2    0    0  0.92569420922E+02  0.11052385309E+03  0.80092093369E+03  0.12152687018E+04  0.90256249410E+03 0.  0.
        -24    2    4    4    0    0 -0.75816672221E+02  0.48355105543E+03  0.46798301059E+03  0.68195312195E+03  0.80511932937E+02 0.  0.
         24    2    4    4    0    0  0.16838609314E+03 -0.37302720234E+03  0.33293792310E+03  0.53331557985E+03  0.77940214397E+02 0.  0.
         11    1    3    3    0    0 -0.46369665114E+02 -0.45899751137E+02  0.91248053820E+02  0.11217459750E+03  0.00000000000E+00 0. -1.
        -11    1    3    3    0    0 -0.46199755808E+02 -0.64624101951E+02 -0.24020025313E+01  0.79476170050E+02  0.00000000000E+00 0.  1.
          4    1    6    6  502    0  0.12555543678E+03 -0.32733902299E+03  0.25598536321E+03  0.43410080610E+03  0.00000000000E+00 0. -1.
          1    1    5    5  503    0 -0.73817464741E+02  0.40303387315E+03  0.34873424601E+03  0.53805287412E+03  0.00000000000E+00 0. -1.
         -2    1    5    5    0  503 -0.19992074800E+01  0.80517182282E+02  0.11924876458E+03  0.14390024784E+03  0.00000000000E+00 0.  1.
         -3    1    6    6    0  502  0.42830656363E+02 -0.45688179353E+02  0.76952559886E+02  0.99214773749E+02  0.00000000000E+00 0.  1.
<mgrwt>
<rscale>  0 0.10898335E+04</rscale>
<asrwt>0</asrwt>
<pdfrwt beam="1">  1        1 0.17666819E+00 0.10898335E+04</pdfrwt>
<pdfrwt beam="2">  1       -1 0.39780961E-01 0.10898335E+04</pdfrwt>
<totfact> 0.71512473E+01</totfact>
</mgrwt>
</event>
<event>
12    1  0.1397649E-007  0.1252603E+04  0.7818608E-02  0.9068019E-01
          3   -1    0    0  501    0  0.00000000000E+00  0.00000000000E+00  0.83783273224E+03  0.83783273224E+03  0.00000000000E+00 0.  1.
         -3   -1    0    0    0  501 -0.00000000000E+00 -0.00000000000E+00 -0.46817654298E+03  0.46817654298E+03  0.00000000000E+00 0. -1.
         23    2    1    2    0    0  0.84298719450E+02 -0.10660458747E+03  0.34589348657E+03  0.38238012011E+03  0.90007999833E+02 0.  0.
        254    2    1    2    0    0 -0.84298719450E+02  0.10660458747E+03  0.23762702690E+02  0.92362915510E+03  0.91326630177E+03 0.  0.
        -24    2    4    4    0    0  0.18894186158E+03  0.25820267550E+03  0.33908475781E+03  0.47305454578E+03  0.80215220617E+02 0.  0.
         24    2    4    4    0    0 -0.27324058103E+03 -0.15159808802E+03 -0.31532205512E+03  0.45057460932E+03  0.77117343765E+02 0.  0.
         11    1    3    3    0    0  0.37742984516E+01  0.89985051993E+01  0.98471510693E+00  0.98075526237E+01  0.00000000000E+00 0. -1.
        -11    1    3    3    0    0  0.80524420998E+02 -0.11560309267E+03  0.34490877146E+03  0.37257256749E+03  0.00000000000E+00 0.  1.
          4    1    6    6  502    0 -0.24607432107E+03 -0.13835064296E+03 -0.31104294171E+03  0.42004902510E+03  0.00000000000E+00 0. -1.
          3    1    5    5  503    0  0.10380995029E+03  0.18780198823E+03  0.26041803307E+03  0.33743687486E+03  0.00000000000E+00 0. -1.
         -4    1    5    5    0  503  0.85131911291E+02  0.70400687266E+02  0.78666724731E+02  0.13561767093E+03  0.00000000000E+00 0.  1.
         -3    1    6    6    0  502 -0.27166259957E+02 -0.13247445060E+02 -0.42791134088E+01  0.30525584224E+02  0.00000000000E+00 0.  1.
<mgrwt>
<rscale>  0 0.12526031E+04</rscale>
<asrwt>0</asrwt>
<pdfrwt beam="1">  1        3 0.12889734E+00 0.12526031E+04</pdfrwt>
<pdfrwt beam="2">  1       -3 0.72027161E-01 0.12526031E+04</pdfrwt>
<totfact> 0.22451880E+00</totfact>
</mgrwt>
</event>
<event>
12    1  0.1397649E-007  0.1272462E+04  0.7818608E-02  0.9051693E-01
          1   -1    0    0  501    0  0.00000000000E+00  0.00000000000E+00  0.16550653219E+04  0.16550653219E+04  0.00000000000E+00 0. -1.
         -1   -1    0    0    0  501 -0.00000000000E+00 -0.00000000000E+00 -0.24457633237E+03  0.24457633237E+03  0.00000000000E+00 0.  1.
         23    2    1    2    0    0 -0.22572722167E+03  0.16927503646E+03  0.54164459001E+03  0.61757899919E+03  0.91750432062E+02 0.  0.
        254    2    1    2    0    0  0.22572722167E+03 -0.16927503646E+03  0.86884439956E+03  0.12820626551E+04  0.89954835580E+03 0.  0.
        -24    2    4    4    0    0  0.40897822351E+03  0.22070526611E+03  0.61792962983E+03  0.77731204881E+03  0.80018697845E+02 0.  0.
         24    2    4    4    0    0 -0.18325100184E+03 -0.38998030257E+03  0.25091476972E+03  0.50475060630E+03  0.78418026191E+02 0.  0.
         13    1    3    3    0    0 -0.21599188666E+03  0.17998531449E+03  0.52482403423E+03  0.59538850798E+03  0.00000000000E+00 0. -1.
        -13    1    3    3    0    0 -0.97353350143E+01 -0.10710278029E+02  0.16820555778E+02  0.22190491206E+02  0.00000000000E+00 0.  1.
          4    1    6    6  502    0 -0.28235312527E+02 -0.66403605944E+02  0.10643280911E+02  0.72937995478E+02  0.00000000000E+00 0. -1.
          1    1    5    5  503    0  0.12006254078E+03  0.84352291497E+02  0.25145009650E+03  0.29113136864E+03  0.00000000000E+00 0. -1.
         -2    1    5    5    0  503  0.28891568273E+03  0.13635297461E+03  0.36647953334E+03  0.48618068017E+03  0.00000000000E+00 0.  1.
         -3    1    6    6    0  502 -0.15501568931E+03 -0.32357669662E+03  0.24027148881E+03  0.43181261082E+03  0.00000000000E+00 0.  1.
<mgrwt>
<rscale>  0 0.12724619E+04</rscale>
<asrwt>0</asrwt>
<pdfrwt beam="1">  1        1 0.25462543E+00 0.12724619E+04</pdfrwt>
<pdfrwt beam="2">  1       -1 0.37627129E-01 0.12724619E+04</pdfrwt>
<totfact> 0.34297634E+01</totfact>
</mgrwt>
</event>
<event>
12    1  0.1397649E-007  0.1627808E+04  0.7818608E-02  0.8803644E-01
         -1   -1    0    0    0  501 -0.00000000000E+00  0.00000000000E+00  0.38563897840E+03  0.38563897840E+03  0.00000000000E+00 0.  1.
          1   -1    0    0  501    0  0.00000000000E+00 -0.00000000000E+00 -0.17177717071E+04  0.17177717071E+04  0.00000000000E+00 0. -1.
         23    2    1    2    0    0 -0.17987286245E+03  0.45872337171E+03 -0.81171263314E+03  0.95415675327E+03  0.93575277815E+02 0.  0.
        254    2    1    2    0    0  0.17987286245E+03 -0.45872337171E+03 -0.52042009553E+03  0.11492539322E+04  0.89842425748E+03 0.  0.
        -24    2    4    4    0    0  0.32117199915E+02 -0.37906194614E+03 -0.75547392628E+03  0.84949831265E+03  0.78657843692E+02 0.  0.
         24    2    4    4    0    0  0.14775566253E+03 -0.79661425565E+02  0.23505383075E+03  0.29975561954E+03  0.80158901940E+02 0.  0.
         11    1    3    3    0    0 -0.14841185050E+03  0.29523969168E+03 -0.47633377685E+03  0.57972960928E+03  0.00000000000E+00 0. -1.
        -11    1    3    3    0    0 -0.31461011945E+02  0.16348368003E+03 -0.33537885629E+03  0.37442714399E+03  0.00000000000E+00 0.  1.
          4    1    6    6  502    0  0.11223064201E+03 -0.51113239108E+02  0.21918737933E+03  0.25149828523E+03  0.00000000000E+00 0. -1.
          3    1    5    5  503    0 -0.62762727528E+01 -0.28638782114E+03 -0.52312891786E+03  0.59642370878E+03  0.00000000000E+00 0. -1.
         -4    1    5    5    0  503  0.38393472667E+02 -0.92674125005E+02 -0.23234500842E+03  0.25307460387E+03  0.00000000000E+00 0.  1.
         -3    1    6    6    0  502  0.35525020527E+02 -0.28548186456E+02  0.15866451417E+02  0.48257334302E+02  0.00000000000E+00 0.  1.
<mgrwt>
<rscale>  0 0.16278080E+04</rscale>
<asrwt>0</asrwt>
<pdfrwt beam="1">  1        1 0.26427257E+00 0.16278080E+04</pdfrwt>
<pdfrwt beam="2">  1       -1 0.59329074E-01 0.16278080E+04</pdfrwt>
<totfact> 0.12778590E+01</totfact>
</mgrwt>
</event>
<event>
12    1  0.1397649E-007  0.1065566E+04  0.7818608E-02  0.9239419E-01
          1   -1    0    0  501    0  0.00000000000E+00  0.00000000000E+00  0.47696918683E+03  0.47696918683E+03  0.00000000000E+00 0. -1.
         -1   -1    0    0    0  501 -0.00000000000E+00 -0.00000000000E+00 -0.59512844841E+03  0.59512844841E+03  0.00000000000E+00 0.  1.
         23    2    1    2    0    0  0.24642925397E+01 -0.11828841251E+03  0.46270665579E+02  0.15735882174E+03  0.92857972281E+02 0.  0.
        254    2    1    2    0    0 -0.24642925397E+01  0.11828841251E+03 -0.16442992715E+03  0.91473881349E+03  0.89202672309E+03 0.  0.
        -24    2    4    4    0    0  0.11170111132E+03 -0.31063777498E+02 -0.50138012999E+03  0.52081690019E+03  0.80163035307E+02 0.  0.
         24    2    4    4    0    0 -0.11416540386E+03  0.14935219001E+03  0.33695020284E+03  0.39392191330E+03  0.79367616104E+02 0.  0.
         11    1    3    3    0    0  0.99094378010E+01 -0.97161047221E+02 -0.86481045043E+01  0.98047211924E+02  0.00000000000E+00 0.  1.
        -11    1    3    3    0    0 -0.74451452613E+01 -0.21127365288E+02  0.54918770084E+02  0.59311609820E+02  0.00000000000E+00 0. -1.
          4    1    6    6  502    0 -0.54981778504E+02  0.10546813708E+03  0.26714803668E+03  0.29242879032E+03  0.00000000000E+00 0. -1.
          3    1    5    5  503    0  0.34917879285E+02 -0.90988232410E+01 -0.32739798198E+03  0.32938045704E+03  0.00000000000E+00 0. -1.
         -4    1    5    5    0  503  0.76783232037E+02 -0.21964954257E+02 -0.17398214802E+03  0.19143644315E+03  0.00000000000E+00 0.  1.
         -3    1    6    6    0  502 -0.59183625358E+02  0.43884052926E+02  0.69802166164E+02  0.10149312298E+03  0.00000000000E+00 0.  1.
<mgrwt>
<rscale>  0 0.10655664E+04</rscale>
<asrwt>0</asrwt>
<pdfrwt beam="1">  1        1 0.73379875E-01 0.10655664E+04</pdfrwt>
<pdfrwt beam="2">  1       -1 0.91558223E-01 0.10655664E+04</pdfrwt>
<totfact> 0.54959211E+01</totfact>
</mgrwt>
</event>
<event>
12    1  0.1397649E-007  0.1158332E+04  0.7818608E-02  0.9150132E-01
          2   -1    0    0  501    0  0.00000000000E+00  0.00000000000E+00  0.35044667660E+04  0.35044667660E+04  0.00000000000E+00 0. -1.
         -2   -1    0    0    0  501 -0.00000000000E+00 -0.00000000000E+00 -0.95715840386E+02  0.95715840386E+02  0.00000000000E+00 0.  1.
         23    2    1    2    0    0  0.90016132643E+02 -0.12238834836E+03  0.16082366309E+03  0.23947224006E+03  0.91656375667E+02 0.  0.
        254    2    1    2    0    0 -0.90016132643E+02  0.12238834836E+03  0.32479272625E+04  0.33607103663E+04  0.84985931289E+03 0.  0.
        -24    2    4    4    0    0  0.16993683232E+03  0.39476465241E+02  0.13428177382E+03  0.23408745280E+03  0.79551382730E+02 0.  0.
         24    2    4    4    0    0 -0.25995296496E+03  0.82911883123E+02  0.31136454887E+04  0.31266229135E+04  0.80825055753E+02 0.  0.
         13    1    3    3    0    0 -0.60997939173E+01 -0.12049624457E+02  0.60654405227E+02  0.62139824661E+02  0.00000000000E+00 0. -1.
        -13    1    3    3    0    0  0.96115926560E+02 -0.11033872391E+03  0.10016925786E+03  0.17733241540E+03  0.00000000000E+00 0.  1.
          2    1    6    6  502    0 -0.51262167732E+02 -0.15900544525E+02  0.58425691983E+03  0.58671695520E+03  0.00000000000E+00 0. -1.
          3    1    5    5  503    0  0.48561792224E+02  0.45591674671E+02  0.26631022942E+02  0.71736042868E+02  0.00000000000E+00 0. -1.
         -4    1    5    5    0  503  0.12137504009E+03 -0.61152094305E+01  0.10765075087E+03  0.16235140993E+03  0.00000000000E+00 0.  1.
         -1    1    6    6    0  502 -0.20869079723E+03  0.98812427648E+02  0.25293885689E+04  0.25399059583E+04  0.00000000000E+00 0.  1.
<mgrwt>
<rscale>  0 0.11583315E+04</rscale>
<asrwt>0</asrwt>
<pdfrwt beam="1">  1        2 0.53914863E+00 0.11583315E+04</pdfrwt>
<pdfrwt beam="2">  1       -2 0.14725517E-01 0.11583315E+04</pdfrwt>
<totfact> 0.29761042E+01</totfact>
</mgrwt>
</event>
<event>
12    1  0.1397649E-007  0.1124858E+04  0.7818608E-02  0.9181296E-01
          3   -1    0    0  501    0  0.00000000000E+00  0.00000000000E+00  0.33467139486E+03  0.33467139486E+03  0.00000000000E+00 0. -1.
         -3   -1    0    0    0  501 -0.00000000000E+00 -0.00000000000E+00 -0.94518557650E+03  0.94518557650E+03  0.00000000000E+00 0.  1.
         23    2    1    2    0    0 -0.16553374259E+03  0.91031417354E+01 -0.37838472375E+02  0.19253066009E+03  0.90288526177E+02 0.  0.
        254    2    1    2    0    0  0.16553374259E+03 -0.91031417354E+01 -0.57267570927E+03  0.10873263113E+04  0.90930564282E+03 0.  0.
        -24    2    4    4    0    0 -0.69151846782E+02  0.32257926598E+03  0.46339757745E+02  0.34263260559E+03  0.80064776970E+02 0.  0.
         24    2    4    4    0    0  0.23468558937E+03 -0.33168240772E+03 -0.61901546701E+03  0.74469370568E+03  0.79360074520E+02 0.  0.
         13    1    3    3    0    0 -0.13562650576E+03  0.23621482985E+02 -0.62446508952E+02  0.15116907753E+03  0.00000000000E+00 0. -1.
        -13    1    3    3    0    0 -0.29907236831E+02 -0.14518341249E+02  0.24608036577E+02  0.41361582558E+02  0.00000000000E+00 0.  1.
          2    1    6    6  502    0  0.27160389289E+02 -0.90576783455E+01 -0.27626116965E+02  0.39786060648E+02  0.00000000000E+00 0. -1.
          1    1    5    5  503    0 -0.16001970706E+01  0.17520091213E+03  0.48032338999E+01  0.17527404628E+03  0.00000000000E+00 0. -1.
         -2    1    5    5    0  503 -0.67551649712E+02  0.14737835385E+03  0.41536523845E+02  0.16735855931E+03  0.00000000000E+00 0.  1.
         -1    1    6    6    0  502  0.20752520008E+03 -0.32262472937E+03 -0.59138935005E+03  0.70490764503E+03  0.00000000000E+00 0.  1.
<mgrwt>
<rscale>  0 0.11248583E+04</rscale>
<asrwt>0</asrwt>
<pdfrwt beam="1">  1        3 0.51487906E-01 0.11248583E+04</pdfrwt>
<pdfrwt beam="2">  1       -3 0.14541317E+00 0.11248583E+04</pdfrwt>
<totfact> 0.33921137E+00</totfact>
</mgrwt>
</event>
<event>
12    1  0.1397649E-007  0.1073818E+04  0.7818608E-02  0.9231094E-01
          2   -1    0    0  501    0  0.00000000000E+00  0.00000000000E+00  0.21072815046E+03  0.21072815046E+03  0.00000000000E+00 0. -1.
         -2   -1    0    0    0  501 -0.00000000000E+00 -0.00000000000E+00 -0.13679760335E+04  0.13679760335E+04  0.00000000000E+00 0.  1.
         23    2    1    2    0    0  0.47241013427E+02 -0.41114348394E+02 -0.33202205857E+03  0.34993594558E+03  0.91073682479E+02 0.  0.
        254    2    1    2    0    0 -0.47241013427E+02  0.41114348394E+02 -0.82522582448E+03  0.12287682384E+04  0.90826847314E+03 0.  0.
        -24    2    4    4    0    0 -0.15172012173E+03 -0.20098392980E+03  0.85248013018E+02  0.27743299528E+03  0.79298850995E+02 0.  0.
         24    2    4    4    0    0  0.10447910830E+03  0.24209827820E+03 -0.91047383750E+03  0.95133524312E+03  0.80923887989E+02 0.  0.
         11    1    3    3    0    0 -0.12618089055E+02 -0.47766251885E+02 -0.12776019005E+03  0.13697991514E+03  0.00000000000E+00 0.  1.
        -11    1    3    3    0    0  0.59859102482E+02  0.66519034910E+01 -0.20426186851E+03  0.21295603043E+03  0.00000000000E+00 0. -1.
          2    1    6    6  502    0  0.75364147130E+02  0.23304357927E+03 -0.79250182265E+03  0.82948671082E+03  0.00000000000E+00 0. -1.
          3    1    5    5  503    0 -0.15612951026E+03 -0.16736205897E+03  0.82938697495E+02  0.24344467605E+03  0.00000000000E+00 0. -1.
         -4    1    5    5    0  503  0.44093885294E+01 -0.33621870837E+02  0.23093155227E+01  0.33988319228E+02  0.00000000000E+00 0.  1.
         -1    1    6    6    0  502  0.29114961175E+02  0.90546989239E+01 -0.11797201485E+03  0.12184853230E+03  0.00000000000E+00 0.  1.
<mgrwt>
<rscale>  0 0.10738176E+04</rscale>
<asrwt>0</asrwt>
<pdfrwt beam="1">  1        2 0.32419716E-01 0.10738176E+04</pdfrwt>
<pdfrwt beam="2">  1       -2 0.21045785E+00 0.10738176E+04</pdfrwt>
<totfact> 0.18463511E+01</totfact>
</mgrwt>
</event>
<event>
12    1  0.1397649E-007  0.3343824E+04  0.7818608E-02  0.8151833E-01
          1   -1    0    0  501    0  0.00000000000E+00  0.00000000000E+00  0.12946375512E+04  0.12946375512E+04  0.00000000000E+00 0. -1.
         -1   -1    0    0    0  501 -0.00000000000E+00 -0.00000000000E+00 -0.21591295784E+04  0.21591295784E+04  0.00000000000E+00 0.  1.
         23    2    1    2    0    0  0.10710568553E+04  0.37855391572E+03 -0.14993402900E+04  0.18835633411E+04  0.96559309844E+02 0.  0.
        254    2    1    2    0    0 -0.10710568553E+04 -0.37855391572E+03  0.63484826274E+03  0.15702037885E+04  0.87865907281E+03 0.  0.
        -24    2    4    4    0    0 -0.25744687032E+02  0.17873610386E+02  0.42113201088E+03  0.42939074201E+03  0.77730199288E+02 0.  0.
         24    2    4    4    0    0 -0.10453121683E+04 -0.39642752610E+03  0.21371625187E+03  0.11408130465E+04  0.77119764564E+02 0.  0.
         11    1    3    3    0    0  0.83570452806E+03  0.32076615562E+03 -0.11259336803E+04  0.14384087170E+04  0.00000000000E+00 0.  1.
        -11    1    3    3    0    0  0.23535232723E+03  0.57787760093E+02 -0.37340660971E+03  0.44515462407E+03  0.00000000000E+00 0. -1.
          4    1    6    6  502    0 -0.14518974250E+03 -0.31495977896E+02  0.14164333883E+02  0.14924036420E+03  0.00000000000E+00 0. -1.
          3    1    5    5  503    0 -0.45409307545E+02  0.15711364092E+02  0.14934340446E+03  0.15688309223E+03  0.00000000000E+00 0. -1.
         -4    1    5    5    0  503  0.19664620513E+02  0.21622462945E+01  0.27178860642E+03  0.27250764978E+03  0.00000000000E+00 0.  1.
         -3    1    6    6    0  502 -0.90012242576E+03 -0.36493154821E+03  0.19955191798E+03  0.99157268226E+03  0.00000000000E+00 0.  1.
<mgrwt>
<rscale>  0 0.33438243E+04</rscale>
<asrwt>0</asrwt>
<pdfrwt beam="1">  1        1 0.19917501E+00 0.33438243E+04</pdfrwt>
<pdfrwt beam="2">  1       -1 0.33217378E+00 0.33438243E+04</pdfrwt>
<totfact> 0.15361716E-01</totfact>
</mgrwt>
</event>
<event>
12    1  0.1397649E-007  0.1346716E+04  0.7818608E-02  0.8993317E-01
          2   -1    0    0  501    0  0.00000000000E+00  0.00000000000E+00  0.49350724854E+03  0.49350724854E+03  0.00000000000E+00 0. -1.
         -2   -1    0    0    0  501 -0.00000000000E+00 -0.00000000000E+00 -0.91875295900E+03  0.91875295900E+03  0.00000000000E+00 0.  1.
         23    2    1    2    0    0 -0.37832810272E+02  0.23017931913E+03 -0.40345093473E+03  0.47517203984E+03  0.92746807046E+02 0.  0.
        254    2    1    2    0    0  0.37832810272E+02 -0.23017931913E+03 -0.21794775728E+02  0.93708816770E+03  0.90732870632E+03 0.  0.
        -24    2    4    4    0    0 -0.67673203055E+02  0.14090833751E+03  0.35260444066E+03  0.39362208903E+03  0.78572485068E+02 0.  0.
         24    2    4    4    0    0  0.10550601333E+03 -0.37108765664E+03 -0.37439921639E+03  0.54346607867E+03  0.79643189794E+02 0.  0.
         13    1    3    3    0    0 -0.24190432031E+02  0.13372750745E+03 -0.14382600551E+03  0.19787405872E+03  0.00000000000E+00 0. -1.
        -13    1    3    3    0    0 -0.13642378242E+02  0.96451811674E+02 -0.25962492922E+03  0.27729798112E+03  0.00000000000E+00 0.  1.
          4    1    6    6  502    0  0.42318331381E+02 -0.23884235588E+03 -0.19123989620E+03  0.30888381316E+03  0.00000000000E+00 0. -1.
          3    1    5    5  503    0 -0.71810612968E+02  0.12263929659E+03  0.23572836013E+03  0.27525446585E+03  0.00000000000E+00 0. -1.
         -4    1    5    5    0  503  0.41374099129E+01  0.18269040920E+02  0.11687608053E+03  0.11836762318E+03  0.00000000000E+00 0.  1.
         -3    1    6    6    0  502  0.63187681947E+02 -0.13224530075E+03 -0.18315932019E+03  0.23458226551E+03  0.00000000000E+00 0.  1.
<mgrwt>
<rscale>  0 0.13467164E+04</rscale>
<asrwt>0</asrwt>
<pdfrwt beam="1">  1        2 0.75924192E-01 0.13467164E+04</pdfrwt>
<pdfrwt beam="2">  1       -2 0.14134661E+00 0.13467164E+04</pdfrwt>
<totfact> 0.21382806E+01</totfact>
</mgrwt>
</event>
<event>
12    1  0.1397649E-007  0.2625390E+04  0.7818608E-02  0.8359628E-01
          1   -1    0    0  501    0  0.00000000000E+00  0.00000000000E+00  0.14628083238E+04  0.14628083238E+04  0.00000000000E+00 0. -1.
         -1   -1    0    0    0  501 -0.00000000000E+00 -0.00000000000E+00 -0.11779861621E+04  0.11779861621E+04  0.00000000000E+00 0.  1.
         23    2    1    2    0    0 -0.28576386304E+02  0.55589304888E+03  0.11487388398E+04  0.12797739628E+04  0.91579376620E+02 0.  0.
        254    2    1    2    0    0  0.28576386304E+02 -0.55589304888E+03 -0.86391667809E+03  0.13610205230E+04  0.89229543639E+03 0.  0.
        -24    2    4    4    0    0 -0.40154205902E+03 -0.10233914035E+03 -0.35336456784E+03  0.54997849674E+03  0.76814739821E+02 0.  0.
         24    2    4    4    0    0  0.43011844533E+03 -0.45355390853E+03 -0.51055211025E+03  0.81104202630E+03  0.80079249495E+02 0.  0.
         13    1    3    3    0    0  0.64970829381E+01  0.48444023558E+03  0.99117188825E+03  0.11032435207E+04  0.00000000000E+00 0. -1.
        -13    1    3    3    0    0 -0.35073469242E+02  0.71452813296E+02  0.15756695154E+03  0.17653044210E+03  0.00000000000E+00 0.  1.
          2    1    6    6  502    0  0.29688347402E+03 -0.28086555667E+03 -0.37204089538E+03  0.55266598041E+03  0.00000000000E+00 0. -1.
          1    1    5    5  503    0 -0.39494656081E+03 -0.10137877253E+03 -0.35737767379E+03  0.54219852742E+03  0.00000000000E+00 0. -1.
         -2    1    5    5    0  503 -0.65954982182E+01 -0.96036781794E+00  0.40131059553E+01  0.77799693123E+01  0.00000000000E+00 0.  1.
         -1    1    6    6    0  502  0.13323497131E+03 -0.17268835186E+03 -0.13851121487E+03  0.25837604589E+03  0.00000000000E+00 0.  1.
<mgrwt>
<rscale>  0 0.26253898E+04</rscale>
<asrwt>0</asrwt>
<pdfrwt beam="1">  1        1 0.22504743E+00 0.26253898E+04</pdfrwt>
<pdfrwt beam="2">  1       -1 0.18122864E+00 0.26253898E+04</pdfrwt>
<totfact> 0.12443557E+00</totfact>
</mgrwt>
</event>
<event>
12    1  0.1397649E-007  0.1929895E+04  0.7818608E-02  0.8640117E-01
          2   -1    0    0  501    0  0.00000000000E+00  0.00000000000E+00  0.18639647054E+04  0.18639647054E+04  0.00000000000E+00 0. -1.
         -2   -1    0    0    0  501 -0.00000000000E+00 -0.00000000000E+00 -0.49953914271E+03  0.49953914271E+03  0.00000000000E+00 0.  1.
         23    2    1    2    0    0 -0.72930762467E+03 -0.48703749911E+02  0.31702886962E+03  0.80169812751E+03  0.89167913628E+02 0.  0.
        254    2    1    2    0    0  0.72930762467E+03  0.48703749911E+02  0.10473966931E+04  0.15618057206E+04  0.89885238474E+03 0.  0.
        -24    2    4    4    0    0  0.36732553949E+03  0.46294069339E+03  0.61951233759E+03  0.86017371425E+03  0.82832027069E+02 0.  0.
         24    2    4    4    0    0  0.36198208518E+03 -0.41423694348E+03  0.42788435547E+03  0.70163200633E+03  0.81112115709E+02 0.  0.
         13    1    3    3    0    0 -0.50132585229E+03 -0.14463781772E+02  0.17639600590E+03  0.53165060148E+03  0.00000000000E+00 0.  1.
        -13    1    3    3    0    0 -0.22798177238E+03 -0.34239968139E+02  0.14063286372E+03  0.27004752603E+03  0.00000000000E+00 0. -1.
          2    1    6    6  502    0  0.63659491243E+02 -0.35767652783E+02  0.41780274543E+02  0.84127564757E+02  0.00000000000E+00 0. -1.
          3    1    5    5  503    0  0.42280915353E+02  0.10187283621E+03  0.13029562412E+03  0.17071233179E+03  0.00000000000E+00 0. -1.
         -4    1    5    5    0  503  0.32504462413E+03  0.36106785718E+03  0.48921671346E+03  0.68946138246E+03  0.00000000000E+00 0.  1.
         -3    1    6    6    0  502  0.29832259394E+03 -0.37846929070E+03  0.38610408093E+03  0.61750444157E+03  0.00000000000E+00 0.  1.
<mgrwt>
<rscale>  0 0.19298946E+04</rscale>
<asrwt>0</asrwt>
<pdfrwt beam="1">  1        2 0.28676380E+00 0.19298946E+04</pdfrwt>
<pdfrwt beam="2">  1       -2 0.76852177E-01 0.19298946E+04</pdfrwt>
<totfact> 0.11235060E+01</totfact>
</mgrwt>
</event>
<event>
12    1  0.1397649E-007  0.1119658E+04  0.7818608E-02  0.9186241E-01
         -2   -1    0    0    0  501 -0.00000000000E+00  0.00000000000E+00  0.48005647878E+03  0.48005647878E+03  0.00000000000E+00 0. -1.
          2   -1    0    0  501    0  0.00000000000E+00 -0.00000000000E+00 -0.65285717928E+03  0.65285717928E+03  0.00000000000E+00 0.  1.
         23    2    1    2    0    0  0.15925293100E+03 -0.12746768966E+03  0.10821232045E+03  0.25028945700E+03  0.96568100575E+02 0.  0.
        254    2    1    2    0    0 -0.15925293100E+03  0.12746768966E+03 -0.28101302094E+03  0.88262420106E+03  0.81144787536E+03 0.  0.
        -24    2    4    4    0    0 -0.29247880491E+03  0.17240467124E+03  0.18119610739E+03  0.39300774270E+03  0.79723487779E+02 0.  0.
         24    2    4    4    0    0  0.13322587392E+03 -0.44936981579E+02 -0.46220912833E+03  0.48961645836E+03  0.79489195435E+02 0.  0.
         11    1    3    3    0    0  0.98577376703E+02 -0.90462384846E+02  0.11819185540E+03  0.17852242703E+03  0.00000000000E+00 0. -1.
        -11    1    3    3    0    0  0.60675554293E+02 -0.37005304813E+02 -0.99795349444E+01  0.71767029970E+02  0.00000000000E+00 0.  1.
          4    1    6    6  502    0  0.11164259496E+03 -0.44659881270E+00 -0.30354328115E+03  0.32342354892E+03  0.00000000000E+00 0. -1.
          3    1    5    5  503    0 -0.20812843083E+03  0.10780242687E+03  0.83935328414E+02  0.24896575330E+03  0.00000000000E+00 0. -1.
         -4    1    5    5    0  503 -0.84350374083E+02  0.64602244373E+02  0.97260778973E+02  0.14404198941E+03  0.00000000000E+00 0.  1.
         -3    1    6    6    0  502  0.21583278958E+02 -0.44490382767E+02 -0.15866584718E+03  0.16619290944E+03  0.00000000000E+00 0.  1.
<mgrwt>
<rscale>  0 0.11196577E+04</rscale>
<asrwt>0</asrwt>
<pdfrwt beam="1">  1        2 0.10043957E+00 0.11196577E+04</pdfrwt>
<pdfrwt beam="2">  1       -2 0.73854843E-01 0.11196577E+04</pdfrwt>
<totfact> 0.73315462E+01</totfact>
</mgrwt>
</event>
<event>
12    1  0.1397649E-007  0.1647800E+04  0.7818608E-02  0.8791709E-01
         -1   -1    0    0    0  501 -0.00000000000E+00  0.00000000000E+00  0.11855084958E+04  0.11855084958E+04  0.00000000000E+00 0.  1.
          1   -1    0    0  501    0  0.00000000000E+00 -0.00000000000E+00 -0.57259052734E+03  0.57259052734E+03  0.00000000000E+00 0. -1.
         23    2    1    2    0    0 -0.49920388227E+03  0.28249901214E+03  0.19941703833E+03  0.61390186602E+03  0.89989654899E+02 0.  0.
        254    2    1    2    0    0  0.49920388227E+03 -0.28249901214E+03  0.41350093017E+03  0.11441971572E+04  0.89955205924E+03 0.  0.
        -24    2    4    4    0    0  0.25229568639E+03 -0.55141999895E+03  0.46331918621E+03  0.76731048191E+03  0.79897301102E+02 0.  0.
         24    2    4    4    0    0  0.24690819589E+03  0.26892098681E+03 -0.49818256038E+02  0.37688667526E+03  0.79243630717E+02 0.  0.
         11    1    3    3    0    0 -0.64709839224E+02  0.25782028212E+02  0.55648270347E+02  0.89156078109E+02  0.00000000000E+00 0.  1.
        -11    1    3    3    0    0 -0.43449404305E+03  0.25671698393E+03  0.14376876798E+03  0.52474578791E+03  0.00000000000E+00 0. -1.
          4    1    6    6  502    0  0.18033614021E+03  0.17833062559E+03 -0.69006679485E+02  0.26283998422E+03  0.00000000000E+00 0. -1.
          3    1    5    5  503    0  0.19591141703E+03 -0.49093158215E+03  0.40953428197E+03  0.66866540944E+03  0.00000000000E+00 0. -1.
         -4    1    5    5    0  503  0.56384269357E+02 -0.60488416807E+02  0.53784904243E+02  0.98645072473E+02  0.00000000000E+00 0.  1.
         -3    1    6    6    0  502  0.66572055675E+02  0.90590361224E+02  0.19188423448E+02  0.11404669104E+03  0.00000000000E+00 0.  1.
<mgrwt>
<rscale>  0 0.16477997E+04</rscale>
<asrwt>0</asrwt>
<pdfrwt beam="1">  1        1 0.88090851E-01 0.16477997E+04</pdfrwt>
<pdfrwt beam="2">  1       -1 0.18238592E+00 0.16477997E+04</pdfrwt>
<totfact> 0.70038536E+00</totfact>
</mgrwt>
</event>
<event>
12    1  0.1397649E-007  0.2231745E+04  0.7818608E-02  0.8505330E-01
         -1   -1    0    0    0  501 -0.00000000000E+00  0.00000000000E+00  0.19895995055E+04  0.19895995055E+04  0.00000000000E+00 0.  1.
          1   -1    0    0  501    0  0.00000000000E+00 -0.00000000000E+00 -0.62584048341E+03  0.62584048341E+03  0.00000000000E+00 0. -1.
         23    2    1    2    0    0 -0.23176865643E+03 -0.30851021063E+03 -0.42249520441E+03  0.57939121306E+03  0.91086331862E+02 0.  0.
        254    2    1    2    0    0  0.23176865643E+03  0.30851021063E+03  0.17862542265E+04  0.20360487759E+04  0.89771665676E+03 0.  0.
        -24    2    4    4    0    0  0.29380559262E+03  0.59723181966E+03  0.12562291412E+04  0.14238723290E+04  0.79329574180E+02 0.  0.
         24    2    4    4    0    0 -0.62036936188E+02 -0.28872160904E+03  0.53002508530E+03  0.61217644689E+03  0.81392027262E+02 0.  0.
         13    1    3    3    0    0 -0.17705415427E+03 -0.17964252073E+03 -0.31094497743E+03  0.40038280156E+03  0.00000000000E+00 0. -1.
        -13    1    3    3    0    0 -0.54714502161E+02 -0.12886768990E+03 -0.11155022698E+03  0.17900841149E+03  0.00000000000E+00 0.  1.
          2    1    6    6  502    0  0.71743551819E+01 -0.14599495907E+02  0.71700024423E+01  0.17777108540E+02  0.00000000000E+00 0. -1.
          1    1    5    5  503    0  0.89296745408E+02  0.18394567956E+03  0.46711550044E+03  0.50990863154E+03  0.00000000000E+00 0. -1.
         -4    1    5    5    0  503  0.20450884721E+03  0.41328614010E+03  0.78911364079E+03  0.91396369746E+03  0.00000000000E+00 0.  1.
         -1    1    6    6    0  502 -0.69211291370E+02 -0.27412211313E+03  0.52285508286E+03  0.59439933835E+03  0.00000000000E+00 0.  1.
<mgrwt>
<rscale>  0 0.22317454E+04</rscale>
<asrwt>0</asrwt>
<pdfrwt beam="1">  1        1 0.96283152E-01 0.22317454E+04</pdfrwt>
<pdfrwt beam="2">  1       -1 0.30609223E+00 0.22317454E+04</pdfrwt>
<totfact> 0.88323028E-01</totfact>
</mgrwt>
</event>
<event>
12    1  0.1397649E-007  0.1414672E+04  0.7818608E-02  0.8943266E-01
         -1   -1    0    0    0  501 -0.00000000000E+00  0.00000000000E+00  0.36473562097E+03  0.36473562097E+03  0.00000000000E+00 0.  1.
          1   -1    0    0  501    0  0.00000000000E+00 -0.00000000000E+00 -0.13717450048E+04  0.13717450048E+04  0.00000000000E+00 0. -1.
         23    2    1    2    0    0  0.38932264781E+03  0.11796469344E+03 -0.40019335786E+03  0.57816642629E+03  0.92918780746E+02 0.  0.
        254    2    1    2    0    0 -0.38932264781E+03 -0.11796469344E+03 -0.60681602592E+03  0.11583141994E+04  0.89887613290E+03 0.  0.
        -24    2    4    4    0    0 -0.42673016771E+03  0.15893764410E+03  0.24734144536E+02  0.46296823521E+03  0.79799737812E+02 0.  0.
         24    2    4    4    0    0  0.37407519900E+02 -0.27690233754E+03 -0.63155017046E+03  0.69534596423E+03  0.81093557561E+02 0.  0.
         13    1    3    3    0    0  0.37619818100E+03  0.11347821865E+03 -0.35041313028E+03  0.52649001830E+03  0.00000000000E+00 0. -1.
        -13    1    3    3    0    0  0.13124466816E+02  0.44864747872E+01 -0.49780227576E+02  0.51676407990E+02  0.00000000000E+00 0.  1.
          2    1    6    6  502    0  0.21150240694E+02 -0.25551401133E+03 -0.60710703808E+03  0.65902480860E+03  0.00000000000E+00 0. -1.
          1    1    5    5  503    0 -0.41991385263E+03  0.14800028789E+03  0.34836619617E+02  0.44659301262E+03  0.00000000000E+00 0. -1.
         -2    1    5    5    0  503 -0.68163150760E+01  0.10937356210E+02 -0.10102475080E+02  0.16375222588E+02  0.00000000000E+00 0.  1.
         -1    1    6    6    0  502  0.16257279206E+02 -0.21388326214E+02 -0.24443132380E+02  0.36321155625E+02  0.00000000000E+00 0.  1.
<mgrwt>
<rscale>  0 0.14146721E+04</rscale>
<asrwt>0</asrwt>
<pdfrwt beam="1">  1        1 0.21103770E+00 0.14146721E+04</pdfrwt>
<pdfrwt beam="2">  1       -1 0.56113171E-01 0.14146721E+04</pdfrwt>
<totfact> 0.25169176E+01</totfact>
</mgrwt>
</event>
<event>
12    1  0.1397649E-007  0.2804045E+04  0.7818608E-02  0.8302014E-01
         -1   -1    0    0    0  501 -0.00000000000E+00  0.00000000000E+00  0.81120135222E+03  0.81120135222E+03  0.00000000000E+00 0.  1.
          1   -1    0    0  501    0  0.00000000000E+00 -0.00000000000E+00 -0.24231557052E+04  0.24231557052E+04  0.00000000000E+00 0. -1.
         23    2    1    2    0    0  0.22907940492E+03  0.12328845428E+04 -0.62256871647E+03  0.14044126614E+04  0.11091188971E+03 0.  0.
        254    2    1    2    0    0 -0.22907940492E+03 -0.12328845428E+04 -0.98938563648E+03  0.18299443960E+04  0.89293386384E+03 0.  0.
        -24    2    4    4    0    0 -0.28464856543E+03 -0.82363900837E+02  0.42733234295E+01  0.30684056642E+03  0.79525178074E+02 0.  0.
         24    2    4    4    0    0  0.55569160513E+02 -0.11505206419E+04 -0.99365895991E+03  0.15231038296E+04  0.75508065269E+02 0.  0.
         11    1    3    3    0    0  0.10432437002E+03  0.79973289051E+03 -0.36504583376E+03  0.88527664099E+03  0.00000000000E+00 0.  1.
        -11    1    3    3    0    0  0.12475503489E+03  0.43315165225E+03 -0.25752288271E+03  0.51913602042E+03  0.00000000000E+00 0. -1.
          2    1    6    6  502    0  0.66530231362E+02 -0.10702325140E+04 -0.90684077755E+03  0.14043447232E+04  0.00000000000E+00 0. -1.
          1    1    5    5  503    0 -0.28394160798E+03 -0.86831204046E+02  0.12790408199E+02  0.29719705463E+03  0.00000000000E+00 0. -1.
         -2    1    5    5    0  503 -0.70695745215E+00  0.44673032088E+01 -0.85170847697E+01  0.96435117967E+01  0.00000000000E+00 0.  1.
         -1    1    6    6    0  502 -0.10961070849E+02 -0.80288127944E+02 -0.86818182352E+02  0.11875910639E+03  0.00000000000E+00 0.  1.
<mgrwt>
<rscale>  0 0.28040451E+04</rscale>
<asrwt>0</asrwt>
<pdfrwt beam="1">  1        1 0.37279318E+00 0.28040451E+04</pdfrwt>
<pdfrwt beam="2">  1       -1 0.12480021E+00 0.28040451E+04</pdfrwt>
<totfact> 0.74431492E-01</totfact>
</mgrwt>
</event>
<event>
12    1  0.1397649E-007  0.2522750E+04  0.7818608E-02  0.8394925E-01
         -1   -1    0    0    0  501 -0.00000000000E+00  0.00000000000E+00  0.98760396065E+03  0.98760396065E+03  0.00000000000E+00 0.  1.
          1   -1    0    0  501    0  0.00000000000E+00 -0.00000000000E+00 -0.16110379665E+04  0.16110379665E+04  0.00000000000E+00 0. -1.
         23    2    1    2    0    0  0.82980825809E+03  0.75905015174E+02  0.46996465127E+03  0.96234230893E+03  0.10436776125E+03 0.  0.
        254    2    1    2    0    0 -0.82980825809E+03 -0.75905015174E+02 -0.10933986571E+04  0.16362996182E+04  0.88747535214E+03 0.  0.
        -24    2    4    4    0    0  0.48531878561E+02  0.25585628001E+03 -0.29331718612E+03  0.39986675700E+03  0.77721762884E+02 0.  0.
         24    2    4    4    0    0 -0.87834013666E+03 -0.33176129518E+03 -0.80008147100E+03  0.12364328612E+04  0.84195649690E+02 0.  0.
         13    1    3    3    0    0  0.20278748287E+03  0.11220321721E+02  0.16712828706E+03  0.26302190624E+03  0.00000000000E+00 0. -1.
        -13    1    3    3    0    0  0.62702077522E+03  0.64684693453E+02  0.30283636421E+03  0.69932040269E+03  0.00000000000E+00 0.  1.
          2    1    6    6  502    0 -0.20512201082E+02 -0.22384307030E+02 -0.32492666453E+02  0.44470000761E+02  0.00000000000E+00 0. -1.
          1    1    5    5  503    0  0.30928263990E+02  0.26262601506E+02 -0.32824658824E+02  0.52189462329E+02  0.00000000000E+00 0. -1.
         -2    1    5    5    0  503  0.17603614571E+02  0.22959367850E+03 -0.26049252730E+03  0.34767729467E+03  0.00000000000E+00 0.  1.
         -1    1    6    6    0  502 -0.85782793557E+03 -0.30937698815E+03 -0.76758880455E+03  0.11919628605E+04  0.00000000000E+00 0.  1.
<mgrwt>
<rscale>  0 0.25227505E+04</rscale>
<asrwt>0</asrwt>
<pdfrwt beam="1">  1        1 0.24785199E+00 0.25227505E+04</pdfrwt>
<pdfrwt beam="2">  1       -1 0.15193907E+00 0.25227505E+04</pdfrwt>
<totfact> 0.16384013E+00</totfact>
</mgrwt>
</event>
<event>
12    1  0.1397649E-007  0.2790607E+04  0.7818608E-02  0.8306190E-01
          2   -1    0    0  501    0  0.00000000000E+00  0.00000000000E+00  0.20193201517E+04  0.20193201517E+04  0.00000000000E+00 0. -1.
         -2   -1    0    0    0  501 -0.00000000000E+00 -0.00000000000E+00 -0.96412232564E+03  0.96412232564E+03  0.00000000000E+00 0.  1.
         23    2    1    2    0    0  0.10574702578E+04 -0.14240453170E+03 -0.21967044343E+03  0.10933359297E+04  0.92768284595E+02 0.  0.
        254    2    1    2    0    0 -0.10574702578E+04  0.14240453170E+03  0.12748682695E+04  0.18901065477E+04  0.89927262849E+03 0.  0.
        -24    2    4    4    0    0 -0.98881020037E+03 -0.20217977730E+03  0.10817004010E+04  0.14815467907E+04  0.79264499470E+02 0.  0.
         24    2    4    4    0    0 -0.68660057410E+02  0.34458430900E+03  0.19316786852E+03  0.40855975699E+03  0.78451896800E+02 0.  0.
         13    1    3    3    0    0  0.58843770614E+03 -0.11062908242E+03 -0.88341282576E+02  0.60522880804E+03  0.00000000000E+00 0. -1.
        -13    1    3    3    0    0  0.46903255164E+03 -0.31775449274E+02 -0.13132916086E+03  0.48810712161E+03  0.00000000000E+00 0.  1.
          2    1    6    6  502    0  0.64134358383E+01  0.13302421471E+03  0.49726357994E+02  0.14215936317E+03  0.00000000000E+00 0. -1.
          3    1    5    5  503    0 -0.30820564007E+03 -0.32449061785E+02  0.30126318675E+03  0.43220731817E+03  0.00000000000E+00 0. -1.
         -4    1    5    5    0  503 -0.68060456029E+03 -0.16973071552E+03  0.78043721426E+03  0.10493394726E+04  0.00000000000E+00 0.  1.
         -1    1    6    6    0  502 -0.75073493249E+02  0.21156009429E+03  0.14344151052E+03  0.26640039382E+03  0.00000000000E+00 0.  1.
<mgrwt>
<rscale>  0 0.27906068E+04</rscale>
<asrwt>0</asrwt>
<pdfrwt beam="1">  1        2 0.31066464E+00 0.27906068E+04</pdfrwt>
<pdfrwt beam="2">  1       -2 0.14832651E+00 0.27906068E+04</pdfrwt>
<totfact> 0.17519900E+00</totfact>
</mgrwt>
</event>
<event>
12    1  0.1397649E-007  0.2971408E+04  0.7818608E-02  0.8251943E-01
          2   -1    0    0  501    0  0.00000000000E+00  0.00000000000E+00  0.19142713048E+04  0.19142713048E+04  0.00000000000E+00 0. -1.
         -2   -1    0    0    0  501 -0.00000000000E+00 -0.00000000000E+00 -0.11530846552E+04  0.11530846552E+04  0.00000000000E+00 0.  1.
         23    2    1    2    0    0 -0.74309611837E+03 -0.11250152574E+04  0.34077344171E+03  0.13936419523E+04  0.90885544059E+02 0.  0.
        254    2    1    2    0    0  0.74309611837E+03  0.11250152574E+04  0.42041320788E+03  0.16737140077E+04  0.89817600925E+03 0.  0.
        -24    2    4    4    0    0  0.57749479547E+03  0.12163117616E+04  0.18382977378E+03  0.13612738513E+04  0.79740657230E+02 0.  0.
         24    2    4    4    0    0  0.16560132290E+03 -0.91296504236E+02  0.23658343410E+03  0.31244015631E+03  0.76735129839E+02 0.  0.
         13    1    3    3    0    0 -0.58391531397E+03 -0.81221759609E+03  0.25686075352E+03  0.10327787585E+04  0.00000000000E+00 0.  1.
        -13    1    3    3    0    0 -0.15918080440E+03 -0.31279766128E+03  0.83912688190E+02  0.36086319379E+03  0.00000000000E+00 0. -1.
          4    1    6    6  502    0  0.15788147198E+03 -0.10238878582E+03  0.23066968531E+03  0.29768863999E+03  0.00000000000E+00 0. -1.
          3    1    5    5  503    0  0.41738728130E+03  0.83704947397E+03  0.15985866981E+03  0.94890397764E+03  0.00000000000E+00 0. -1.
         -4    1    5    5    0  503  0.16010751417E+03  0.37926228763E+03  0.23971103970E+02  0.41236987371E+03  0.00000000000E+00 0.  1.
         -3    1    6    6    0  502  0.77198509156E+01  0.11092281585E+02  0.59137487863E+01  0.14751516316E+02  0.00000000000E+00 0.  1.
<mgrwt>
<rscale>  0 0.29714083E+04</rscale>
<asrwt>0</asrwt>
<pdfrwt beam="1">  1        2 0.29450328E+00 0.29714083E+04</pdfrwt>
<pdfrwt beam="2">  1       -2 0.17739764E+00 0.29714083E+04</pdfrwt>
<totfact> 0.12094754E+00</totfact>
</mgrwt>
</event>
<event>
12    1  0.1397649E-007  0.1581317E+04  0.7818608E-02  0.8832109E-01
         -2   -1    0    0    0  501 -0.00000000000E+00  0.00000000000E+00  0.21502180984E+03  0.21502180984E+03  0.00000000000E+00 0. -1.
          2   -1    0    0  501    0  0.00000000000E+00 -0.00000000000E+00 -0.29073356209E+04  0.29073356209E+04  0.00000000000E+00 0.  1.
         23    2    1    2    0    0  0.34168314863E+03  0.42327646776E+03 -0.98243594555E+03  0.11267134601E+04  0.91610543860E+02 0.  0.
        254    2    1    2    0    0 -0.34168314863E+03 -0.42327646776E+03 -0.17098778655E+04  0.19956439707E+04  0.87349997169E+03 0.  0.
        -24    2    4    4    0    0 -0.31243818316E+02  0.15869819884E+03 -0.10273482743E+04  0.10430558810E+04  0.79748352363E+02 0.  0.
         24    2    4    4    0    0 -0.31043933032E+03 -0.58197466660E+03 -0.68252959126E+03  0.95258808972E+03  0.80686649177E+02 0.  0.
         13    1    3    3    0    0  0.11065973619E+03  0.10520790127E+03 -0.35291812027E+03  0.38453280656E+03  0.00000000000E+00 0.  1.
        -13    1    3    3    0    0  0.23102341244E+03  0.31806856649E+03 -0.62951782528E+03  0.74218065350E+03  0.00000000000E+00 0. -1.
          2    1    6    6  502    0 -0.24119871142E+03 -0.50753988819E+03 -0.59534293602E+03  0.81866157108E+03  0.00000000000E+00 0. -1.
          1    1    5    5  503    0 -0.41493540252E+02  0.81366123236E+02 -0.37051434004E+03  0.38160586483E+03  0.00000000000E+00 0. -1.
         -2    1    5    5    0  503  0.10249721936E+02  0.77332075606E+02 -0.65683393425E+03  0.66145001617E+03  0.00000000000E+00 0.  1.
         -1    1    6    6    0  502 -0.69240618899E+02 -0.74434778407E+02 -0.87186655232E+02  0.13392651863E+03  0.00000000000E+00 0.  1.
<mgrwt>
<rscale>  0 0.15813166E+04</rscale>
<asrwt>0</asrwt>
<pdfrwt beam="1">  1        2 0.44728240E+00 0.15813166E+04</pdfrwt>
<pdfrwt beam="2">  1       -2 0.33080279E-01 0.15813166E+04</pdfrwt>
<totfact> 0.16374799E+01</totfact>
</mgrwt>
</event>
<event>
12    1  0.1397649E-007  0.1330735E+04  0.7818608E-02  0.9005541E-01
          2   -1    0    0  501    0  0.00000000000E+00  0.00000000000E+00  0.79359930758E+03  0.79359930758E+03  0.00000000000E+00 0. -1.
         -2   -1    0    0    0  501 -0.00000000000E+00 -0.00000000000E+00 -0.55785583374E+03  0.55785583374E+03  0.00000000000E+00 0.  1.
         23    2    1    2    0    0 -0.11390124440E+03 -0.99698153563E+02  0.38196087181E+03  0.41772993844E+03  0.75438574854E+02 0.  0.
        254    2    1    2    0    0  0.11390124440E+03  0.99698153563E+02 -0.14621739798E+03  0.93372520288E+03  0.90969775845E+03 0.  0.
        -24    2    4    4    0    0  0.13785795460E+03 -0.37458718567E+03  0.56331642289E+02  0.41082817883E+03  0.79285328291E+02 0.  0.
         24    2    4    4    0    0 -0.23956710201E+02  0.47428533924E+03 -0.20254904027E+03  0.52289702405E+03  0.82913672379E+02 0.  0.
         11    1    3    3    0    0  0.93401808762E+01 -0.70260586459E+01  0.55066921497E+02  0.56293608181E+02  0.00000000000E+00 0.  1.
        -11    1    3    3    0    0 -0.12324142527E+03 -0.92672094917E+02  0.32689395032E+03  0.36143633026E+03  0.00000000000E+00 0. -1.
          2    1    6    6  502    0  0.19881915275E+02  0.29106368748E+03 -0.14577822217E+03  0.32613593912E+03  0.00000000000E+00 0. -1.
          1    1    5    5  503    0  0.13592870640E+03 -0.36110150001E+03  0.37598726638E+02  0.38766553983E+03  0.00000000000E+00 0. -1.
         -2    1    5    5    0  503  0.19292481994E+01 -0.13485685667E+02  0.18732915651E+02  0.23162638998E+02  0.00000000000E+00 0.  1.
         -1    1    6    6    0  502 -0.43838625475E+02  0.18322165176E+03 -0.56770818094E+02  0.19676108493E+03  0.00000000000E+00 0.  1.
<mgrwt>
<rscale>  0 0.13307351E+04</rscale>
<asrwt>0</asrwt>
<pdfrwt beam="1">  1        2 0.12209220E+00 0.13307351E+04</pdfrwt>
<pdfrwt beam="2">  1       -2 0.85823975E-01 0.13307351E+04</pdfrwt>
<totfact> 0.40153572E+01</totfact>
</mgrwt>
</event>
<event>
12    1  0.1397649E-007  0.1164460E+04  0.7818608E-02  0.9144546E-01
          2   -1    0    0  501    0  0.00000000000E+00  0.00000000000E+00  0.13478040020E+04  0.13478040020E+04  0.00000000000E+00 0. -1.
         -2   -1    0    0    0  501 -0.00000000000E+00 -0.00000000000E+00 -0.25151410527E+03  0.25151410527E+03  0.00000000000E+00 0.  1.
         23    2    1    2    0    0  0.11678120877E+03  0.13730241598E+03  0.49497746358E+02  0.20812565309E+03  0.91522983030E+02 0.  0.
        254    2    1    2    0    0 -0.11678120877E+03 -0.13730241598E+03  0.10467921504E+04  0.13911924542E+04  0.89841684889E+03 0.  0.
        -24    2    4    4    0    0  0.26469154169E+03 -0.24645420115E+03  0.87854941621E+03  0.95278951479E+03  0.71815717341E+02 0.  0.
         24    2    4    4    0    0 -0.38147275046E+03  0.10915178517E+03  0.16824273417E+03  0.43840293941E+03  0.80348914960E+02 0.  0.
         11    1    3    3    0    0  0.95846269564E+02  0.11636146930E+03  0.35748167365E+00  0.15075352971E+03  0.00000000000E+00 0.  1.
        -11    1    3    3    0    0  0.20934939205E+02  0.20940946679E+02  0.49140264685E+02  0.57372123376E+02  0.00000000000E+00 0. -1.
          4    1    6    6  502    0 -0.16686348298E+02  0.25639113395E+02  0.13887433620E+02  0.33595523031E+02  0.00000000000E+00 0. -1.
          3    1    5    5  503    0 -0.43456052226E+01 -0.73651009667E+01  0.26291839509E+02  0.27647600651E+02  0.00000000000E+00 0. -1.
         -4    1    5    5    0  503  0.26903714691E+03 -0.23908910018E+03  0.85225757670E+03  0.92514191414E+03  0.00000000000E+00 0.  1.
         -3    1    6    6    0  502 -0.36478640216E+03  0.83512671774E+02  0.15435530055E+03  0.40480741638E+03  0.00000000000E+00 0.  1.
<mgrwt>
<rscale>  0 0.11644599E+04</rscale>
<asrwt>0</asrwt>
<pdfrwt beam="1">  1        2 0.20735446E+00 0.11644599E+04</pdfrwt>
<pdfrwt beam="2">  1       -2 0.38694479E-01 0.11644599E+04</pdfrwt>
<totfact> 0.96712014E+01</totfact>
</mgrwt>
</event>
<event>
12    1  0.1397649E-007  0.2272169E+04  0.7818608E-02  0.8488976E-01
         -1   -1    0    0    0  501 -0.00000000000E+00  0.00000000000E+00  0.84216129003E+03  0.84216129003E+03  0.00000000000E+00 0.  1.
          1   -1    0    0  501    0  0.00000000000E+00 -0.00000000000E+00 -0.15325903858E+04  0.15325903858E+04  0.00000000000E+00 0. -1.
         23    2    1    2    0    0  0.75203185082E+03  0.38083666218E+03 -0.76100200993E+03  0.11393338106E+04  0.91482266236E+02 0.  0.
        254    2    1    2    0    0 -0.75203185082E+03 -0.38083666218E+03  0.70572914122E+02  0.12354178652E+04  0.90038230638E+03 0.  0.
        -24    2    4    4    0    0 -0.98684744879E+02 -0.54097302829E+03  0.10894938289E+02  0.55555012569E+03  0.78273534867E+02 0.  0.
         24    2    4    4    0    0 -0.65334710594E+03  0.16013636611E+03  0.59677975833E+02  0.67986773955E+03  0.78438421025E+02 0.  0.
         11    1    3    3    0    0  0.21088326141E+03  0.72765475314E+02 -0.16600355955E+03  0.27807147665E+03  0.00000000000E+00 0.  1.
        -11    1    3    3    0    0  0.54114858940E+03  0.30807118687E+03 -0.59499845037E+03  0.86126233398E+03  0.00000000000E+00 0. -1.
          2    1    6    6  502    0 -0.45349217032E+03  0.74773403863E+02  0.50054019797E+02  0.46233279720E+03  0.00000000000E+00 0. -1.
          3    1    5    5  503    0 -0.27007391176E+02 -0.21838718601E+03 -0.31850155522E+02  0.22234386566E+03  0.00000000000E+00 0. -1.
         -4    1    5    5    0  503 -0.71677353703E+02 -0.32258584228E+03  0.42745093811E+02  0.33320626003E+03  0.00000000000E+00 0.  1.
         -1    1    6    6    0  502 -0.19985493562E+03  0.85362962246E+02  0.96239560361E+01  0.21753494235E+03  0.00000000000E+00 0.  1.
<mgrwt>
<rscale>  0 0.22721693E+04</rscale>
<asrwt>0</asrwt>
<pdfrwt beam="1">  1        1 0.23578313E+00 0.22721693E+04</pdfrwt>
<pdfrwt beam="2">  1       -1 0.12956328E+00 0.22721693E+04</pdfrwt>
<totfact> 0.28780160E+00</totfact>
</mgrwt>
</event>
<event>
12    1  0.1397649E-007  0.1593248E+04  0.7818608E-02  0.8824707E-01
          1   -1    0    0  501    0  0.00000000000E+00  0.00000000000E+00  0.11332910050E+04  0.11332910050E+04  0.00000000000E+00 0. -1.
         -1   -1    0    0    0  501 -0.00000000000E+00 -0.00000000000E+00 -0.55997046458E+03  0.55997046458E+03  0.00000000000E+00 0.  1.
         23    2    1    2    0    0  0.18807544449E+03  0.39643253592E+03 -0.12840983211E+03  0.46705809626E+03  0.95514668731E+02 0.  0.
        254    2    1    2    0    0 -0.18807544449E+03 -0.39643253592E+03  0.70173037257E+03  0.12262033734E+04  0.90477514814E+03 0.  0.
        -24    2    4    4    0    0 -0.18997036275E+03  0.24175546664E+03  0.41395353243E+03  0.52167280186E+03  0.79060361834E+02 0.  0.
         24    2    4    4    0    0  0.18949182543E+01 -0.63818800256E+03  0.28777684013E+03  0.70453057149E+03  0.79122052109E+02 0.  0.
         11    1    3    3    0    0  0.18647470110E+02  0.33384585443E+02  0.15636404025E+02  0.41312901345E+02  0.00000000000E+00 0. -1.
        -11    1    3    3    0    0  0.16942797438E+03  0.36304795048E+03 -0.14404623613E+03  0.42574519491E+03  0.00000000000E+00 0.  1.
          2    1    6    6  502    0  0.27909530647E+02 -0.22162902725E+03  0.12918507594E+03  0.25804486328E+03  0.00000000000E+00 0. -1.
          3    1    5    5  503    0 -0.35733142288E+02  0.17908215813E+02  0.25014672971E+02  0.47151834697E+02  0.00000000000E+00 0. -1.
         -4    1    5    5    0  503 -0.15423722046E+03  0.22384725083E+03  0.38893885946E+03  0.47452096716E+03  0.00000000000E+00 0.  1.
         -1    1    6    6    0  502 -0.26014612393E+02 -0.41655897531E+03  0.15859176419E+03  0.44648570821E+03  0.00000000000E+00 0.  1.
<mgrwt>
<rscale>  0 0.15932476E+04</rscale>
<asrwt>0</asrwt>
<pdfrwt beam="1">  1        1 0.17435246E+00 0.15932476E+04</pdfrwt>
<pdfrwt beam="2">  1       -1 0.86149303E-01 0.15932476E+04</pdfrwt>
<totfact> 0.15282869E+01</totfact>
</mgrwt>
</event>
<event>
12    1  0.1397649E-007  0.1533439E+04  0.7818608E-02  0.8862516E-01
         -2   -1    0    0    0  501 -0.00000000000E+00  0.00000000000E+00  0.50065987487E+03  0.50065987487E+03  0.00000000000E+00 0.  1.
          2   -1    0    0  501    0  0.00000000000E+00 -0.00000000000E+00 -0.11741683975E+04  0.11741683975E+04  0.00000000000E+00 0. -1.
         23    2    1    2    0    0 -0.42867104153E+02 -0.35436084813E+03 -0.51897687946E+03  0.63642561695E+03  0.91056933798E+02 0.  0.
        254    2    1    2    0    0  0.42867104153E+02  0.35436084813E+03 -0.15453164322E+03  0.10384026555E+04  0.96280363876E+03 0.  0.
        -24    2    4    4    0    0 -0.10065138663E+03  0.55254881142E+03  0.19930447944E+03  0.60113455782E+03  0.78737478059E+02 0.  0.
         24    2    4    4    0    0  0.14351849079E+03 -0.19818796329E+03 -0.35383612266E+03  0.43726809764E+03  0.78277464956E+02 0.  0.
         13    1    3    3    0    0 -0.57474445999E+02 -0.19057567880E+03 -0.23212062170E+03  0.30578159577E+03  0.00000000000E+00 0. -1.
        -13    1    3    3    0    0  0.14607341845E+02 -0.16378516933E+03 -0.28685625775E+03  0.33064402118E+03  0.00000000000E+00 0.  1.
          4    1    6    6  502    0  0.13357081177E+03 -0.13049002427E+03 -0.28047397093E+03  0.33694874471E+03  0.00000000000E+00 0. -1.
          3    1    5    5  503    0 -0.11231608615E+03  0.49688754171E+03  0.16919858780E+03  0.53678701030E+03  0.00000000000E+00 0. -1.
         -4    1    5    5    0  503  0.11664699517E+02  0.55661269713E+02  0.30105891642E+02  0.64347547525E+02  0.00000000000E+00 0.  1.
         -3    1    6    6    0  502  0.99476790122E+01 -0.67697939016E+02 -0.73362151732E+02  0.10031935293E+03  0.00000000000E+00 0.  1.
<mgrwt>
<rscale>  0 0.15334393E+04</rscale>
<asrwt>0</asrwt>
<pdfrwt beam="1">  1        2 0.18064129E+00 0.15334393E+04</pdfrwt>
<pdfrwt beam="2">  1       -2 0.77024598E-01 0.15334393E+04</pdfrwt>
<totfact> 0.28474433E+01</totfact>
</mgrwt>
</event>
<event>
12    1  0.1397649E-007  0.2906472E+04  0.7818608E-02  0.8270955E-01
          2   -1    0    0  501    0  0.00000000000E+00  0.00000000000E+00  0.39118198169E+04  0.39118198169E+04  0.00000000000E+00 0. -1.
         -2   -1    0    0    0  501 -0.00000000000E+00 -0.00000000000E+00 -0.53987519894E+03  0.53987519894E+03  0.00000000000E+00 0.  1.
         23    2    1    2    0    0 -0.37767753680E+03  0.11790292405E+04  0.88350074982E+03  0.15250227568E+04  0.11122302955E+03 0.  0.
        254    2    1    2    0    0  0.37767753680E+03 -0.11790292405E+04  0.24884438682E+04  0.29266722590E+04  0.91668279955E+03 0.  0.
        -24    2    4    4    0    0 -0.28261937948E+03 -0.54738651669E+03  0.92806364939E+03  0.11166434889E+04  0.78005330614E+02 0.  0.
         24    2    4    4    0    0  0.66029691628E+03 -0.63164272378E+03  0.15603802188E+04  0.18100287701E+04  0.80331646719E+02 0.  0.
         13    1    3    3    0    0 -0.51138717285E+02  0.92408896090E+02  0.10552261829E+03  0.14929700416E+03  0.00000000000E+00 0. -1.
        -13    1    3    3    0    0 -0.32653881951E+03  0.10866203444E+04  0.77797813153E+03  0.13757257527E+04  0.00000000000E+00 0.  1.
          2    1    6    6  502    0  0.54986085062E+03 -0.48238377658E+03  0.12575083144E+04  0.14547742862E+04  0.00000000000E+00 0. -1.
          3    1    5    5  503    0 -0.17123660457E+03 -0.40640761900E+03  0.64401561877E+03  0.78054163550E+03  0.00000000000E+00 0. -1.
         -4    1    5    5    0  503 -0.11138277491E+03 -0.14097889768E+03  0.28404803062E+03  0.33610185337E+03  0.00000000000E+00 0.  1.
         -1    1    6    6    0  502  0.11043606566E+03 -0.14925894720E+03  0.30287190440E+03  0.35525448399E+03  0.00000000000E+00 0.  1.
<mgrwt>
<rscale>  0 0.29064717E+04</rscale>
<asrwt>0</asrwt>
<pdfrwt beam="1">  1        2 0.60181841E+00 0.29064717E+04</pdfrwt>
<pdfrwt beam="2">  1       -2 0.83057725E-01 0.29064717E+04</pdfrwt>
<totfact> 0.44071663E-01</totfact>
</mgrwt>
</event>
<event>
12    1  0.1397649E-007  0.1288457E+04  0.7818608E-02  0.9038769E-01
          1   -1    0    0  501    0  0.00000000000E+00  0.00000000000E+00  0.15548344071E+04  0.15548344071E+04  0.00000000000E+00 0. -1.
         -1   -1    0    0    0  501 -0.00000000000E+00 -0.00000000000E+00 -0.26692917516E+03  0.26692917516E+03  0.00000000000E+00 0.  1.
         23    2    1    2    0    0  0.11955645760E+03  0.85993430355E+02 -0.73307423839E+02  0.18856539803E+03  0.92164604531E+02 0.  0.
        254    2    1    2    0    0 -0.11955645760E+03 -0.85993430355E+02  0.13612126558E+04  0.16331981842E+04  0.89036385715E+03 0.  0.
        -24    2    4    4    0    0 -0.37051039473E+03  0.21989705922E+03  0.99852041945E+03  0.10904228245E+04  0.79663283882E+02 0.  0.
         24    2    4    4    0    0  0.25095393713E+03 -0.30589048958E+03  0.36269223632E+03  0.54277535977E+03  0.80700450474E+02 0.  0.
         13    1    3    3    0    0  0.54392987165E+02  0.60408524907E+02 -0.84973632596E+02  0.11759381434E+03  0.00000000000E+00 0.  1.
        -13    1    3    3    0    0  0.65163470431E+02  0.25584905448E+02  0.11666208757E+02  0.70971583695E+02  0.00000000000E+00 0. -1.
          2    1    6    6  502    0  0.98495475691E+02 -0.17667663493E+03  0.15770450280E+03  0.25648918547E+03  0.00000000000E+00 0. -1.
          1    1    5    5  503    0 -0.57633481757E+02  0.53269163924E+02  0.25349059138E+03  0.26536145531E+03  0.00000000000E+00 0. -1.
         -2    1    5    5    0  503 -0.31287691297E+03  0.16662789530E+03  0.74502982806E+03  0.82506136915E+03  0.00000000000E+00 0.  1.
         -1    1    6    6    0  502  0.15245846144E+03 -0.12921385465E+03  0.20498773352E+03  0.28628617429E+03  0.00000000000E+00 0.  1.
<mgrwt>
<rscale>  0 0.12884575E+04</rscale>
<asrwt>0</asrwt>
<pdfrwt beam="1">  1        1 0.23920529E+00 0.12884575E+04</pdfrwt>
<pdfrwt beam="2">  1       -1 0.41066028E-01 0.12884575E+04</pdfrwt>
<totfact> 0.34207272E+01</totfact>
</mgrwt>
</event>
<event>
12    1  0.1397649E-007  0.1521793E+04  0.7818608E-02  0.8870089E-01
          1   -1    0    0  501    0  0.00000000000E+00  0.00000000000E+00  0.14033826769E+04  0.14033826769E+04  0.00000000000E+00 0.  1.
         -1   -1    0    0    0  501 -0.00000000000E+00 -0.00000000000E+00 -0.41254845175E+03  0.41254845175E+03  0.00000000000E+00 0. -1.
         23    2    1    2    0    0 -0.13842140828E+03  0.45297026656E+03  0.44741804005E+03  0.65789225999E+03  0.91086631981E+02 0.  0.
        254    2    1    2    0    0  0.13842140828E+03 -0.45297026656E+03  0.54341618510E+03  0.11580388687E+04  0.90631689957E+03 0.  0.
        -24    2    4    4    0    0 -0.22383187874E+03 -0.35479644329E+03  0.63304174781E+03  0.76378934698E+03  0.81554190423E+02 0.  0.
         24    2    4    4    0    0  0.36225328702E+03 -0.98173823276E+02 -0.89625562717E+02  0.39424952168E+03  0.80835637693E+02 0.  0.
         11    1    3    3    0    0 -0.37513474215E+01  0.66150790611E+01  0.33770063897E+02  0.34615734776E+02  0.00000000000E+00 0. -1.
        -11    1    3    3    0    0 -0.13467006086E+03  0.44635518750E+03  0.41364797615E+03  0.62327652521E+03  0.00000000000E+00 0.  1.
          2    1    6    6  502    0  0.21540319486E+03 -0.40311244702E+02 -0.14991429655E+02  0.21965490153E+03  0.00000000000E+00 0. -1.
          1    1    5    5  503    0 -0.19139414733E+02 -0.64767380008E+01  0.14026605366E+02  0.24596971146E+02  0.00000000000E+00 0. -1.
         -2    1    5    5    0  503 -0.20469246401E+03 -0.34831970529E+03  0.61901514245E+03  0.73919237583E+03  0.00000000000E+00 0.  1.
         -1    1    6    6    0  502  0.14685009216E+03 -0.57862578574E+02 -0.74634133062E+02  0.17459462015E+03  0.00000000000E+00 0.  1.
<mgrwt>
<rscale>  0 0.15217928E+04</rscale>
<asrwt>0</asrwt>
<pdfrwt beam="1">  1        1 0.21590502E+00 0.15217928E+04</pdfrwt>
<pdfrwt beam="2">  1       -1 0.63468993E-01 0.15217928E+04</pdfrwt>
<totfact> 0.18575691E+01</totfact>
</mgrwt>
</event>
<event>
12    1  0.1397649E-007  0.1555085E+04  0.7818608E-02  0.8848626E-01
          2   -1    0    0  501    0  0.00000000000E+00  0.00000000000E+00  0.65134029295E+03  0.65134029295E+03  0.00000000000E+00 0. -1.
         -2   -1    0    0    0  501 -0.00000000000E+00 -0.00000000000E+00 -0.92819700425E+03  0.92819700425E+03  0.00000000000E+00 0.  1.
         23    2    1    2    0    0 -0.13955703361E+03  0.20806772458E+03  0.36216982923E+03  0.44848699672E+03  0.84883787522E+02 0.  0.
        254    2    1    2    0    0  0.13955703361E+03 -0.20806772458E+03 -0.63902654053E+03  0.11310503005E+04  0.89897247960E+03 0.  0.
        -24    2    4    4    0    0 -0.29014259556E+03  0.17141494606E+02 -0.55584435701E+03  0.63234519737E+03  0.80130785771E+02 0.  0.
         24    2    4    4    0    0  0.42969962917E+03 -0.22520921918E+03 -0.83182183522E+02  0.49870510311E+03  0.80165706504E+02 0.  0.
         13    1    3    3    0    0  0.18848070918E+01 -0.53487615403E+01  0.22071495660E+02  0.22788432778E+02  0.00000000000E+00 0.  1.
        -13    1    3    3    0    0 -0.14144184070E+03  0.21341648612E+03  0.34009833357E+03  0.42569856394E+03  0.00000000000E+00 0. -1.
          2    1    6    6  502    0  0.40981743330E+03 -0.19158160581E+03 -0.72085174010E+02  0.45809399978E+03  0.00000000000E+00 0. -1.
          1    1    5    5  503    0 -0.27427798440E+03 -0.98874217701E+00 -0.48084386831E+03  0.55357042554E+03  0.00000000000E+00 0. -1.
         -2    1    5    5    0  503 -0.15864611159E+02  0.18130236783E+02 -0.75000488693E+02  0.78774771833E+02  0.00000000000E+00 0.  1.
         -1    1    6    6    0  502  0.19882195870E+02 -0.33627613371E+02 -0.11097009512E+02  0.40611103331E+02  0.00000000000E+00 0.  1.
<mgrwt>
<rscale>  0 0.15550847E+04</rscale>
<asrwt>0</asrwt>
<pdfrwt beam="1">  1        2 0.10020620E+00 0.15550847E+04</pdfrwt>
<pdfrwt beam="2">  1       -2 0.14279954E+00 0.15550847E+04</pdfrwt>
<totfact> 0.14710530E+01</totfact>
</mgrwt>
</event>
<event>
12    1  0.1397649E-007  0.1592562E+04  0.7818608E-02  0.8825131E-01
         -1   -1    0    0    0  501 -0.00000000000E+00  0.00000000000E+00  0.47203207300E+03  0.47203207300E+03  0.00000000000E+00 0.  1.
          1   -1    0    0  501    0  0.00000000000E+00 -0.00000000000E+00 -0.13432628204E+04  0.13432628204E+04  0.00000000000E+00 0. -1.
         23    2    1    2    0    0  0.32670014783E+03 -0.16026122348E+03 -0.74403866868E+03  0.83335092114E+03  0.91997668161E+02 0.  0.
        254    2    1    2    0    0 -0.32670014783E+03  0.16026122348E+03 -0.12719207873E+03  0.98194397226E+03  0.90311654476E+03 0.  0.
        -24    2    4    4    0    0  0.28793897255E+03 -0.70049983794E+02  0.84248693492E+01  0.30698019632E+03  0.79686952320E+02 0.  0.
         24    2    4    4    0    0 -0.61463912037E+03  0.23031120727E+03 -0.13561694808E+03  0.67496377593E+03  0.79747361863E+02 0.  0.
         11    1    3    3    0    0  0.14878702403E+03 -0.96315516958E+02 -0.45146131589E+03  0.48500678044E+03  0.00000000000E+00 0. -1.
        -11    1    3    3    0    0  0.17791312379E+03 -0.63945706520E+02 -0.29257735279E+03  0.34834414071E+03  0.00000000000E+00 0.  1.
          2    1    6    6  502    0 -0.87225320688E+02  0.52806294757E+01 -0.10040779325E+02  0.87959984460E+02  0.00000000000E+00 0. -1.
          1    1    5    5  503    0  0.11647386962E+02 -0.12879385207E+02 -0.16219329946E+02  0.23761457241E+02  0.00000000000E+00 0. -1.
         -2    1    5    5    0  503  0.27629158559E+03 -0.57170598588E+02  0.24644199295E+02  0.28321873908E+03  0.00000000000E+00 0.  1.
         -1    1    6    6    0  502 -0.52741379969E+03  0.22503057780E+03 -0.12557616876E+03  0.58700379147E+03  0.00000000000E+00 0.  1.
<mgrwt>
<rscale>  0 0.15925616E+04</rscale>
<asrwt>0</asrwt>
<pdfrwt beam="1">  1        1 0.20665582E+00 0.15925616E+04</pdfrwt>
<pdfrwt beam="2">  1       -1 0.72620319E-01 0.15925616E+04</pdfrwt>
<totfact> 0.15469742E+01</totfact>
</mgrwt>
</event>
<event>
12    1  0.1397649E-007  0.2116922E+04  0.7818608E-02  0.8553826E-01
          2   -1    0    0  501    0  0.00000000000E+00  0.00000000000E+00  0.14246670072E+04  0.14246670072E+04  0.00000000000E+00 0. -1.
         -2   -1    0    0    0  501 -0.00000000000E+00 -0.00000000000E+00 -0.78638703524E+03  0.78638703524E+03  0.00000000000E+00 0.  1.
         23    2    1    2    0    0 -0.18244979583E+03 -0.53439509484E+03  0.94295006186E+03  0.11028934170E+04  0.91394883078E+02 0.  0.
        254    2    1    2    0    0  0.18244979583E+03  0.53439509484E+03 -0.30467008991E+03  0.11081606255E+04  0.90350985758E+03 0.  0.
        -24    2    4    4    0    0  0.38818958115E+03 -0.64644185524E+01  0.86579852657E+02  0.40540011277E+03  0.78231968727E+02 0.  0.
         24    2    4    4    0    0 -0.20573978532E+03  0.54085951339E+03 -0.39124994256E+03  0.70276051268E+03  0.77058082941E+02 0.  0.
         11    1    3    3    0    0 -0.67845989992E+02 -0.26778118958E+03  0.53694035956E+03  0.60383341542E+03  0.00000000000E+00 0.  1.
        -11    1    3    3    0    0 -0.11460380584E+03 -0.26661390526E+03  0.40600970230E+03  0.49906000155E+03  0.00000000000E+00 0. -1.
          4    1    6    6  502    0  0.64589022174E+01  0.25648347616E+02 -0.14732779191E+02  0.30275566650E+02  0.00000000000E+00 0. -1.
          3    1    5    5  503    0  0.89529584458E+00  0.26992133336E+01 -0.63932929492E+01  0.69972496028E+01  0.00000000000E+00 0. -1.
         -4    1    5    5    0  503  0.38729428530E+03 -0.91636318860E+01  0.92973145606E+02  0.39840286317E+03  0.00000000000E+00 0.  1.
         -3    1    6    6    0  502 -0.21219868754E+03  0.51521116577E+03 -0.37651716337E+03  0.67248494603E+03  0.00000000000E+00 0.  1.
<mgrwt>
<rscale>  0 0.21169220E+04</rscale>
<asrwt>0</asrwt>
<pdfrwt beam="1">  1        2 0.21917954E+00 0.21169220E+04</pdfrwt>
<pdfrwt beam="2">  1       -2 0.12098262E+00 0.21169220E+04</pdfrwt>
<totfact> 0.67088914E+00</totfact>
</mgrwt>
</event>
<event>
12    1  0.1397649E-007  0.2463889E+04  0.7818608E-02  0.8415964E-01
          1   -1    0    0  501    0  0.00000000000E+00  0.00000000000E+00  0.26387730271E+04  0.26387730271E+04  0.00000000000E+00 0. -1.
         -1   -1    0    0    0  501 -0.00000000000E+00 -0.00000000000E+00 -0.57514899153E+03  0.57514899153E+03  0.00000000000E+00 0.  1.
         23    2    1    2    0    0  0.87240070461E+03 -0.61045928785E+03  0.92737674624E+03  0.14150949531E+04  0.93394674279E+02 0.  0.
        254    2    1    2    0    0 -0.87240070461E+03  0.61045928785E+03  0.11362472894E+04  0.17988270656E+04  0.90054282400E+03 0.  0.
        -24    2    4    4    0    0 -0.51357712449E+03  0.62305407727E+03  0.26625992706E+03  0.85395992841E+03  0.79971023314E+02 0.  0.
         24    2    4    4    0    0 -0.35882358012E+03 -0.12594789425E+02  0.86998736229E+03  0.94486713719E+03  0.83563784151E+02 0.  0.
         11    1    3    3    0    0  0.54654500592E+03 -0.34480664433E+03  0.60598673046E+03  0.88590235521E+03  0.00000000000E+00 0.  1.
        -11    1    3    3    0    0  0.32585569869E+03 -0.26565264352E+03  0.32139001578E+03  0.52919259785E+03  0.00000000000E+00 0. -1.
          4    1    6    6  502    0 -0.36776655509E+02 -0.27891942255E+02  0.10283868472E+03  0.11272212697E+03  0.00000000000E+00 0. -1.
          3    1    5    5  503    0 -0.40233661079E+03  0.50274591824E+03  0.24401758366E+03  0.68860205331E+03  0.00000000000E+00 0. -1.
         -4    1    5    5    0  503 -0.11124051370E+03  0.12030815904E+03  0.22242343402E+02  0.16535787510E+03  0.00000000000E+00 0.  1.
         -3    1    6    6    0  502 -0.32204692461E+03  0.15297152830E+02  0.76714867757E+03  0.83214501022E+03  0.00000000000E+00 0.  1.
<mgrwt>
<rscale>  0 0.24638893E+04</rscale>
<asrwt>0</asrwt>
<pdfrwt beam="1">  1        1 0.40596507E+00 0.24638893E+04</pdfrwt>
<pdfrwt beam="2">  1       -1 0.88484462E-01 0.24638893E+04</pdfrwt>
<totfact> 0.12109619E+00</totfact>
</mgrwt>
</event>
<event>
12    1  0.1664725E-007  0.2470601E+04  0.7818608E-02  0.8413535E-01
         -2   -1    0    0    0  501 -0.00000000000E+00  0.00000000000E+00  0.91921437609E+03  0.91921437609E+03  0.00000000000E+00 0.  1.
          2   -1    0    0  501    0  0.00000000000E+00 -0.00000000000E+00 -0.16600774295E+04  0.16600774295E+04  0.00000000000E+00 0. -1.
         23    2    1    2    0    0 -0.10469007405E+04  0.16554904657E+03 -0.16504922337E+03  0.10764735319E+04  0.90257251678E+02 0.  0.
        254    2    1    2    0    0  0.10469007405E+04 -0.16554904657E+03 -0.57581383008E+03  0.15028182737E+04  0.89637801724E+03 0.  0.
        -24    2    4    4    0    0  0.11314677781E+04 -0.10002883145E+03 -0.68760274359E+03  0.13302069173E+04  0.80173621875E+02 0.  0.
         24    2    4    4    0    0 -0.84567037671E+02 -0.65520215116E+02  0.11178891351E+03  0.17261135649E+03  0.76507756178E+02 0.  0.
         11    1    3    3    0    0 -0.10097943629E+04  0.14241591267E+03 -0.15377220736E+03  0.10313160715E+04  0.00000000000E+00 0. -1.
        -11    1    3    3    0    0 -0.37106377587E+02  0.23133133894E+02 -0.11277016002E+02  0.45157460417E+02  0.00000000000E+00 0.  1.
          2    1    6    6  502    0 -0.76593095764E+02 -0.34913248050E+02  0.11306391828E+03  0.14095703894E+03  0.00000000000E+00 0. -1.
          3    1    5    5  503    0  0.10665054744E+04 -0.10962300003E+03 -0.63495944766E+03  0.12460435904E+04  0.00000000000E+00 0. -1.
         -4    1    5    5    0  503  0.64962303729E+02  0.95941685799E+01 -0.52643295926E+02  0.84163326826E+02  0.00000000000E+00 0.  1.
         -1    1    6    6    0  502 -0.79739419070E+01 -0.30606967065E+02 -0.12750047729E+01  0.31654317551E+02  0.00000000000E+00 0.  1.
<mgrwt>
<rscale>  0 0.24706008E+04</rscale>
<asrwt>0</asrwt>
<pdfrwt beam="1">  1        2 0.25539652E+00 0.24706008E+04</pdfrwt>
<pdfrwt beam="2">  1       -2 0.14141760E+00 0.24706008E+04</pdfrwt>
<totfact> 0.32291924E+00</totfact>
</mgrwt>
</event>
<event>
12    1  0.1397649E-007  0.1554923E+04  0.7818608E-02  0.8848729E-01
         -1   -1    0    0    0  501 -0.00000000000E+00  0.00000000000E+00  0.37231246540E+03  0.37231246540E+03  0.00000000000E+00 0.  1.
          1   -1    0    0  501    0  0.00000000000E+00 -0.00000000000E+00 -0.16234917033E+04  0.16234917033E+04  0.00000000000E+00 0. -1.
         23    2    1    2    0    0  0.14910391189E+03 -0.21223994221E+03 -0.98301048014E+03  0.10207015033E+04  0.90797495750E+02 0.  0.
        254    2    1    2    0    0 -0.14910391189E+03  0.21223994221E+03 -0.26816875780E+03  0.97510266542E+03  0.90090674092E+03 0.  0.
        -24    2    4    4    0    0  0.34896806268E+03  0.12882456160E+03  0.32101896643E+02  0.38208793400E+03  0.81155289992E+02 0.  0.
         24    2    4    4    0    0 -0.49807197458E+03  0.83415380613E+02 -0.30027065444E+03  0.59301473142E+03  0.80437479947E+02 0.  0.
         11    1    3    3    0    0  0.15373947077E+03 -0.16321007815E+03 -0.84182014374E+03  0.87116847331E+03  0.00000000000E+00 0. -1.
        -11    1    3    3    0    0 -0.46355588776E+01 -0.49029864058E+02 -0.14119033640E+03  0.14953303002E+03  0.00000000000E+00 0.  1.
          4    1    6    6  502    0 -0.23808459016E+03  0.68850699527E+02 -0.17926753600E+03  0.30587830972E+03  0.00000000000E+00 0. -1.
          3    1    5    5  503    0  0.16809393565E+03  0.38509940654E+02  0.48828793484E+02  0.17922845144E+03  0.00000000000E+00 0. -1.
         -4    1    5    5    0  503  0.18087412703E+03  0.90314620942E+02 -0.16726896841E+02  0.20285948256E+03  0.00000000000E+00 0.  1.
         -3    1    6    6    0  502 -0.25998738442E+03  0.14564681086E+02 -0.12100311845E+03  0.28713642170E+03  0.00000000000E+00 0.  1.
<mgrwt>
<rscale>  0 0.15549228E+04</rscale>
<asrwt>0</asrwt>
<pdfrwt beam="1">  1        1 0.24976795E+00 0.15549228E+04</pdfrwt>
<pdfrwt beam="2">  1       -1 0.57278841E-01 0.15549228E+04</pdfrwt>
<totfact> 0.15981945E+01</totfact>
</mgrwt>
</event>
<event>
12    1  0.1397649E-007  0.3757402E+04  0.7818608E-02  0.8055359E-01
          2   -1    0    0  501    0  0.00000000000E+00  0.00000000000E+00  0.21144674891E+04  0.21144674891E+04  0.00000000000E+00 0. -1.
         -2   -1    0    0    0  501 -0.00000000000E+00 -0.00000000000E+00 -0.16692227366E+04  0.16692227366E+04  0.00000000000E+00 0.  1.
         23    2    1    2    0    0  0.15256045086E+03 -0.51737154015E+03 -0.14865281167E+04  0.15845003157E+04  0.99636372774E+02 0.  0.
        254    2    1    2    0    0 -0.15256045086E+03  0.51737154015E+03  0.19317728692E+04  0.21991899101E+04  0.90207640513E+03 0.  0.
        -24    2    4    4    0    0  0.10145226109E+03  0.13677941675E+03  0.16422130991E+04  0.16528711132E+04  0.78216902420E+02 0.  0.
         24    2    4    4    0    0 -0.25401271195E+03  0.38059212340E+03  0.28955977012E+03  0.54631879690E+03  0.72433039085E+02 0.  0.
         11    1    3    3    0    0 -0.27358892266E+01  0.26777837294E+00  0.34774623292E-01  0.27491824951E+01  0.00000000000E+00 0. -1.
        -11    1    3    3    0    0  0.15529634009E+03 -0.51763931852E+03 -0.14865628914E+04  0.15817511332E+04  0.00000000000E+00 0.  1.
          4    1    6    6  502    0 -0.17558472701E+03  0.31596113855E+03  0.23211296735E+03  0.42957870879E+03  0.00000000000E+00 0. -1.
          1    1    5    5  503    0  0.42546279763E+02  0.57118047144E+02  0.10513099930E+04  0.10537197724E+04  0.00000000000E+00 0. -1.
         -2    1    5    5    0  503  0.58905981330E+02  0.79661369603E+02  0.59090310609E+03  0.59915134084E+03  0.00000000000E+00 0.  1.
         -3    1    6    6    0  502 -0.78427984939E+02  0.64630984853E+02  0.57446802762E+02  0.11674008811E+03  0.00000000000E+00 0.  1.
<mgrwt>
<rscale>  0 0.37574019E+04</rscale>
<asrwt>0</asrwt>
<pdfrwt beam="1">  1        2 0.32530269E+00 0.37574019E+04</pdfrwt>
<pdfrwt beam="2">  1       -2 0.25680350E+00 0.37574019E+04</pdfrwt>
<totfact> 0.27086665E-01</totfact>
</mgrwt>
</event>
<event>
12    1  0.1397649E-007  0.1439393E+04  0.7818608E-02  0.8925787E-01
         -2   -1    0    0    0  501 -0.00000000000E+00  0.00000000000E+00  0.34958951490E+03  0.34958951490E+03  0.00000000000E+00 0.  1.
          2   -1    0    0  501    0  0.00000000000E+00 -0.00000000000E+00 -0.14816320893E+04  0.14816320893E+04  0.00000000000E+00 0. -1.
         23    2    1    2    0    0 -0.32213229945E+03  0.45960054595E+02 -0.70117516257E+03  0.77857186081E+03  0.92983809707E+02 0.  0.
        254    2    1    2    0    0  0.32213229945E+03 -0.45960054595E+02 -0.43086741187E+03  0.10526497434E+04  0.90362780545E+03 0.  0.
        -24    2    4    4    0    0 -0.23755081991E+03 -0.34600436856E+02  0.10483279255E+03  0.27357554715E+03  0.78905534258E+02 0.  0.
         24    2    4    4    0    0  0.55968311936E+03 -0.11359617739E+02 -0.53570020443E+03  0.77907419629E+03  0.81287510050E+02 0.  0.
         13    1    3    3    0    0 -0.91442656815E+01  0.21307035193E+02 -0.33221405829E+02  0.40512580130E+02  0.00000000000E+00 0.  1.
        -13    1    3    3    0    0 -0.31298803377E+03  0.24653019402E+02 -0.66795375674E+03  0.73805928068E+03  0.00000000000E+00 0. -1.
          4    1    6    6  502    0  0.48173113257E+03  0.12976023436E+02 -0.43296130233E+03  0.64783389120E+03  0.00000000000E+00 0. -1.
          1    1    5    5  503    0 -0.72954867415E+02 -0.18836620047E+02 -0.42813758766E+01  0.75468941385E+02  0.00000000000E+00 0. -1.
         -2    1    5    5    0  503 -0.16459595249E+03 -0.15763816809E+02  0.10911416843E+03  0.19810660577E+03  0.00000000000E+00 0.  1.
         -1    1    6    6    0  502  0.77951986785E+02 -0.24335641175E+02 -0.10273890210E+03  0.13124030509E+03  0.00000000000E+00 0.  1.
<mgrwt>
<rscale>  0 0.14393930E+04</rscale>
<asrwt>0</asrwt>
<pdfrwt beam="1">  1        2 0.22794340E+00 0.14393930E+04</pdfrwt>
<pdfrwt beam="2">  1       -2 0.53783002E-01 0.14393930E+04</pdfrwt>
<totfact> 0.41088212E+01</totfact>
</mgrwt>
</event>
<event>
12    1  0.1397649E-007  0.1947848E+04  0.7818608E-02  0.8631399E-01
          2   -1    0    0  501    0  0.00000000000E+00  0.00000000000E+00  0.51604375761E+03  0.51604375761E+03  0.00000000000E+00 0. -1.
         -2   -1    0    0    0  501 -0.00000000000E+00 -0.00000000000E+00 -0.18380771157E+04  0.18380771157E+04  0.00000000000E+00 0.  1.
         23    2    1    2    0    0 -0.16179520592E+03  0.16731883367E+03  0.35187799699E+03  0.43204969597E+03  0.93142548063E+02 0.  0.
        254    2    1    2    0    0  0.16179520592E+03 -0.16731883367E+03 -0.16739113551E+04  0.19220711774E+04  0.91553542006E+03 0.  0.
        -24    2    4    4    0    0 -0.31064997898E+03  0.10370269967E+03 -0.97940360139E+03  0.10357557971E+04  0.79378822157E+02 0.  0.
         24    2    4    4    0    0  0.47244518490E+03 -0.27102153334E+03 -0.69450775373E+03  0.88631538031E+03  0.80974126193E+02 0.  0.
         11    1    3    3    0    0 -0.13868431524E+03  0.89631211212E+02  0.19542184253E+03  0.25584524592E+03  0.00000000000E+00 0.  1.
        -11    1    3    3    0    0 -0.23110890679E+02  0.77687622457E+02  0.15645615445E+03  0.17620445005E+03  0.00000000000E+00 0. -1.
          2    1    6    6  502    0  0.24211569477E+03 -0.10312497972E+03 -0.37531679263E+03  0.45838571741E+03  0.00000000000E+00 0. -1.
          1    1    5    5  503    0 -0.30791722864E+03  0.10572768079E+03 -0.97966515883E+03  0.10323445092E+04  0.00000000000E+00 0. -1.
         -2    1    5    5    0  503 -0.27327503368E+01 -0.20249811153E+01  0.26155744115E+00  0.34112879116E+01  0.00000000000E+00 0.  1.
         -1    1    6    6    0  502  0.23032949013E+03 -0.16789655362E+03 -0.31919096110E+03  0.42792966290E+03  0.00000000000E+00 0.  1.
<mgrwt>
<rscale>  0 0.19478483E+04</rscale>
<asrwt>0</asrwt>
<pdfrwt beam="1">  1        2 0.79391349E-01 0.19478483E+04</pdfrwt>
<pdfrwt beam="2">  1       -2 0.28278109E+00 0.19478483E+04</pdfrwt>
<totfact> 0.22439500E+00</totfact>
</mgrwt>
</event>
<event>
12    1  0.1397649E-007  0.1622378E+04  0.7818608E-02  0.8806917E-01
          2   -1    0    0  501    0  0.00000000000E+00  0.00000000000E+00  0.62469706554E+03  0.62469706554E+03  0.00000000000E+00 0. -1.
         -2   -1    0    0    0  501 -0.00000000000E+00 -0.00000000000E+00 -0.10533550707E+04  0.10533550707E+04  0.00000000000E+00 0.  1.
         23    2    1    2    0    0 -0.19317018575E+03 -0.10736716301E+03  0.38119631763E+03  0.45010605105E+03  0.91882513352E+02 0.  0.
        254    2    1    2    0    0  0.19317018575E+03  0.10736716301E+03 -0.80985432282E+03  0.12279460852E+04  0.89618365065E+03 0.  0.
        -24    2    4    4    0    0  0.39186752556E+03  0.30408218321E+03 -0.17914099968E+03  0.53342161109E+03  0.80131053166E+02 0.  0.
         24    2    4    4    0    0 -0.19869733981E+03 -0.19671502019E+03 -0.63071332314E+03  0.69452447414E+03  0.79921944270E+02 0.  0.
         13    1    3    3    0    0 -0.17573495452E+03 -0.11570612019E+03  0.29863593946E+03  0.36531370741E+03  0.00000000000E+00 0. -1.
        -13    1    3    3    0    0 -0.17435231230E+02  0.83389571788E+01  0.82560378172E+02  0.84792343633E+02  0.00000000000E+00 0.  1.
          4    1    6    6  502    0 -0.14944694490E+03 -0.10887175683E+03 -0.46756963230E+03  0.50280096442E+03  0.00000000000E+00 0. -1.
          1    1    5    5  503    0  0.29356487109E+03  0.23439690088E+03 -0.17070876391E+03  0.41263024944E+03  0.00000000000E+00 0. -1.
         -2    1    5    5    0  503  0.98302654469E+02  0.69685282328E+02 -0.84322357694E+01  0.12079136165E+03  0.00000000000E+00 0.  1.
         -3    1    6    6    0  502 -0.49250394915E+02 -0.87843263367E+02 -0.16314369084E+03  0.19172350972E+03  0.00000000000E+00 0.  1.
<mgrwt>
<rscale>  0 0.16223783E+04</rscale>
<asrwt>0</asrwt>
<pdfrwt beam="1">  1        2 0.96107241E-01 0.16223783E+04</pdfrwt>
<pdfrwt beam="2">  1       -2 0.16205463E+00 0.16223783E+04</pdfrwt>
<totfact> 0.10986791E+01</totfact>
</mgrwt>
</event>
<event>
12    1  0.1397649E-007  0.1230264E+04  0.7818608E-02  0.9086771E-01
          2   -1    0    0  501    0  0.00000000000E+00  0.00000000000E+00  0.19189424438E+04  0.19189424438E+04  0.00000000000E+00 0.  1.
         -2   -1    0    0    0  501 -0.00000000000E+00 -0.00000000000E+00 -0.19718551076E+03  0.19718551076E+03  0.00000000000E+00 0. -1.
         23    2    1    2    0    0 -0.10378799705E+03 -0.74287071110E+02 -0.11635085284E+02  0.15650671840E+03  0.89824609256E+02 0.  0.
        254    2    1    2    0    0  0.10378799705E+03  0.74287071110E+02  0.17333920184E+04  0.19596212362E+04  0.90508396451E+03 0.  0.
        -24    2    4    4    0    0 -0.16609966395E+03  0.11718891220E+03  0.15795781933E+02  0.21860639385E+03  0.78847379131E+02 0.  0.
         24    2    4    4    0    0  0.26988766100E+03 -0.42901841090E+02  0.17175962364E+04  0.17410148424E+04  0.79472840670E+02 0.  0.
         11    1    3    3    0    0 -0.26504391752E+02  0.20170891712E+02  0.36572122212E+01  0.33507056806E+02  0.00000000000E+00 0.  1.
        -11    1    3    3    0    0 -0.77283605296E+02 -0.94457962822E+02 -0.15292297505E+02  0.12299966159E+03  0.00000000000E+00 0. -1.
          2    1    6    6  502    0  0.15165111756E+03  0.14778020398E+01  0.11198712877E+04  0.11300937777E+04  0.00000000000E+00 0. -1.
          3    1    5    5  503    0 -0.22549370764E+02  0.47102855326E+02 -0.18163660952E+02  0.55290792008E+02  0.00000000000E+00 0. -1.
         -2    1    5    5    0  503 -0.14355029319E+03  0.70086056874E+02  0.33959442885E+02  0.16331560184E+03  0.00000000000E+00 0.  1.
         -1    1    6    6    0  502  0.11823654344E+03 -0.44379643130E+02  0.59772494871E+03  0.61092106466E+03  0.00000000000E+00 0.  1.
<mgrwt>
<rscale>  0 0.12302644E+04</rscale>
<asrwt>0</asrwt>
<pdfrwt beam="1">  1        2 0.29522190E+00 0.12302644E+04</pdfrwt>
<pdfrwt beam="2">  1       -2 0.30336234E-01 0.12302644E+04</pdfrwt>
<totfact> 0.73356725E+01</totfact>
</mgrwt>
</event>
<event>
12    1  0.1397649E-007  0.3019287E+04  0.7818608E-02  0.8238245E-01
         -2   -1    0    0    0  501 -0.00000000000E+00  0.00000000000E+00  0.23919175213E+04  0.23919175213E+04  0.00000000000E+00 0. -1.
          2   -1    0    0  501    0  0.00000000000E+00 -0.00000000000E+00 -0.95280211506E+03  0.95280211506E+03  0.00000000000E+00 0.  1.
         23    2    1    2    0    0 -0.27565055781E+03 -0.11754054671E+04  0.13718256583E+04  0.18296252554E+04  0.89786949229E+02 0.  0.
        254    2    1    2    0    0  0.27565055781E+03  0.11754054671E+04  0.67289747856E+02  0.15150943809E+04  0.91291939990E+03 0.  0.
        -24    2    4    4    0    0  0.59196496291E+03  0.56947867011E+03  0.48308584877E+02  0.82662010727E+03  0.78984867807E+02 0.  0.
         24    2    4    4    0    0 -0.31631440510E+03  0.60592679700E+03  0.18981162978E+02  0.68847427363E+03  0.80215052863E+02 0.  0.
         11    1    3    3    0    0 -0.15883831695E+02 -0.20401858177E+03  0.25149968692E+03  0.32423443731E+03  0.00000000000E+00 0.  1.
        -11    1    3    3    0    0 -0.25976672611E+03 -0.97138688535E+03  0.11203259714E+04  0.15053908181E+04  0.00000000000E+00 0. -1.
          4    1    6    6  502    0 -0.14460293533E+03  0.20489982078E+03 -0.12495251183E+02  0.25109774344E+03  0.00000000000E+00 0. -1.
          1    1    5    5  503    0  0.34378003282E+03  0.32890812849E+03  0.66989033958E+02  0.48047143372E+03  0.00000000000E+00 0. -1.
         -2    1    5    5    0  503  0.24818493009E+03  0.24057054162E+03 -0.18680449081E+02  0.34614867354E+03  0.00000000000E+00 0.  1.
         -3    1    6    6    0  502 -0.17171146977E+03  0.40102697623E+03  0.31476414161E+02  0.43737653019E+03  0.00000000000E+00 0.  1.
<mgrwt>
<rscale>  0 0.30192874E+04</rscale>
<asrwt>0</asrwt>
<pdfrwt beam="1">  1        2 0.14658494E+00 0.30192874E+04</pdfrwt>
<pdfrwt beam="2">  1       -2 0.36798731E+00 0.30192874E+04</pdfrwt>
<totfact> 0.27621747E-01</totfact>
</mgrwt>
</event>
<event>
12    1  0.1397649E-007  0.3146901E+04  0.7818608E-02  0.8202983E-01
          2   -1    0    0  501    0  0.00000000000E+00  0.00000000000E+00  0.34510840523E+04  0.34510840523E+04  0.00000000000E+00 0. -1.
         -2   -1    0    0    0  501 -0.00000000000E+00 -0.00000000000E+00 -0.71738235388E+03  0.71738235388E+03  0.00000000000E+00 0.  1.
         23    2    1    2    0    0 -0.64201272792E+03 -0.37759359451E+03 -0.38414832200E+03  0.84288591782E+03  0.90163583171E+02 0.  0.
        254    2    1    2    0    0  0.64201272792E+03  0.37759359451E+03  0.31178500205E+04  0.33255804884E+04  0.88529066940E+03 0.  0.
        -24    2    4    4    0    0  0.37633501400E+02  0.18664198558E+03  0.79693117145E+02  0.22097845437E+03  0.78923844095E+02 0.  0.
         24    2    4    4    0    0  0.60437922652E+03  0.19095160893E+03  0.30381569033E+04  0.31046020340E+04  0.80122744419E+02 0.  0.
         13    1    3    3    0    0 -0.72718176029E+02 -0.71146748786E+02 -0.31878886394E+02  0.10661170848E+03  0.00000000000E+00 0. -1.
        -13    1    3    3    0    0 -0.56929455190E+03 -0.30644684572E+03 -0.35226943560E+03  0.73627420933E+03  0.00000000000E+00 0.  1.
          2    1    6    6  502    0  0.50398405144E+03  0.14098115570E+03  0.23692467751E+04  0.24263565055E+04  0.00000000000E+00 0. -1.
          1    1    5    5  503    0 -0.39272686861E+01  0.10093919921E+03  0.74633364773E+02  0.12559571853E+03  0.00000000000E+00 0. -1.
         -2    1    5    5    0  503  0.41560770086E+02  0.85702786368E+02  0.50597523722E+01  0.95382735836E+02  0.00000000000E+00 0.  1.
         -1    1    6    6    0  502  0.10039517508E+03  0.49970453228E+02  0.66891012822E+03  0.67824552856E+03  0.00000000000E+00 0.  1.
<mgrwt>
<rscale>  0 0.31469012E+04</rscale>
<asrwt>0</asrwt>
<pdfrwt beam="1">  1        2 0.53093600E+00 0.31469012E+04</pdfrwt>
<pdfrwt beam="2">  1       -2 0.11036652E+00 0.31469012E+04</pdfrwt>
<totfact> 0.48413503E-01</totfact>
</mgrwt>
</event>
<event>
12    1  0.1397649E-007  0.1709522E+04  0.7818608E-02  0.8755952E-01
          2   -1    0    0  501    0  0.00000000000E+00  0.00000000000E+00  0.22827950937E+04  0.22827950937E+04  0.00000000000E+00 0. -1.
         -2   -1    0    0    0  501 -0.00000000000E+00 -0.00000000000E+00 -0.32005328106E+03  0.32005328106E+03  0.00000000000E+00 0.  1.
         23    2    1    2    0    0 -0.52642779683E+03  0.31531608060E+03  0.62873760599E+03  0.88342860343E+03  0.92653463003E+02 0.  0.
        254    2    1    2    0    0  0.52642779683E+03 -0.31531608060E+03  0.13340042066E+04  0.17194197713E+04  0.89458743042E+03 0.  0.
        -24    2    4    4    0    0  0.74632330082E+03 -0.37430428836E+03  0.11097797223E+04  0.13910504385E+04  0.79423680368E+02 0.  0.
         24    2    4    4    0    0 -0.21989550399E+03  0.58988207753E+02  0.22422448435E+03  0.32836933274E+03  0.75605277415E+02 0.  0.
         13    1    3    3    0    0 -0.37578633281E+03  0.22422376333E+03  0.38558400702E+03  0.58323810784E+03  0.00000000000E+00 0. -1.
        -13    1    3    3    0    0 -0.15064146401E+03  0.91092317277E+02  0.24315359897E+03  0.30019049558E+03  0.00000000000E+00 0.  1.
          4    1    6    6  502    0 -0.75160910845E+02  0.39879695422E+02  0.12735897720E+03  0.15316612452E+03  0.00000000000E+00 0. -1.
          1    1    5    5  503    0  0.48545646174E+03 -0.28518085156E+03  0.74426624851E+03  0.93323541672E+03  0.00000000000E+00 0. -1.
         -2    1    5    5    0  503  0.26086683908E+03 -0.89123436794E+02  0.36551347374E+03  0.45781502182E+03  0.00000000000E+00 0.  1.
         -3    1    6    6    0  502 -0.14473459315E+03  0.19108512332E+02  0.96865507154E+02  0.17520320823E+03  0.00000000000E+00 0.  1.
<mgrwt>
<rscale>  0 0.17095216E+04</rscale>
<asrwt>0</asrwt>
<pdfrwt beam="1">  1        2 0.35119923E+00 0.17095216E+04</pdfrwt>
<pdfrwt beam="2">  1       -2 0.49238968E-01 0.17095216E+04</pdfrwt>
<totfact> 0.17226688E+01</totfact>
</mgrwt>
</event>
<event>
12    1  0.1397649E-007  0.1709156E+04  0.7818608E-02  0.8756160E-01
         -4   -1    0    0    0  501 -0.00000000000E+00  0.00000000000E+00  0.13985285823E+04  0.13985285823E+04  0.00000000000E+00 0.  1.
          4   -1    0    0  501    0  0.00000000000E+00 -0.00000000000E+00 -0.52219401697E+03  0.52219401697E+03  0.00000000000E+00 0. -1.
         23    2    1    2    0    0  0.67620433675E+02 -0.31654151913E+03 -0.26960346298E+03  0.43427528724E+03  0.10553644619E+03 0.  0.
        254    2    1    2    0    0 -0.67620433675E+02  0.31654151913E+03  0.11459380283E+04  0.14864473121E+04  0.88970814899E+03 0.  0.
        -24    2    4    4    0    0  0.36176120356E+03  0.33115040112E+03  0.49159388760E+03  0.69958419784E+03  0.84980838875E+02 0.  0.
         24    2    4    4    0    0 -0.42938163724E+03 -0.14608881986E+02  0.65434414074E+03  0.78686311423E+03  0.80033094305E+02 0.  0.
         11    1    3    3    0    0 -0.68065179979E+01 -0.16394236599E+03 -0.90083480175E+02  0.18718563367E+03  0.00000000000E+00 0. -1.
        -11    1    3    3    0    0  0.74426951672E+02 -0.15259915315E+03 -0.17951998280E+03  0.24708965357E+03  0.00000000000E+00 0.  1.
          2    1    6    6  502    0 -0.20463122456E+03 -0.33913344440E+02  0.26050630618E+03  0.33299788071E+03  0.00000000000E+00 0. -1.
          3    1    5    5  503    0  0.23574690844E+03  0.22012950590E+03  0.37761464044E+03  0.49661496240E+03  0.00000000000E+00 0. -1.
         -4    1    5    5    0  503  0.12601429513E+03  0.11102089522E+03  0.11397924716E+03  0.20296923544E+03  0.00000000000E+00 0.  1.
         -1    1    6    6    0  502 -0.22475041268E+03  0.19304462453E+02  0.39383783456E+03  0.45386523353E+03  0.00000000000E+00 0.  1.
<mgrwt>
<rscale>  0 0.17091556E+04</rscale>
<asrwt>0</asrwt>
<pdfrwt beam="1">  1        4 0.80337542E-01 0.17091556E+04</pdfrwt>
<pdfrwt beam="2">  1       -4 0.21515824E+00 0.17091556E+04</pdfrwt>
<totfact> 0.27404428E-01</totfact>
</mgrwt>
</event>
<event>
12    1  0.1397649E-007  0.2755932E+04  0.7818608E-02  0.8317082E-01
         -2   -1    0    0    0  501 -0.00000000000E+00  0.00000000000E+00  0.13781575818E+04  0.13781575818E+04  0.00000000000E+00 0.  1.
          2   -1    0    0  501    0  0.00000000000E+00 -0.00000000000E+00 -0.13777749180E+04  0.13777749180E+04  0.00000000000E+00 0. -1.
         23    2    1    2    0    0  0.93504961002E+03  0.44135938908E+03 -0.66550883307E+03  0.12331344508E+04  0.92750650997E+02 0.  0.
        254    2    1    2    0    0 -0.93504961002E+03 -0.44135938908E+03  0.66589149689E+03  0.15227980491E+04  0.89799027224E+03 0.  0.
        -24    2    4    4    0    0 -0.88418584009E+03 -0.10481838816E+03  0.74638108020E+03  0.11642401674E+04  0.74826173677E+02 0.  0.
         24    2    4    4    0    0 -0.50863769930E+02 -0.33654100092E+03 -0.80489583308E+02  0.35855788162E+03  0.78982359158E+02 0.  0.
         11    1    3    3    0    0  0.77163392779E+03  0.32690877029E+03 -0.55379184552E+03  0.10044768144E+04  0.00000000000E+00 0. -1.
        -11    1    3    3    0    0  0.16341568224E+03  0.11445061879E+03 -0.11171698755E+03  0.22865763633E+03  0.00000000000E+00 0.  1.
          4    1    6    6  502    0 -0.14666910969E+02 -0.24718436652E+03 -0.85640989924E+02  0.26201070299E+03  0.00000000000E+00 0. -1.
          1    1    5    5  503    0 -0.78154474578E+03 -0.10339078470E+03  0.63081991672E+03  0.10096710412E+04  0.00000000000E+00 0. -1.
         -2    1    5    5    0  503 -0.10264109432E+03 -0.14276034551E+01  0.11556116348E+03  0.15456912628E+03  0.00000000000E+00 0.  1.
         -3    1    6    6    0  502 -0.36196858961E+02 -0.89356634405E+02  0.51514066158E+01  0.96547178627E+02  0.00000000000E+00 0.  1.
<mgrwt>
<rscale>  0 0.27559325E+04</rscale>
<asrwt>0</asrwt>
<pdfrwt beam="1">  1        2 0.21196537E+00 0.27559325E+04</pdfrwt>
<pdfrwt beam="2">  1       -2 0.21202424E+00 0.27559325E+04</pdfrwt>
<totfact> 0.14462655E+00</totfact>
</mgrwt>
</event>
<event>
12    1  0.1397649E-007  0.1519725E+04  0.7818608E-02  0.8871441E-01
          1   -1    0    0  501    0  0.00000000000E+00  0.00000000000E+00  0.14197444490E+04  0.14197444490E+04  0.00000000000E+00 0. -1.
         -1   -1    0    0    0  501 -0.00000000000E+00 -0.00000000000E+00 -0.40668662987E+03  0.40668662987E+03  0.00000000000E+00 0.  1.
         23    2    1    2    0    0 -0.31889921902E+03 -0.22886125174E+03  0.67866500907E+03  0.78959906135E+03  0.93841881385E+02 0.  0.
        254    2    1    2    0    0  0.31889921902E+03  0.22886125174E+03  0.33439281002E+03  0.10368320175E+04  0.89951536766E+03 0.  0.
        -24    2    4    4    0    0  0.46724414272E+03 -0.20210463801E+03  0.22196301079E+03  0.56055351559E+03  0.76087397608E+02 0.  0.
         24    2    4    4    0    0 -0.14834492370E+03  0.43096588975E+03  0.11242979923E+03  0.47627850190E+03  0.80392394532E+02 0.  0.
         13    1    3    3    0    0 -0.11013272430E+03 -0.71669496658E+02  0.14691312789E+03  0.19710200623E+03  0.00000000000E+00 0.  1.
        -13    1    3    3    0    0 -0.20876649472E+03 -0.15719175508E+03  0.53175188118E+03  0.59249705512E+03  0.00000000000E+00 0. -1.
          4    1    6    6  502    0  0.99172500911E+01  0.30866993876E+02  0.10839313377E+02  0.34184994878E+02  0.00000000000E+00 0. -1.
          1    1    5    5  503    0  0.16677458139E+03 -0.10684699140E+03  0.65241268046E+02  0.20853408265E+03  0.00000000000E+00 0. -1.
         -2    1    5    5    0  503  0.30046956133E+03 -0.95257646609E+02  0.15672174275E+03  0.35201943294E+03  0.00000000000E+00 0.  1.
         -3    1    6    6    0  502 -0.15826217379E+03  0.40009889587E+03  0.10159048585E+03  0.44209350702E+03  0.00000000000E+00 0.  1.
<mgrwt>
<rscale>  0 0.15197251E+04</rscale>
<asrwt>0</asrwt>
<pdfrwt beam="1">  1        1 0.21842222E+00 0.15197251E+04</pdfrwt>
<pdfrwt beam="2">  1       -1 0.62567175E-01 0.15197251E+04</pdfrwt>
<totfact> 0.18620537E+01</totfact>
</mgrwt>
</event>
<event>
12    1  0.1397649E-007  0.2045007E+04  0.7818608E-02  0.8585863E-01
         -2   -1    0    0    0  501 -0.00000000000E+00  0.00000000000E+00  0.69119476158E+03  0.69119476158E+03  0.00000000000E+00 0.  1.
          2   -1    0    0  501    0  0.00000000000E+00 -0.00000000000E+00 -0.15126178281E+04  0.15126178281E+04  0.00000000000E+00 0. -1.
         23    2    1    2    0    0  0.13070542633E+03 -0.17920803495E+03 -0.11799339502E+04  0.12051199065E+04  0.10426137293E+03 0.  0.
        254    2    1    2    0    0 -0.13070542633E+03  0.17920803495E+03  0.35851088371E+03  0.99869268317E+03  0.90534943166E+03 0.  0.
        -24    2    4    4    0    0 -0.99692658326E+02  0.51923005413E+03  0.36709195922E+03  0.64821929947E+03  0.76767691452E+02 0.  0.
         24    2    4    4    0    0 -0.31012768008E+02 -0.34002201918E+03 -0.85810755074E+01  0.35047338369E+03  0.78620560370E+02 0.  0.
         13    1    3    3    0    0  0.12695400625E+03 -0.18877971953E+03 -0.10295645592E+04  0.10543994896E+04  0.00000000000E+00 0. -1.
        -13    1    3    3    0    0  0.37514200804E+01  0.95716845841E+01 -0.15036939106E+03  0.15072041688E+03  0.00000000000E+00 0.  1.
          2    1    6    6  502    0 -0.17018791317E+02 -0.72521993425E+02  0.29091899676E+02  0.79971353715E+02  0.00000000000E+00 0. -1.
          1    1    5    5  503    0 -0.60439875614E+02  0.42424049558E+03  0.26786180097E+03  0.50535425305E+03  0.00000000000E+00 0. -1.
         -2    1    5    5    0  503 -0.39252782713E+02  0.94989558546E+02  0.99230158246E+02  0.14286504642E+03  0.00000000000E+00 0.  1.
         -1    1    6    6    0  502 -0.13993976691E+02 -0.26750002576E+03 -0.37672975183E+02  0.27050202998E+03  0.00000000000E+00 0.  1.
<mgrwt>
<rscale>  0 0.20450071E+04</rscale>
<asrwt>0</asrwt>
<pdfrwt beam="1">  1        2 0.23271044E+00 0.20450071E+04</pdfrwt>
<pdfrwt beam="2">  1       -2 0.10633766E+00 0.20450071E+04</pdfrwt>
<totfact> 0.82431382E+00</totfact>
</mgrwt>
</event>
<event>
12    1  0.1397649E-007  0.2609815E+04  0.7818608E-02  0.8364875E-01
         -1   -1    0    0    0  501 -0.00000000000E+00  0.00000000000E+00  0.23603680262E+04  0.23603680262E+04  0.00000000000E+00 0.  1.
          1   -1    0    0  501    0  0.00000000000E+00 -0.00000000000E+00 -0.72140601783E+03  0.72140601783E+03  0.00000000000E+00 0. -1.
         23    2    1    2    0    0  0.49580215700E+03 -0.81341814472E+03 -0.29579130301E+02  0.95766617178E+03  0.93705467138E+02 0.  0.
        254    2    1    2    0    0 -0.49580215700E+03  0.81341814472E+03  0.16685411387E+04  0.21241078723E+04  0.90572394496E+03 0.  0.
        -24    2    4    4    0    0 -0.91224143946E+02  0.77349615966E+03  0.62637636671E+03  0.10026352316E+04  0.79447475459E+02 0.  0.
         24    2    4    4    0    0 -0.40457801306E+03  0.39921985063E+02  0.10421647720E+04  0.11214726407E+04  0.79475394561E+02 0.  0.
         13    1    3    3    0    0  0.20132594818E+03 -0.37792871832E+03  0.26199153994E+02  0.42900891507E+03  0.00000000000E+00 0.  1.
        -13    1    3    3    0    0  0.29447620883E+03 -0.43548942640E+03 -0.55778284295E+02  0.52865725671E+03  0.00000000000E+00 0. -1.
          4    1    6    6  502    0 -0.40592420951E+03  0.33125503975E+02  0.10265509349E+04  0.11043905943E+04  0.00000000000E+00 0. -1.
          1    1    5    5  503    0 -0.67588902191E+02  0.73202038122E+03  0.59015429139E+03  0.94271108292E+03  0.00000000000E+00 0. -1.
         -2    1    5    5    0  503 -0.23635241755E+02  0.41475778442E+02  0.36222075321E+02  0.59924148644E+02  0.00000000000E+00 0.  1.
         -3    1    6    6    0  502  0.13461964570E+01  0.67964810878E+01  0.15613837086E+02  0.17082046383E+02  0.00000000000E+00 0.  1.
<mgrwt>
<rscale>  0 0.26098151E+04</rscale>
<asrwt>0</asrwt>
<pdfrwt beam="1">  1        1 0.11098554E+00 0.26098151E+04</pdfrwt>
<pdfrwt beam="2">  1       -1 0.36313354E+00 0.26098151E+04</pdfrwt>
<totfact> 0.29084561E-01</totfact>
</mgrwt>
</event>
<event>
12    1  0.1874460E-007  0.1921444E+04  0.7818608E-02  0.8644255E-01
         -1   -1    0    0    0  501 -0.00000000000E+00  0.00000000000E+00  0.39356982118E+03  0.39356982118E+03  0.00000000000E+00 0.  1.
          1   -1    0    0  501    0  0.00000000000E+00 -0.00000000000E+00 -0.23451671212E+04  0.23451671212E+04  0.00000000000E+00 0. -1.
         23    2    1    2    0    0 -0.40479020440E+03 -0.10613650809E+03 -0.16682629265E+04  0.17224332187E+04  0.92492881619E+02 0.  0.
        254    2    1    2    0    0  0.40479020440E+03  0.10613650809E+03 -0.28333437349E+03  0.10163037236E+04  0.88174532803E+03 0.  0.
        -24    2    4    4    0    0  0.63608373094E+03 -0.19953299511E+02 -0.29986103681E+02  0.64241828620E+03  0.82470849968E+02 0.  0.
         24    2    4    4    0    0 -0.23129352654E+03  0.12608980760E+03 -0.25334826981E+03  0.37388543742E+03  0.78801265850E+02 0.  0.
         13    1    3    3    0    0 -0.36513927695E+03 -0.80605988712E+02 -0.13553428466E+04  0.14059794624E+04  0.00000000000E+00 0. -1.
        -13    1    3    3    0    0 -0.39650927456E+02 -0.25530519378E+02 -0.31292007992E+03  0.31645375631E+03  0.00000000000E+00 0.  1.
          2    1    6    6  502    0  0.51215241720E+01  0.57515738794E+01 -0.10233732418E+01  0.77690349933E+01  0.00000000000E+00 0. -1.
          1    1    5    5  503    0  0.12789869387E+03  0.16966851433E+02 -0.31842305713E+02  0.13289049016E+03  0.00000000000E+00 0. -1.
         -2    1    5    5    0  503  0.50818503707E+03 -0.36920150944E+02  0.18562020326E+01  0.50952779604E+03  0.00000000000E+00 0.  1.
         -1    1    6    6    0  502 -0.23641505071E+03  0.12033823372E+03 -0.25232489657E+03  0.36611640243E+03  0.00000000000E+00 0.  1.
<mgrwt>
<rscale>  0 0.19214443E+04</rscale>
<asrwt>0</asrwt>
<pdfrwt beam="1">  1        1 0.36079494E+00 0.19214443E+04</pdfrwt>
<pdfrwt beam="2">  1       -1 0.60549203E-01 0.19214443E+04</pdfrwt>
<totfact> 0.44783421E+00</totfact>
</mgrwt>
</event>
<event>
12    1  0.1397649E-007  0.1280283E+04  0.7818608E-02  0.9045349E-01
          1   -1    0    0  501    0  0.00000000000E+00  0.00000000000E+00  0.64929862483E+03  0.64929862483E+03  0.00000000000E+00 0. -1.
         -1   -1    0    0    0  501 -0.00000000000E+00 -0.00000000000E+00 -0.63111361163E+03  0.63111361163E+03  0.00000000000E+00 0.  1.
         23    2    1    2    0    0  0.24087101951E+03 -0.20247942132E+03  0.22139894317E+02  0.32826192306E+03  0.90823736523E+02 0.  0.
        254    2    1    2    0    0 -0.24087101951E+03  0.20247942132E+03 -0.39548811132E+01  0.95215031340E+03  0.89864220585E+03 0.  0.
        -24    2    4    4    0    0 -0.13335936390E+03 -0.34885947644E+03  0.35516152909E+02  0.38342944017E+03  0.79177548773E+02 0.  0.
         24    2    4    4    0    0 -0.10751165561E+03  0.55133889776E+03 -0.39471034022E+02  0.56872087324E+03  0.79700268853E+02 0.  0.
         11    1    3    3    0    0  0.20467612127E+03 -0.20669556977E+03  0.23162563891E+02  0.29180794634E+03  0.00000000000E+00 0. -1.
        -11    1    3    3    0    0  0.36194898234E+02  0.42161484471E+01 -0.10226695734E+01  0.36453976724E+02  0.00000000000E+00 0.  1.
          2    1    6    6  502    0 -0.99035475049E+02  0.39374575125E+03 -0.56751639295E+02  0.40995669345E+03  0.00000000000E+00 0. -1.
          1    1    5    5  503    0 -0.13961626552E+03 -0.28295960466E+03  0.31825082284E+02  0.31713037592E+03  0.00000000000E+00 0. -1.
         -2    1    5    5    0  503  0.62569016203E+01 -0.65899871774E+02  0.36910706244E+01  0.66299064247E+02  0.00000000000E+00 0.  1.
         -1    1    6    6    0  502 -0.84761805614E+01  0.15759314651E+03  0.17280605273E+02  0.15876417979E+03  0.00000000000E+00 0.  1.
<mgrwt>
<rscale>  0 0.12802831E+04</rscale>
<asrwt>0</asrwt>
<pdfrwt beam="1">  1        1 0.99892096E-01 0.12802831E+04</pdfrwt>
<pdfrwt beam="2">  1       -1 0.97094402E-01 0.12802831E+04</pdfrwt>
<totfact> 0.30612312E+01</totfact>
</mgrwt>
</event>
<event>
12    1  0.1397649E-007  0.1259448E+04  0.7818608E-02  0.9062356E-01
          1   -1    0    0  501    0  0.00000000000E+00  0.00000000000E+00  0.61651509876E+03  0.61651509876E+03  0.00000000000E+00 0. -1.
         -1   -1    0    0    0  501 -0.00000000000E+00 -0.00000000000E+00 -0.64321596235E+03  0.64321596235E+03  0.00000000000E+00 0.  1.
         23    2    1    2    0    0  0.18387118093E+03 -0.23164109333E+03  0.43611709037E+02  0.31296056613E+03  0.92607383588E+02 0.  0.
        254    2    1    2    0    0 -0.18387118093E+03  0.23164109333E+03 -0.70312572626E+02  0.94677049498E+03  0.89664056623E+03 0.  0.
        -24    2    4    4    0    0 -0.25648995738E+03  0.53828782450E+03  0.42204513239E+02  0.60313714282E+03  0.80326283791E+02 0.  0.
         24    2    4    4    0    0  0.72618776449E+02 -0.30664673117E+03 -0.11251708587E+03  0.34363335216E+03  0.78218167168E+02 0.  0.
         13    1    3    3    0    0  0.12660677112E+03 -0.21113590774E+03  0.51829825636E+02  0.25158294230E+03  0.00000000000E+00 0. -1.
        -13    1    3    3    0    0  0.57264409814E+02 -0.20505185587E+02 -0.82181165992E+01  0.61377623835E+02  0.00000000000E+00 0.  1.
          2    1    6    6  502    0  0.71181261365E+02 -0.25792482603E+03 -0.12184833062E+03  0.29400510800E+03  0.00000000000E+00 0. -1.
          1    1    5    5  503    0 -0.20852091052E+03  0.47552170185E+03  0.58369976216E+02  0.52250254849E+03  0.00000000000E+00 0. -1.
         -2    1    5    5    0  503 -0.47969046863E+02  0.62766122646E+02 -0.16165462977E+02  0.80634594327E+02  0.00000000000E+00 0.  1.
         -1    1    6    6    0  502  0.14375150835E+01 -0.48721905144E+02  0.93312447571E+01  0.49628244168E+02  0.00000000000E+00 0.  1.
<mgrwt>
<rscale>  0 0.12594481E+04</rscale>
<asrwt>0</asrwt>
<pdfrwt beam="1">  1        1 0.94848477E-01 0.12594481E+04</pdfrwt>
<pdfrwt beam="2">  1       -1 0.98956301E-01 0.12594481E+04</pdfrwt>
<totfact> 0.31690654E+01</totfact>
</mgrwt>
</event>
<event>
12    1  0.1861030E-007  0.2180814E+04  0.7818608E-02  0.8526456E-01
          1   -1    0    0  501    0  0.00000000000E+00  0.00000000000E+00  0.11266404762E+04  0.11266404762E+04  0.00000000000E+00 0. -1.
         -1   -1    0    0    0  501 -0.00000000000E+00 -0.00000000000E+00 -0.10553389289E+04  0.10553389289E+04  0.00000000000E+00 0.  1.
         23    2    1    2    0    0  0.89807830808E+03  0.81097404950E+02 -0.14732033128E+02  0.90646191996E+03  0.91294813681E+02 0.  0.
        254    2    1    2    0    0 -0.89807830808E+03 -0.81097404950E+02  0.86033580365E+02  0.12755174851E+04  0.89800982251E+03 0.  0.
        -24    2    4    4    0    0 -0.36183990386E+03 -0.12455574665E+03 -0.39027974325E+03  0.55254841539E+03  0.80927271761E+02 0.  0.
         24    2    4    4    0    0 -0.53623840422E+03  0.43458341700E+02  0.47631332362E+03  0.72296906971E+03  0.79810023691E+02 0.  0.
         13    1    3    3    0    0  0.87421817208E+02  0.57523056998E+01 -0.28699386412E+02  0.92191745429E+02  0.00000000000E+00 0.  1.
        -13    1    3    3    0    0  0.81065649087E+03  0.75345099250E+02  0.13967353284E+02  0.81427017453E+03  0.00000000000E+00 0. -1.
          2    1    6    6  502    0 -0.44604254186E+02 -0.71326997756E+01  0.17012198423E+02  0.48268310440E+02  0.00000000000E+00 0. -1.
          3    1    5    5  503    0 -0.31144272821E+02  0.11447445431E+02 -0.26576187595E+02  0.42512392117E+02  0.00000000000E+00 0. -1.
         -4    1    5    5    0  503 -0.33069563104E+03 -0.13600319208E+03 -0.36370355566E+03  0.51003602328E+03  0.00000000000E+00 0.  1.
         -1    1    6    6    0  502 -0.49163415004E+03  0.50591041475E+02  0.45930112519E+03  0.67470075927E+03  0.00000000000E+00 0.  1.
<mgrwt>
<rscale>  0 0.21808141E+04</rscale>
<asrwt>0</asrwt>
<pdfrwt beam="1">  1        1 0.17332931E+00 0.21808141E+04</pdfrwt>
<pdfrwt beam="2">  1       -1 0.16235983E+00 0.21808141E+04</pdfrwt>
<totfact> 0.31016897E+00</totfact>
</mgrwt>
</event>
<event>
12    1  0.1397649E-007  0.1513627E+04  0.7818608E-02  0.8875442E-01
          1   -1    0    0  501    0  0.00000000000E+00  0.00000000000E+00  0.13860008762E+04  0.13860008762E+04  0.00000000000E+00 0. -1.
         -1   -1    0    0    0  501 -0.00000000000E+00 -0.00000000000E+00 -0.41325111884E+03  0.41325111884E+03  0.00000000000E+00 0.  1.
         23    2    1    2    0    0  0.43135616972E+03  0.24121100837E+02  0.56787752320E+03  0.71938042824E+03  0.91505991688E+02 0.  0.
        254    2    1    2    0    0 -0.43135616972E+03 -0.24121100837E+02  0.40487223418E+03  0.10798715668E+04  0.90307867995E+03 0.  0.
        -24    2    4    4    0    0 -0.64897347353E+03 -0.36137373794E+02  0.51230824417E+02  0.65673050300E+03  0.78726596917E+02 0.  0.
         24    2    4    4    0    0  0.21761730381E+03  0.12016272957E+02  0.35364140976E+03  0.42314106383E+03  0.80525967659E+02 0.  0.
         13    1    3    3    0    0  0.11797474737E+03  0.82131855641E+01  0.94173776629E+02  0.15117604850E+03  0.00000000000E+00 0.  1.
        -13    1    3    3    0    0  0.31338142235E+03  0.15907915273E+02  0.47370374657E+03  0.56820437974E+03  0.00000000000E+00 0. -1.
          2    1    6    6  502    0  0.49634123777E+01 -0.40810794624E+00 -0.43200635419E+01  0.65927963364E+01  0.00000000000E+00 0. -1.
          1    1    5    5  503    0 -0.93106459338E+02 -0.19619751561E+02  0.31637695889E+02  0.10027308324E+03  0.00000000000E+00 0. -1.
         -2    1    5    5    0  503 -0.55586701420E+03 -0.16517622233E+02  0.19593128528E+02  0.55645741976E+03  0.00000000000E+00 0.  1.
         -1    1    6    6    0  502  0.21265389144E+03  0.12424380903E+02  0.35796147330E+03  0.41654826750E+03  0.00000000000E+00 0.  1.
<mgrwt>
<rscale>  0 0.15136267E+04</rscale>
<asrwt>0</asrwt>
<pdfrwt beam="1">  1        1 0.21323090E+00 0.15136267E+04</pdfrwt>
<pdfrwt beam="2">  1       -1 0.63577096E-01 0.15136267E+04</pdfrwt>
<totfact> 0.19053850E+01</totfact>
</mgrwt>
</event>
<event>
12    1  0.1397649E-007  0.1402657E+04  0.7818608E-02  0.8951897E-01
         -2   -1    0    0    0  501 -0.00000000000E+00  0.00000000000E+00  0.70233941526E+03  0.70233941526E+03  0.00000000000E+00 0. -1.
          2   -1    0    0  501    0  0.00000000000E+00 -0.00000000000E+00 -0.70031923918E+03  0.70031923918E+03  0.00000000000E+00 0.  1.
         23    2    1    2    0    0  0.11256165350E+03  0.37078870669E+03 -0.11093429791E+03  0.41396762702E+03  0.94384251467E+02 0.  0.
        254    2    1    2    0    0 -0.11256165350E+03 -0.37078870669E+03  0.11295447399E+03  0.98869102742E+03  0.90255018900E+03 0.  0.
        -24    2    4    4    0    0 -0.36976256488E+03 -0.20258286237E+03 -0.25772078662E+03  0.50066276758E+03  0.80492437333E+02 0.  0.
         24    2    4    4    0    0  0.25720091138E+03 -0.16820584431E+03  0.37067526061E+03  0.48802825984E+03  0.79535644230E+02 0.  0.
         11    1    3    3    0    0  0.79152842144E+02  0.18158723253E+03 -0.99049002836E+02  0.22147189529E+03  0.00000000000E+00 0.  1.
        -11    1    3    3    0    0  0.33408811360E+02  0.18920147415E+03 -0.11885295070E+02  0.19249573174E+03  0.00000000000E+00 0. -1.
          2    1    6    6  502    0  0.14557479030E+02 -0.40711831751E+02  0.54992665406E+02  0.69954032683E+02  0.00000000000E+00 0. -1.
          1    1    5    5  503    0 -0.51335362985E+02 -0.57757048546E+02 -0.28130069326E+02  0.82234402472E+02  0.00000000000E+00 0. -1.
         -2    1    5    5    0  503 -0.31842720189E+03 -0.14482581383E+03 -0.22959071729E+03  0.41842836510E+03  0.00000000000E+00 0.  1.
         -1    1    6    6    0  502  0.24264343235E+03 -0.12749401256E+03  0.31568259521E+03  0.41807422716E+03  0.00000000000E+00 0.  1.
<mgrwt>
<rscale>  0 0.14026572E+04</rscale>
<asrwt>0</asrwt>
<pdfrwt beam="1">  1        2 0.10774142E+00 0.14026572E+04</pdfrwt>
<pdfrwt beam="2">  1       -2 0.10805222E+00 0.14026572E+04</pdfrwt>
<totfact> 0.27340736E+01</totfact>
</mgrwt>
</event>
<event>
12    1  0.1397649E-007  0.1160419E+04  0.7818608E-02  0.9148225E-01
         -2   -1    0    0    0  501 -0.00000000000E+00  0.00000000000E+00  0.29950552297E+03  0.29950552297E+03  0.00000000000E+00 0.  1.
          2   -1    0    0  501    0  0.00000000000E+00 -0.00000000000E+00 -0.11239959203E+04  0.11239959203E+04  0.00000000000E+00 0. -1.
         23    2    1    2    0    0 -0.15003739525E+03  0.10449749133E+03 -0.37339236376E+02  0.21198089822E+03  0.10055216045E+03 0.  0.
        254    2    1    2    0    0  0.15003739525E+03 -0.10449749133E+03 -0.78715116093E+03  0.12115205450E+04  0.90263178273E+03 0.  0.
        -24    2    4    4    0    0  0.25016706387E+03 -0.41989429393E+03 -0.70501167727E+03  0.86139305284E+03  0.77857231356E+02 0.  0.
         24    2    4    4    0    0 -0.10012966862E+03  0.31539680260E+03 -0.82139483663E+02  0.35012749219E+03  0.79632106478E+02 0.  0.
         13    1    3    3    0    0 -0.11653532379E+03  0.20989056183E+02 -0.26628433820E+02  0.12136760547E+03  0.00000000000E+00 0.  1.
        -13    1    3    3    0    0 -0.33502071461E+02  0.83508435143E+02 -0.10710802555E+02  0.90613292753E+02  0.00000000000E+00 0. -1.
          4    1    6    6  502    0 -0.92124213104E+02  0.31828714902E+03 -0.82954619042E+02  0.34157729534E+03  0.00000000000E+00 0. -1.
          1    1    5    5  503    0  0.25226666313E+03 -0.38916711265E+03 -0.66856258756E+03  0.81367404062E+03  0.00000000000E+00 0. -1.
         -2    1    5    5    0  503 -0.20995992621E+01 -0.30727181281E+02 -0.36449089711E+02  0.47719012221E+02  0.00000000000E+00 0.  1.
         -3    1    6    6    0  502 -0.80054555127E+01 -0.28903464233E+01  0.81513537854E+00  0.85501968456E+01  0.00000000000E+00 0.  1.
<mgrwt>
<rscale>  0 0.11604189E+04</rscale>
<asrwt>0</asrwt>
<pdfrwt beam="1">  1        2 0.17292245E+00 0.11604189E+04</pdfrwt>
<pdfrwt beam="2">  1       -2 0.46077773E-01 0.11604189E+04</pdfrwt>
<totfact> 0.92989414E+01</totfact>
</mgrwt>
</event>
<event>
12    1  0.1397649E-007  0.1215419E+04  0.7818608E-02  0.9099466E-01
         -1   -1    0    0    0  501 -0.00000000000E+00  0.00000000000E+00  0.33630039858E+03  0.33630039858E+03  0.00000000000E+00 0.  1.
          1   -1    0    0  501    0  0.00000000000E+00 -0.00000000000E+00 -0.10981575055E+04  0.10981575055E+04  0.00000000000E+00 0. -1.
         23    2    1    2    0    0  0.44471815067E+01 -0.21889127609E+03 -0.34820005508E+03  0.42091979033E+03  0.89426077622E+02 0.  0.
        254    2    1    2    0    0 -0.44471815067E+01  0.21889127609E+03 -0.41365705181E+03  0.10135381137E+04  0.89900733216E+03 0.  0.
        -24    2    4    4    0    0 -0.10318518271E+03  0.16779374580E+03  0.25358760311E+03  0.33228563734E+03  0.85470165988E+02 0.  0.
         24    2    4    4    0    0  0.98738001204E+02  0.51097530287E+02 -0.66724465492E+03  0.68125247638E+03  0.80804434102E+02 0.  0.
         11    1    3    3    0    0  0.12662363787E+02 -0.21725678322E+03 -0.35019676463E+03  0.41230888818E+03  0.00000000000E+00 0. -1.
        -11    1    3    3    0    0 -0.82151822798E+01 -0.16344928677E+01  0.19967095480E+01  0.86109021504E+01  0.00000000000E+00 0.  1.
          2    1    6    6  502    0 -0.24625291284E+01 -0.13925018975E+02 -0.12662476825E+03  0.12741193875E+03  0.00000000000E+00 0. -1.
          1    1    5    5  503    0  0.10784884121E+02  0.24247667540E+02  0.60462907225E+02  0.66030494900E+02  0.00000000000E+00 0. -1.
         -2    1    5    5    0  503 -0.11397006683E+03  0.14354607826E+03  0.19312469588E+03  0.26625514244E+03  0.00000000000E+00 0.  1.
         -1    1    6    6    0  502  0.10120053033E+03  0.65022549262E+02 -0.54061988667E+03  0.55384053762E+03  0.00000000000E+00 0.  1.
<mgrwt>
<rscale>  0 0.12154190E+04</rscale>
<asrwt>0</asrwt>
<pdfrwt beam="1">  1        1 0.16894731E+00 0.12154190E+04</pdfrwt>
<pdfrwt beam="2">  1       -1 0.51738523E-01 0.12154190E+04</pdfrwt>
<totfact> 0.47267670E+01</totfact>
</mgrwt>
</event>
<event>
12    1  0.1397649E-007  0.1351304E+04  0.7818608E-02  0.8989841E-01
         -2   -1    0    0    0  501 -0.00000000000E+00  0.00000000000E+00  0.32879889982E+03  0.32879889982E+03  0.00000000000E+00 0. -1.
          2   -1    0    0  501    0  0.00000000000E+00 -0.00000000000E+00 -0.13884041783E+04  0.13884041783E+04  0.00000000000E+00 0.  1.
         23    2    1    2    0    0 -0.35467511476E+03 -0.52164286508E+02 -0.27658530287E+03  0.46102789395E+03  0.86785594559E+02 0.  0.
        254    2    1    2    0    0  0.35467511476E+03  0.52164286508E+02 -0.78301997566E+03  0.12561751842E+04  0.91451640845E+03 0.  0.
        -24    2    4    4    0    0 -0.30046985578E+03  0.56262015695E+02 -0.18549114372E+03  0.36600735309E+03  0.78146461705E+02 0.  0.
         24    2    4    4    0    0  0.65514497054E+03 -0.40977291868E+01 -0.59752883194E+03  0.89016783112E+03  0.78270931732E+02 0.  0.
         13    1    3    3    0    0 -0.55244849046E+02 -0.80300089337E+01 -0.88644017732E+02  0.10475798905E+03  0.00000000000E+00 0. -1.
        -13    1    3    3    0    0 -0.29943026572E+03 -0.44134277574E+02 -0.18794128514E+03  0.35626990491E+03  0.00000000000E+00 0.  1.
          2    1    6    6  502    0  0.24534132082E+03  0.24379917030E+02 -0.26197755031E+03  0.35974849677E+03  0.00000000000E+00 0. -1.
          3    1    5    5  503    0 -0.24634086843E+03  0.75293173238E+02 -0.14310931687E+03  0.29467467141E+03  0.00000000000E+00 0. -1.
         -4    1    5    5    0  503 -0.54128987344E+02 -0.19031157544E+02 -0.42381826850E+02  0.71332681679E+02  0.00000000000E+00 0.  1.
         -1    1    6    6    0  502  0.40980364972E+03 -0.28477646216E+02 -0.33555128163E+03  0.53041933435E+03  0.00000000000E+00 0.  1.
<mgrwt>
<rscale>  0 0.13513042E+04</rscale>
<asrwt>0</asrwt>
<pdfrwt beam="1">  1        2 0.21360064E+00 0.13513042E+04</pdfrwt>
<pdfrwt beam="2">  1       -2 0.50584446E-01 0.13513042E+04</pdfrwt>
<totfact> 0.53020453E+01</totfact>
</mgrwt>
</event>
<event>
12    1  0.1397649E-007  0.1767759E+04  0.7818608E-02  0.8723635E-01
          1   -1    0    0  501    0  0.00000000000E+00  0.00000000000E+00  0.57365652503E+03  0.57365652503E+03  0.00000000000E+00 0. -1.
         -1   -1    0    0    0  501 -0.00000000000E+00 -0.00000000000E+00 -0.13618658996E+04  0.13618658996E+04  0.00000000000E+00 0.  1.
         23    2    1    2    0    0 -0.43240409555E+03  0.28127486128E+03  0.13842040910E+03  0.54132625768E+03  0.88232976583E+02 0.  0.
        254    2    1    2    0    0  0.43240409555E+03 -0.28127486128E+03 -0.92662978364E+03  0.13941961669E+04  0.90501455596E+03 0.  0.
        -24    2    4    4    0    0  0.37827936458E+03  0.14326713434E+03 -0.49630847136E+02  0.41509837502E+03  0.78884032027E+02 0.  0.
         24    2    4    4    0    0  0.54124730975E+02 -0.42454199562E+03 -0.87699893650E+03  0.97909779190E+03  0.79623859043E+02 0.  0.
         13    1    3    3    0    0 -0.38211813896E+03  0.27629479047E+03  0.13587978035E+03  0.49073047396E+03  0.00000000000E+00 0. -1.
        -13    1    3    3    0    0 -0.50285956592E+02  0.49800708101E+01  0.25406287496E+01  0.50595783719E+02  0.00000000000E+00 0.  1.
          2    1    6    6  502    0 -0.19770921997E+02 -0.75846279674E+02 -0.17681107646E+03  0.19340554350E+03  0.00000000000E+00 0. -1.
          1    1    5    5  503    0  0.19164508773E+03  0.11449376332E+03 -0.29773810766E+02  0.22521798618E+03  0.00000000000E+00 0. -1.
         -2    1    5    5    0  503  0.18663427684E+03  0.28773371027E+02 -0.19857036369E+02  0.18988038884E+03  0.00000000000E+00 0.  1.
         -1    1    6    6    0  502  0.73895652972E+02 -0.34869571595E+03 -0.70018786004E+03  0.78569224840E+03  0.00000000000E+00 0.  1.
<mgrwt>
<rscale>  0 0.17677593E+04</rscale>
<asrwt>0</asrwt>
<pdfrwt beam="1">  1        1 0.88254851E-01 0.17677593E+04</pdfrwt>
<pdfrwt beam="2">  1       -1 0.20951783E+00 0.17677593E+04</pdfrwt>
<totfact> 0.44770377E+00</totfact>
</mgrwt>
</event>
<event>
12    1  0.1615934E-007  0.1766969E+04  0.7818608E-02  0.8724065E-01
          2   -1    0    0  501    0  0.00000000000E+00  0.00000000000E+00  0.78387327853E+03  0.78387327853E+03  0.00000000000E+00 0. -1.
         -2   -1    0    0    0  501 -0.00000000000E+00 -0.00000000000E+00 -0.99575376029E+03  0.99575376029E+03  0.00000000000E+00 0.  1.
         23    2    1    2    0    0 -0.32698129279E+03 -0.64411319496E+02  0.49679208023E+03  0.60513427831E+03  0.91211511872E+02 0.  0.
        254    2    1    2    0    0  0.32698129279E+03  0.64411319496E+02 -0.70867256200E+03  0.11744927605E+04  0.87530044011E+03 0.  0.
        -24    2    4    4    0    0  0.27858327110E+03 -0.19718672355E+03  0.61028009878E+02  0.35630159014E+03  0.82068034380E+02 0.  0.
         24    2    4    4    0    0  0.48398021687E+02  0.26159804304E+03 -0.76970057187E+03  0.81819117037E+03  0.78879124637E+02 0.  0.
         11    1    3    3    0    0 -0.31563734583E+03 -0.59311920866E+02  0.42729637241E+03  0.53453440293E+03  0.00000000000E+00 0. -1.
        -11    1    3    3    0    0 -0.11343946959E+02 -0.50993986304E+01  0.69495707822E+02  0.70599875387E+02  0.00000000000E+00 0.  1.
          4    1    6    6  502    0  0.67037318037E+02  0.17245039403E+03 -0.47605019955E+03  0.51074155196E+03  0.00000000000E+00 0. -1.
          3    1    5    5  503    0  0.15991209693E+03 -0.14744451941E+03  0.66677540631E+02  0.22750309772E+03  0.00000000000E+00 0. -1.
         -4    1    5    5    0  503  0.11867117417E+03 -0.49742204138E+02 -0.56495307531E+01  0.12879849242E+03  0.00000000000E+00 0.  1.
         -3    1    6    6    0  502 -0.18639296350E+02  0.89147649012E+02 -0.29365037233E+03  0.30744961841E+03  0.00000000000E+00 0.  1.
<mgrwt>
<rscale>  0 0.17669689E+04</rscale>
<asrwt>0</asrwt>
<pdfrwt beam="1">  1        2 0.12059589E+00 0.17669689E+04</pdfrwt>
<pdfrwt beam="2">  1       -2 0.15319288E+00 0.17669689E+04</pdfrwt>
<totfact> 0.94852223E+00</totfact>
</mgrwt>
</event>
<event>
12    1  0.1397649E-007  0.1174204E+04  0.7818608E-02  0.9135740E-01
          2   -1    0    0  501    0  0.00000000000E+00  0.00000000000E+00  0.99829830720E+03  0.99829830720E+03  0.00000000000E+00 0. -1.
         -2   -1    0    0    0  501 -0.00000000000E+00 -0.00000000000E+00 -0.34527647153E+03  0.34527647153E+03  0.00000000000E+00 0.  1.
         23    2    1    2    0    0 -0.68409930634E+02 -0.20819673623E+03  0.18920573703E+03  0.30315420138E+03  0.89876911968E+02 0.  0.
        254    2    1    2    0    0  0.68409930634E+02  0.20819673623E+03  0.46381609863E+03  0.10404205773E+04  0.90516507049E+03 0.  0.
        -24    2    4    4    0    0 -0.28196878124E+03 -0.73446447816E+02  0.49856579524E+03  0.58286634143E+03  0.79148881898E+02 0.  0.
         24    2    4    4    0    0  0.35037871187E+03  0.28164318404E+03 -0.34749696603E+02  0.45755423591E+03  0.77847366908E+02 0.  0.
         13    1    3    3    0    0 -0.86774814210E+02 -0.19538259191E+03  0.16404734662E+03  0.26947311097E+03  0.00000000000E+00 0. -1.
        -13    1    3    3    0    0  0.18364883576E+02 -0.12814144321E+02  0.25158390412E+02  0.33681090415E+02  0.00000000000E+00 0.  1.
          2    1    6    6  502    0  0.20868492555E+03  0.13699347064E+03  0.11334108764E+02  0.24989011819E+03  0.00000000000E+00 0. -1.
          3    1    5    5  503    0 -0.35779957011E+02 -0.27424591282E+02  0.39562566657E+02  0.59979248171E+02  0.00000000000E+00 0. -1.
         -4    1    5    5    0  503 -0.24618882423E+03 -0.46021856534E+02  0.45900322858E+03  0.52288709326E+03  0.00000000000E+00 0.  1.
         -1    1    6    6    0  502  0.14169378633E+03  0.14464971340E+03 -0.46083805366E+02  0.20766411772E+03  0.00000000000E+00 0.  1.
<mgrwt>
<rscale>  0 0.11742043E+04</rscale>
<asrwt>0</asrwt>
<pdfrwt beam="1">  1        2 0.15358435E+00 0.11742043E+04</pdfrwt>
<pdfrwt beam="2">  1       -2 0.53119458E-01 0.11742043E+04</pdfrwt>
<totfact> 0.83396906E+01</totfact>
</mgrwt>
</event>
<event>
12    1  0.1397649E-007  0.2429958E+04  0.7818608E-02  0.8428372E-01
         -2   -1    0    0    0  501 -0.00000000000E+00  0.00000000000E+00  0.70599583863E+03  0.70599583863E+03  0.00000000000E+00 0.  1.
          2   -1    0    0  501    0  0.00000000000E+00 -0.00000000000E+00 -0.20909109890E+04  0.20909109890E+04  0.00000000000E+00 0. -1.
         23    2    1    2    0    0  0.51070356964E+03  0.74030023033E+03 -0.12026570627E+04  0.15047478333E+04  0.94970859931E+02 0.  0.
        254    2    1    2    0    0 -0.51070356964E+03 -0.74030023033E+03 -0.18225808768E+03  0.12921589944E+04  0.90972209443E+03 0.  0.
        -24    2    4    4    0    0  0.17822864810E+02 -0.14358116963E+03  0.31010808196E+03  0.35185001458E+03  0.81842553008E+02 0.  0.
         24    2    4    4    0    0 -0.52852643445E+03 -0.59671906070E+03 -0.49236616964E+03  0.94030897977E+03  0.79641089406E+02 0.  0.
         13    1    3    3    0    0  0.16827321018E+03  0.17049653241E+03 -0.32443842885E+03  0.40329298896E+03  0.00000000000E+00 0.  1.
        -13    1    3    3    0    0  0.34243035946E+03  0.56980369792E+03 -0.87821863385E+03  0.11014548443E+04  0.00000000000E+00 0. -1.
          2    1    6    6  502    0 -0.17424627489E+03 -0.22024477210E+03 -0.21465788309E+03  0.35347918004E+03  0.00000000000E+00 0. -1.
          3    1    5    5  503    0 -0.29035282839E+02 -0.67408881248E+02  0.10516956864E+03  0.12824836486E+03  0.00000000000E+00 0. -1.
         -4    1    5    5    0  503  0.46858147649E+02 -0.76172288385E+02  0.20493851332E+03  0.22360164972E+03  0.00000000000E+00 0.  1.
         -1    1    6    6    0  502 -0.35428015956E+03 -0.37647428859E+03 -0.27770828655E+03  0.58682979973E+03  0.00000000000E+00 0.  1.
<mgrwt>
<rscale>  0 0.24299584E+04</rscale>
<asrwt>0</asrwt>
<pdfrwt beam="1">  1        2 0.32167862E+00 0.24299584E+04</pdfrwt>
<pdfrwt beam="2">  1       -2 0.10861474E+00 0.24299584E+04</pdfrwt>
<totfact> 0.36126618E+00</totfact>
</mgrwt>
</event>
<event>
12    1  0.1397649E-007  0.1496070E+04  0.7818608E-02  0.8887070E-01
         -2   -1    0    0    0  501 -0.00000000000E+00  0.00000000000E+00  0.76376508158E+03  0.76376508158E+03  0.00000000000E+00 0.  1.
          2   -1    0    0  501    0  0.00000000000E+00 -0.00000000000E+00 -0.73262918175E+03  0.73262918175E+03  0.00000000000E+00 0. -1.
         23    2    1    2    0    0  0.35130206523E+03 -0.28401064590E+03 -0.13473890344E+03  0.47998140468E+03  0.90290579353E+02 0.  0.
        254    2    1    2    0    0 -0.35130206523E+03  0.28401064590E+03  0.16587480326E+03  0.10164128587E+04  0.89526837365E+03 0.  0.
        -24    2    4    4    0    0  0.19588387252E+03  0.25086925316E+03 -0.16865380919E+03  0.36897514159E+03  0.79954199804E+02 0.  0.
         24    2    4    4    0    0 -0.54718593774E+03  0.33141392740E+02  0.33452861245E+03  0.64743771706E+03  0.82191255896E+02 0.  0.
         11    1    3    3    0    0  0.19532972875E+03 -0.15663677958E+03 -0.12115498639E+03  0.27814980564E+03  0.00000000000E+00 0.  1.
        -11    1    3    3    0    0  0.15597233647E+03 -0.12737386632E+03 -0.13583917046E+02  0.20183159903E+03  0.00000000000E+00 0. -1.
          2    1    6    6  502    0 -0.40889684994E+03 -0.81632641007E+00  0.21764789096E+03  0.46321475011E+03  0.00000000000E+00 0. -1.
          1    1    5    5  503    0  0.37369126561E+02  0.10930171916E+03 -0.54391903138E+02  0.12767848902E+03  0.00000000000E+00 0. -1.
         -2    1    5    5    0  503  0.15851474596E+03  0.14156753400E+03 -0.11426190605E+03  0.24129665257E+03  0.00000000000E+00 0.  1.
         -1    1    6    6    0  502 -0.13828908780E+03  0.33957719150E+02  0.11688072149E+03  0.18422296695E+03  0.00000000000E+00 0.  1.
<mgrwt>
<rscale>  0 0.14960703E+04</rscale>
<asrwt>0</asrwt>
<pdfrwt beam="1">  1        2 0.11271218E+00 0.14960703E+04</pdfrwt>
<pdfrwt beam="2">  1       -2 0.11750232E+00 0.14960703E+04</pdfrwt>
<totfact> 0.20895964E+01</totfact>
</mgrwt>
</event>
<event>
12    1  0.1397649E-007  0.1610297E+04  0.7818608E-02  0.8814247E-01
          1   -1    0    0  501    0  0.00000000000E+00  0.00000000000E+00  0.67368412557E+03  0.67368412557E+03  0.00000000000E+00 0. -1.
         -1   -1    0    0    0  501 -0.00000000000E+00 -0.00000000000E+00 -0.96226690473E+03  0.96226690473E+03  0.00000000000E+00 0.  1.
         23    2    1    2    0    0  0.27320941580E+03  0.45071993018E+03  0.29940986694E+02  0.53623536498E+03  0.94127910969E+02 0.  0.
        254    2    1    2    0    0 -0.27320941580E+03 -0.45071993018E+03 -0.31852376586E+03  0.10997156653E+04  0.91111213075E+03 0.  0.
        -24    2    4    4    0    0 -0.26810229309E+03 -0.49236008969E+03 -0.58761099128E+03  0.81604679076E+03  0.79676785580E+02 0.  0.
         24    2    4    4    0    0 -0.51071227144E+01  0.41640159511E+02  0.26908722542E+03  0.28366887456E+03  0.79373231801E+02 0.  0.
         13    1    3    3    0    0 -0.58239978026E+01  0.10739433831E+02 -0.67244998517E+01  0.13945367965E+02  0.00000000000E+00 0.  1.
        -13    1    3    3    0    0  0.27903341361E+03  0.43998049635E+03  0.36665486546E+02  0.52228999701E+03  0.00000000000E+00 0. -1.
          4    1    6    6  502    0  0.10331483958E+02  0.47805920086E+02  0.26031931208E+03  0.26487410178E+03  0.00000000000E+00 0. -1.
          3    1    5    5  503    0 -0.15470307121E+03 -0.34423502708E+03 -0.35778470632E+03  0.52003912371E+03  0.00000000000E+00 0. -1.
         -4    1    5    5    0  503 -0.11339922188E+03 -0.14812506261E+03 -0.22982628496E+03  0.29600766705E+03  0.00000000000E+00 0.  1.
         -1    1    6    6    0  502 -0.15438606672E+02 -0.61657605755E+01  0.87679133407E+01  0.18794772779E+02  0.00000000000E+00 0.  1.
<mgrwt>
<rscale>  0 0.16102968E+04</rscale>
<asrwt>0</asrwt>
<pdfrwt beam="1">  1        1 0.10364371E+00 0.16102968E+04</pdfrwt>
<pdfrwt beam="2">  1       -1 0.14804106E+00 0.16102968E+04</pdfrwt>
<totfact> 0.10005935E+01</totfact>
</mgrwt>
</event>
<event>
12    1  0.1397649E-007  0.2012825E+04  0.7818608E-02  0.8600648E-01
         -2   -1    0    0    0  501 -0.00000000000E+00  0.00000000000E+00  0.66470586920E+03  0.66470586920E+03  0.00000000000E+00 0.  1.
          2   -1    0    0  501    0  0.00000000000E+00 -0.00000000000E+00 -0.15237808555E+04  0.15237808555E+04  0.00000000000E+00 0. -1.
         23    2    1    2    0    0 -0.26119216584E+03  0.75673949627E+03 -0.35549256794E+03  0.88057084551E+03  0.90299697605E+02 0.  0.
        254    2    1    2    0    0  0.26119216584E+03 -0.75673949627E+03 -0.50358241839E+03  0.13079158792E+04  0.90342275946E+03 0.  0.
        -24    2    4    4    0    0  0.37486059752E+03  0.23772754153E+02 -0.30265837316E+03  0.48999056376E+03  0.86040980472E+02 0.  0.
         24    2    4    4    0    0 -0.11366843168E+03 -0.78051225042E+03 -0.20092404523E+03  0.81792531546E+03  0.80693644728E+02 0.  0.
         11    1    3    3    0    0 -0.26323722114E+03  0.70319139891E+03 -0.31937707671E+03  0.81594956659E+03  0.00000000000E+00 0.  1.
        -11    1    3    3    0    0  0.20450552971E+01  0.53548097361E+02 -0.36115491231E+02  0.64621278918E+02  0.00000000000E+00 0. -1.
          2    1    6    6  502    0 -0.78080622938E+02 -0.64010774066E+03 -0.19189917118E+03  0.67279996673E+03  0.00000000000E+00 0. -1.
          3    1    5    5  503    0  0.32282458853E+03  0.48784133160E+02 -0.24320483939E+03  0.40711693714E+03  0.00000000000E+00 0. -1.
         -4    1    5    5    0  503  0.52036008995E+02 -0.25011379007E+02 -0.59453533762E+02  0.82873626617E+02  0.00000000000E+00 0.  1.
         -1    1    6    6    0  502 -0.35587808742E+02 -0.14040450977E+03 -0.90248740497E+01  0.14512534874E+03  0.00000000000E+00 0.  1.
<mgrwt>
<rscale>  0 0.20128250E+04</rscale>
<asrwt>0</asrwt>
<pdfrwt beam="1">  1        2 0.23442782E+00 0.20128250E+04</pdfrwt>
<pdfrwt beam="2">  1       -2 0.10226244E+00 0.20128250E+04</pdfrwt>
<totfact> 0.89461908E+00</totfact>
</mgrwt>
</event>
<event>
12    1  0.1397649E-007  0.2516799E+04  0.7818608E-02  0.8397025E-01
          2   -1    0    0  501    0  0.00000000000E+00  0.00000000000E+00  0.10641475622E+04  0.10641475622E+04  0.00000000000E+00 0. -1.
         -2   -1    0    0    0  501 -0.00000000000E+00 -0.00000000000E+00 -0.14881109657E+04  0.14881109657E+04  0.00000000000E+00 0.  1.
         23    2    1    2    0    0 -0.59212135104E+03 -0.33692535502E+03  0.68150468071E+03  0.96811731175E+03  0.93145640061E+02 0.  0.
        254    2    1    2    0    0  0.59212135104E+03  0.33692535502E+03 -0.11054680842E+04  0.15841412161E+04  0.90736834764E+03 0.  0.
        -24    2    4    4    0    0 -0.11621570190E+03 -0.19840592265E+03 -0.23413710506E+03  0.33750471000E+03  0.78855854554E+02 0.  0.
         24    2    4    4    0    0  0.70833705294E+03  0.53533127767E+03 -0.87133097914E+03  0.12466365061E+04  0.81018182099E+02 0.  0.
         11    1    3    3    0    0 -0.12209703562E+03 -0.11507028344E+03  0.16009157617E+03  0.23190120526E+03  0.00000000000E+00 0.  1.
        -11    1    3    3    0    0 -0.47002431542E+03 -0.22185507158E+03  0.52141310454E+03  0.73621610649E+03  0.00000000000E+00 0. -1.
          4    1    6    6  502    0  0.23031310881E+02  0.12235096637E+02 -0.47412507003E+02  0.54111779595E+02  0.00000000000E+00 0. -1.
          1    1    5    5  503    0 -0.18399409101E+02 -0.17229239105E+02 -0.69339166936E+02  0.73778757151E+02  0.00000000000E+00 0. -1.
         -2    1    5    5    0  503 -0.97816292797E+02 -0.18117668355E+03 -0.16479793812E+03  0.26372595285E+03  0.00000000000E+00 0.  1.
         -3    1    6    6    0  502  0.68530574206E+03  0.52309618103E+03 -0.82391847214E+03  0.11925247266E+04  0.00000000000E+00 0.  1.
<mgrwt>
<rscale>  0 0.25167993E+04</rscale>
<asrwt>0</asrwt>
<pdfrwt beam="1">  1        2 0.16371501E+00 0.25167993E+04</pdfrwt>
<pdfrwt beam="2">  1       -2 0.22894015E+00 0.25167993E+04</pdfrwt>
<totfact> 0.17731263E+00</totfact>
</mgrwt>
</event>
<event>
12    1  0.1397649E-007  0.2076985E+04  0.7818608E-02  0.8571450E-01
          2   -1    0    0  501    0  0.00000000000E+00  0.00000000000E+00  0.82075490474E+03  0.82075490474E+03  0.00000000000E+00 0. -1.
         -2   -1    0    0    0  501 -0.00000000000E+00 -0.00000000000E+00 -0.13139935130E+04  0.13139935130E+04  0.00000000000E+00 0.  1.
         23    2    1    2    0    0 -0.33037349095E+03  0.15668353316E+03  0.57400734552E+03  0.68663230157E+03  0.91011602350E+02 0.  0.
        254    2    1    2    0    0  0.33037349095E+03 -0.15668353316E+03 -0.10672459538E+04  0.14481161162E+04  0.90792620127E+03 0.  0.
        -24    2    4    4    0    0 -0.84636164461E+00 -0.20872862823E+01  0.15183638096E+03  0.17283903481E+03  0.82546788427E+02 0.  0.
         24    2    4    4    0    0  0.33121985259E+03 -0.15459624688E+03 -0.12190823347E+04  0.12752770814E+04  0.81014227645E+02 0.  0.
         11    1    3    3    0    0 -0.22555427825E+03  0.59654848497E+02  0.37547860994E+03  0.44206065184E+03  0.00000000000E+00 0. -1.
        -11    1    3    3    0    0 -0.10481921270E+03  0.97028684667E+02  0.19852873559E+03  0.24457164973E+03  0.00000000000E+00 0.  1.
          2    1    6    6  502    0  0.29265814136E+03 -0.10712486815E+03 -0.97207318978E+03  0.10208089005E+04  0.00000000000E+00 0. -1.
          1    1    5    5  503    0  0.39643383363E+02  0.26570921950E+01  0.94256553858E+02  0.10228859139E+03  0.00000000000E+00 0. -1.
         -2    1    5    5    0  503 -0.40489745007E+02 -0.47443784773E+01  0.57579827098E+02  0.70550443418E+02  0.00000000000E+00 0.  1.
         -1    1    6    6    0  502  0.38561711228E+02 -0.47471378732E+02 -0.24700914494E+03  0.25446818083E+03  0.00000000000E+00 0.  1.
<mgrwt>
<rscale>  0 0.20769849E+04</rscale>
<asrwt>0</asrwt>
<pdfrwt beam="1">  1        2 0.12626998E+00 0.20769849E+04</pdfrwt>
<pdfrwt beam="2">  1       -2 0.20215285E+00 0.20769849E+04</pdfrwt>
<totfact> 0.39545641E+00</totfact>
</mgrwt>
</event>
<event>
12    1  0.1397649E-007  0.1498289E+04  0.7818608E-02  0.8885591E-01
         -1   -1    0    0    0  501 -0.00000000000E+00  0.00000000000E+00  0.56995864942E+03  0.56995864942E+03  0.00000000000E+00 0.  1.
          1   -1    0    0  501    0  0.00000000000E+00 -0.00000000000E+00 -0.98466359419E+03  0.98466359419E+03  0.00000000000E+00 0. -1.
         23    2    1    2    0    0  0.16773317704E+03  0.32930604538E+03 -0.42592135830E+03  0.57083397660E+03  0.88687852512E+02 0.  0.
        254    2    1    2    0    0 -0.16773317704E+03 -0.32930604538E+03  0.11216413529E+02  0.98378826700E+03  0.91166696560E+03 0.  0.
        -24    2    4    4    0    0 -0.18783737501E+03  0.26681216378E+03  0.14646267380E+03  0.36682063362E+03  0.81452146941E+02 0.  0.
         24    2    4    4    0    0  0.20104197976E+02 -0.59611820916E+03 -0.13524626028E+03  0.61696763338E+03  0.81218296332E+02 0.  0.
         11    1    3    3    0    0  0.28949579731E+02  0.14676803139E+02 -0.63000697647E+02  0.70870125025E+02  0.00000000000E+00 0.  1.
        -11    1    3    3    0    0  0.13878359731E+03  0.31462924224E+03 -0.36292066065E+03  0.49996385157E+03  0.00000000000E+00 0. -1.
          4    1    6    6  502    0  0.28405315722E+02 -0.55974585902E+03 -0.14395261267E+03  0.57865762187E+03  0.00000000000E+00 0. -1.
          3    1    5    5  503    0 -0.18182254977E+03  0.22377012725E+03  0.14638775161E+03  0.32336029948E+03  0.00000000000E+00 0. -1.
         -4    1    5    5    0  503 -0.60148252426E+01  0.43042036522E+02  0.74922196623E-01  0.43460334145E+02  0.00000000000E+00 0.  1.
         -3    1    6    6    0  502 -0.83011177464E+01 -0.36372350135E+02  0.87063523930E+01  0.38310011514E+02  0.00000000000E+00 0.  1.
<mgrwt>
<rscale>  0 0.14982891E+04</rscale>
<asrwt>0</asrwt>
<pdfrwt beam="1">  1        1 0.15148670E+00 0.14982891E+04</pdfrwt>
<pdfrwt beam="2">  1       -1 0.87685947E-01 0.14982891E+04</pdfrwt>
<totfact> 0.19258388E+01</totfact>
</mgrwt>
</event>
<event>
12    1  0.1397649E-007  0.1627908E+04  0.7818608E-02  0.8803584E-01
          2   -1    0    0  501    0  0.00000000000E+00  0.00000000000E+00  0.14484236467E+04  0.14484236467E+04  0.00000000000E+00 0. -1.
         -2   -1    0    0    0  501 -0.00000000000E+00 -0.00000000000E+00 -0.45740826346E+03  0.45740826346E+03  0.00000000000E+00 0.  1.
         23    2    1    2    0    0 -0.33815786235E+03 -0.43203881309E+03  0.23757048291E+03  0.60464048267E+03  0.90233602594E+02 0.  0.
        254    2    1    2    0    0  0.33815786235E+03  0.43203881309E+03  0.75344490032E+03  0.13011914275E+04  0.90797116543E+03 0.  0.
        -24    2    4    4    0    0 -0.23862219605E+03  0.68346689602E+02  0.50817429972E+03  0.57224056817E+03  0.87214256508E+02 0.  0.
         24    2    4    4    0    0  0.57678005840E+03  0.36369212349E+03  0.24527060060E+03  0.72895085931E+03  0.79148539507E+02 0.  0.
         13    1    3    3    0    0 -0.14516171530E+02 -0.48531024189E+02  0.31104796983E+01  0.50750907663E+02  0.00000000000E+00 0.  1.
        -13    1    3    3    0    0 -0.32364169082E+03 -0.38350778890E+03  0.23446000322E+03  0.55388957500E+03  0.00000000000E+00 0. -1.
          2    1    6    6  502    0  0.55970960506E+03  0.35502554315E+03  0.25134336862E+03  0.70886632537E+03  0.00000000000E+00 0. -1.
          1    1    5    5  503    0 -0.19597338391E+03  0.70777683475E+02  0.47316003015E+03  0.51700624929E+03  0.00000000000E+00 0. -1.
         -2    1    5    5    0  503 -0.42648812143E+02 -0.24309938736E+01  0.35014269574E+02  0.55234318881E+02  0.00000000000E+00 0.  1.
         -1    1    6    6    0  502  0.17070453344E+02  0.86665803365E+01 -0.60727680265E+01  0.20084533940E+02  0.00000000000E+00 0.  1.
<mgrwt>
<rscale>  0 0.16279078E+04</rscale>
<asrwt>0</asrwt>
<pdfrwt beam="1">  1        2 0.22283440E+00 0.16279078E+04</pdfrwt>
<pdfrwt beam="2">  1       -2 0.70370503E-01 0.16279078E+04</pdfrwt>
<totfact> 0.23873909E+01</totfact>
</mgrwt>
</event>
<event>
12    1  0.1397649E-007  0.4190339E+04  0.7818608E-02  0.7967213E-01
          3   -1    0    0  501    0  0.00000000000E+00  0.00000000000E+00  0.20412237208E+04  0.20412237208E+04  0.00000000000E+00 0. -1.
         -3   -1    0    0    0  501 -0.00000000000E+00 -0.00000000000E+00 -0.21505404839E+04  0.21505404839E+04  0.00000000000E+00 0.  1.
         23    2    1    2    0    0 -0.13617070274E+04 -0.75789073801E+03 -0.12987374463E+04  0.20307176358E+04  0.91928028962E+02 0.  0.
        254    2    1    2    0    0  0.13617070274E+04  0.75789073801E+03  0.11894206832E+04  0.21610465690E+04  0.90926141038E+03 0.  0.
        -24    2    4    4    0    0  0.10350258291E+04  0.88926534605E+03  0.65443597076E+03  0.15155809814E+04  0.81412214870E+02 0.  0.
         24    2    4    4    0    0  0.32668119832E+03 -0.13137460804E+03  0.53498471245E+03  0.64546558761E+03  0.80232719350E+02 0.  0.
         11    1    3    3    0    0 -0.11901935202E+04 -0.67279769846E+03 -0.11751770693E+04  0.18028473321E+04  0.00000000000E+00 0.  1.
        -11    1    3    3    0    0 -0.17151350720E+03 -0.85093039554E+02 -0.12356037700E+03  0.22787030368E+03  0.00000000000E+00 0. -1.
          4    1    6    6  502    0  0.23735132879E+03 -0.77162252430E+02  0.31469932628E+03  0.40165324901E+03  0.00000000000E+00 0. -1.
          3    1    5    5  503    0  0.84644612551E+03  0.69740511088E+03  0.55084239235E+03  0.12273028450E+04  0.00000000000E+00 0. -1.
         -4    1    5    5    0  503  0.18857970354E+03  0.19186023517E+03  0.10359357841E+03  0.28827813638E+03  0.00000000000E+00 0.  1.
         -3    1    6    6    0  502  0.89329869524E+02 -0.54212355607E+02  0.22028538618E+03  0.24381233860E+03  0.00000000000E+00 0.  1.
<mgrwt>
<rscale>  0 0.41903385E+04</rscale>
<asrwt>0</asrwt>
<pdfrwt beam="1">  1        3 0.31403442E+00 0.41903385E+04</pdfrwt>
<pdfrwt beam="2">  1       -3 0.33085238E+00 0.41903385E+04</pdfrwt>
<totfact> 0.16523601E-03</totfact>
</mgrwt>
</event>
<event>
12    1  0.1397649E-007  0.1719793E+04  0.7818608E-02  0.8750155E-01
         -1   -1    0    0    0  501 -0.00000000000E+00  0.00000000000E+00  0.46280648846E+03  0.46280648846E+03  0.00000000000E+00 0.  1.
          1   -1    0    0  501    0  0.00000000000E+00 -0.00000000000E+00 -0.15976916937E+04  0.15976916937E+04  0.00000000000E+00 0. -1.
         23    2    1    2    0    0 -0.38276485015E+03  0.13245200195E+03 -0.96951085971E+03  0.10548688144E+04  0.93511738038E+02 0.  0.
        254    2    1    2    0    0  0.38276485015E+03 -0.13245200195E+03 -0.16537434556E+03  0.10056293678E+04  0.90547738120E+03 0.  0.
        -24    2    4    4    0    0  0.66833573355E+03 -0.55953538600E+02 -0.46055374705E+02  0.67697633688E+03  0.79827388410E+02 0.  0.
         24    2    4    4    0    0 -0.28557088340E+03 -0.76498463352E+02 -0.11931897085E+03  0.32865303091E+03  0.79831407257E+02 0.  0.
         13    1    3    3    0    0 -0.37390502233E+03  0.12678699247E+03 -0.96634231574E+03  0.10438857114E+04  0.00000000000E+00 0. -1.
        -13    1    3    3    0    0 -0.88598278230E+01  0.56650094813E+01 -0.31685439722E+01  0.10983103040E+02  0.00000000000E+00 0.  1.
          2    1    6    6  502    0 -0.67180704736E+02 -0.51211471101E+02 -0.49865361677E+02  0.98093914981E+02  0.00000000000E+00 0. -1.
          3    1    5    5  503    0  0.51130235612E+03 -0.88447253425E+01 -0.39388111530E+02  0.51289350929E+03  0.00000000000E+00 0. -1.
         -4    1    5    5    0  503  0.15703337743E+03 -0.47108813257E+02 -0.66672631757E+01  0.16408282759E+03  0.00000000000E+00 0.  1.
         -1    1    6    6    0  502 -0.21839017866E+03 -0.25286992252E+02 -0.69453609176E+02  0.23055911593E+03  0.00000000000E+00 0.  1.
<mgrwt>
<rscale>  0 0.17197931E+04</rscale>
<asrwt>0</asrwt>
<pdfrwt beam="1">  1        1 0.24579873E+00 0.17197931E+04</pdfrwt>
<pdfrwt beam="2">  1       -1 0.71200997E-01 0.17197931E+04</pdfrwt>
<totfact> 0.10598909E+01</totfact>
</mgrwt>
</event>
<event>
12    1  0.1397649E-007  0.1339631E+04  0.7818608E-02  0.8998715E-01
          2   -1    0    0  501    0  0.00000000000E+00  0.00000000000E+00  0.11424357562E+04  0.11424357562E+04  0.00000000000E+00 0. -1.
         -2   -1    0    0    0  501 -0.00000000000E+00 -0.00000000000E+00 -0.39271595895E+03  0.39271595895E+03  0.00000000000E+00 0.  1.
         23    2    1    2    0    0  0.16860521929E+03 -0.30440173677E+03  0.31951665419E+03  0.48098248227E+03  0.90361045934E+02 0.  0.
        254    2    1    2    0    0 -0.16860521929E+03  0.30440173677E+03  0.43020314301E+03  0.10541692328E+04  0.89727915940E+03 0.  0.
        -24    2    4    4    0    0 -0.38383015801E+03  0.49717309721E+03  0.40358706462E+03  0.75083049841E+03  0.79732301027E+02 0.  0.
         24    2    4    4    0    0  0.21522493872E+03 -0.19277136044E+03  0.26616078391E+02  0.30333873443E+03  0.88449988829E+02 0.  0.
         13    1    3    3    0    0 -0.50348449994E+01 -0.14317192876E+02  0.38410553222E+02  0.41300148606E+02  0.00000000000E+00 0. -1.
        -13    1    3    3    0    0  0.17364006429E+03 -0.29008454389E+03  0.28110610097E+03  0.43968233366E+03  0.00000000000E+00 0.  1.
          2    1    6    6  502    0  0.74071351620E+02 -0.64636286031E+02  0.51673004894E+02  0.11106085736E+03  0.00000000000E+00 0. -1.
          3    1    5    5  503    0 -0.31919838602E+02  0.53173673823E+02  0.14944568372E+02  0.63793853999E+02  0.00000000000E+00 0. -1.
         -2    1    5    5    0  503 -0.35191031941E+03  0.44399942339E+03  0.38864249625E+03  0.68703664441E+03  0.00000000000E+00 0.  1.
         -1    1    6    6    0  502  0.14115358710E+03 -0.12813507441E+03 -0.25056926503E+02  0.19227787707E+03  0.00000000000E+00 0.  1.
<mgrwt>
<rscale>  0 0.13396309E+04</rscale>
<asrwt>0</asrwt>
<pdfrwt beam="1">  1        2 0.17575935E+00 0.13396309E+04</pdfrwt>
<pdfrwt beam="2">  1       -2 0.60417840E-01 0.13396309E+04</pdfrwt>
<totfact> 0.51188901E+01</totfact>
</mgrwt>
</event>
<event>
12    1  0.1397649E-007  0.2911446E+04  0.7818608E-02  0.8269480E-01
         -2   -1    0    0    0  501 -0.00000000000E+00  0.00000000000E+00  0.15278230052E+04  0.15278230052E+04  0.00000000000E+00 0.  1.
          2   -1    0    0  501    0  0.00000000000E+00 -0.00000000000E+00 -0.13870257468E+04  0.13870257468E+04  0.00000000000E+00 0. -1.
         23    2    1    2    0    0 -0.11243489188E+02  0.86159891439E+03 -0.92774996231E+03  0.12694573508E+04  0.91229752025E+02 0.  0.
        254    2    1    2    0    0  0.11243489188E+02 -0.86159891439E+03  0.10685472207E+04  0.16453914012E+04  0.90721584805E+03 0.  0.
        -24    2    4    4    0    0 -0.32630879550E+03 -0.45795543860E+03  0.15489528644E+03  0.58784757004E+03  0.73291214194E+02 0.  0.
         24    2    4    4    0    0  0.33755228469E+03 -0.40364347579E+03  0.91365193427E+03  0.10575438312E+04  0.82276955419E+02 0.  0.
         13    1    3    3    0    0  0.38896792140E+02  0.44961433623E+03 -0.49585260638E+03  0.67047432392E+03  0.00000000000E+00 0.  1.
        -13    1    3    3    0    0 -0.50140281328E+02  0.41198457816E+03 -0.43189735593E+03  0.59898302690E+03  0.00000000000E+00 0. -1.
          4    1    6    6  502    0  0.60068403321E+02 -0.74729976196E+02  0.10991707110E+03  0.14585796152E+03  0.00000000000E+00 0. -1.
          3    1    5    5  503    0 -0.35222542279E+02 -0.71899335107E+02  0.45642265186E+02  0.92159417558E+02  0.00000000000E+00 0. -1.
         -4    1    5    5    0  503 -0.29108625322E+03 -0.38605610350E+03  0.10925302125E+03  0.49568815248E+03  0.00000000000E+00 0.  1.
         -3    1    6    6    0  502  0.27748388137E+03 -0.32891349959E+03  0.80373486316E+03  0.91168586964E+03  0.00000000000E+00 0.  1.
<mgrwt>
<rscale>  0 0.29114463E+04</rscale>
<asrwt>0</asrwt>
<pdfrwt beam="1">  1        2 0.21338858E+00 0.29114463E+04</pdfrwt>
<pdfrwt beam="2">  1       -2 0.23504969E+00 0.29114463E+04</pdfrwt>
<totfact> 0.10092598E+00</totfact>
</mgrwt>
</event>
<event>
12    1  0.1397649E-007  0.1472993E+04  0.7818608E-02  0.8902614E-01
          1   -1    0    0  501    0  0.00000000000E+00  0.00000000000E+00  0.16109770259E+04  0.16109770259E+04  0.00000000000E+00 0. -1.
         -1   -1    0    0    0  501 -0.00000000000E+00 -0.00000000000E+00 -0.33670690154E+03  0.33670690154E+03  0.00000000000E+00 0.  1.
         23    2    1    2    0    0 -0.11195318948E+03  0.42612606756E+03  0.53445902946E+03  0.69831428066E+03  0.88766200301E+02 0.  0.
        254    2    1    2    0    0  0.11195318948E+03 -0.42612606756E+03  0.73981109486E+03  0.12493696467E+04  0.90525527673E+03 0.  0.
        -24    2    4    4    0    0  0.14689085828E+03  0.25176092041E+03  0.34660918546E+03  0.45999030942E+03  0.80577118499E+02 0.  0.
         24    2    4    4    0    0 -0.34937668804E+02 -0.67788698797E+03  0.39320190940E+03  0.78937933732E+03  0.88094196630E+02 0.  0.
         13    1    3    3    0    0  0.12590714229E+02  0.90532811378E+02  0.11399948593E+03  0.14611844104E+03  0.00000000000E+00 0.  1.
        -13    1    3    3    0    0 -0.12454390371E+03  0.33559325618E+03  0.42045954353E+03  0.55219583962E+03  0.00000000000E+00 0. -1.
          4    1    6    6  502    0 -0.35655409645E+01 -0.58752001598E+03  0.32076534141E+03  0.66938993607E+03  0.00000000000E+00 0. -1.
          1    1    5    5  503    0  0.13910699515E+03  0.25454172760E+03  0.34627564017E+03  0.45171790551E+03  0.00000000000E+00 0. -1.
         -2    1    5    5    0  503  0.77838631367E+01 -0.27808071928E+01  0.33354529355E+00  0.82724039092E+01  0.00000000000E+00 0.  1.
         -3    1    6    6    0  502 -0.31372127840E+02 -0.90366971984E+02  0.72436567985E+02  0.11998940125E+03  0.00000000000E+00 0.  1.
<mgrwt>
<rscale>  0 0.14729930E+04</rscale>
<asrwt>0</asrwt>
<pdfrwt beam="1">  1        1 0.24784262E+00 0.14729930E+04</pdfrwt>
<pdfrwt beam="2">  1       -1 0.51801063E-01 0.14729930E+04</pdfrwt>
<totfact> 0.19942733E+01</totfact>
</mgrwt>
</event>
<event>
12    1  0.1397649E-007  0.2919318E+04  0.7818608E-02  0.8267153E-01
          1   -1    0    0  501    0  0.00000000000E+00  0.00000000000E+00  0.28878844161E+04  0.28878844161E+04  0.00000000000E+00 0. -1.
         -1   -1    0    0    0  501 -0.00000000000E+00 -0.00000000000E+00 -0.73777356518E+03  0.73777356518E+03  0.00000000000E+00 0.  1.
         23    2    1    2    0    0 -0.83051681650E+03  0.98186362711E+03  0.13528017732E+04  0.18688120689E+04  0.92582648737E+02 0.  0.
        254    2    1    2    0    0  0.83051681650E+03 -0.98186362711E+03  0.79730907775E+03  0.17568459123E+04  0.89274376475E+03 0.  0.
        -24    2    4    4    0    0 -0.17803975525E+02  0.18478954724E+02  0.36029970655E+03  0.37204353803E+03  0.89118249179E+02 0.  0.
         24    2    4    4    0    0  0.84832079202E+03 -0.10003425818E+04  0.43700937120E+03  0.13848023743E+04  0.79793346546E+02 0.  0.
         11    1    3    3    0    0 -0.60118871663E+03  0.75671839206E+03  0.97544398781E+03  0.13731502362E+04  0.00000000000E+00 0. -1.
        -11    1    3    3    0    0 -0.22932809987E+03  0.22514523505E+03  0.37735778534E+03  0.49566183272E+03  0.00000000000E+00 0.  1.
          2    1    6    6  502    0  0.71227009330E+03 -0.82437933802E+03  0.33268220113E+03  0.11391257287E+04  0.00000000000E+00 0. -1.
          1    1    5    5  503    0 -0.34884549274E+02  0.43259004166E+02  0.29436457258E+03  0.29956430830E+03  0.00000000000E+00 0. -1.
         -2    1    5    5    0  503  0.17080573749E+02 -0.24780049442E+02  0.65935133977E+02  0.72479229732E+02  0.00000000000E+00 0.  1.
         -1    1    6    6    0  502  0.13605069873E+03 -0.17596324381E+03  0.10432717007E+03  0.24567664564E+03  0.00000000000E+00 0.  1.
<mgrwt>
<rscale>  0 0.29193183E+04</rscale>
<asrwt>0</asrwt>
<pdfrwt beam="1">  1        1 0.44428990E+00 0.29193183E+04</pdfrwt>
<pdfrwt beam="2">  1       -1 0.11350363E+00 0.29193183E+04</pdfrwt>
<totfact> 0.43724057E-01</totfact>
</mgrwt>
</event>
<event>
12    1  0.1397649E-007  0.1213248E+04  0.7818608E-02  0.9101339E-01
         -2   -1    0    0    0  501 -0.00000000000E+00  0.00000000000E+00  0.59897904324E+03  0.59897904324E+03  0.00000000000E+00 0.  1.
          2   -1    0    0  501    0  0.00000000000E+00 -0.00000000000E+00 -0.61436655621E+03  0.61436655621E+03  0.00000000000E+00 0. -1.
         23    2    1    2    0    0  0.23268487330E+03 -0.12440649663E+03  0.35373524975E+02  0.28105590937E+03  0.90121646975E+02 0.  0.
        254    2    1    2    0    0 -0.23268487330E+03  0.12440649663E+03 -0.50761037953E+02  0.93228969009E+03  0.89273073018E+03 0.  0.
        -24    2    4    4    0    0 -0.26444363826E+03  0.47114262768E+03 -0.14071797854E+03  0.56395218337E+03  0.79590842475E+02 0.  0.
         24    2    4    4    0    0  0.31758764953E+02 -0.34673613106E+03  0.89956940584E+02  0.36833750672E+03  0.79659926980E+02 0.  0.
         11    1    3    3    0    0  0.13591243566E+03 -0.86506793279E+02 -0.21576714588E+02  0.16254590140E+03  0.00000000000E+00 0. -1.
        -11    1    3    3    0    0  0.96772437645E+02 -0.37899703347E+02  0.56950239563E+02  0.11851000796E+03  0.00000000000E+00 0.  1.
          2    1    6    6  502    0  0.48995299797E+02 -0.32674928680E+03  0.78708852256E+02  0.33964793426E+03  0.00000000000E+00 0. -1.
          3    1    5    5  503    0 -0.15990181619E+03  0.28048770736E+03 -0.43536685691E+02  0.32578733524E+03  0.00000000000E+00 0. -1.
         -4    1    5    5    0  503 -0.10454182206E+03  0.19065492032E+03 -0.97181292846E+02  0.23816484812E+03  0.00000000000E+00 0.  1.
         -1    1    6    6    0  502 -0.17236534844E+02 -0.19986844261E+02  0.11248088328E+02  0.28689572461E+02  0.00000000000E+00 0.  1.
<mgrwt>
<rscale>  0 0.12132480E+04</rscale>
<asrwt>0</asrwt>
<pdfrwt beam="1">  1        2 0.94517931E-01 0.12132480E+04</pdfrwt>
<pdfrwt beam="2">  1       -2 0.92150622E-01 0.12132480E+04</pdfrwt>
<totfact> 0.47555455E+01</totfact>
</mgrwt>
</event>
<event>
12    1  0.1867418E-007  0.1925777E+04  0.7818608E-02  0.8642131E-01
          2   -1    0    0  501    0  0.00000000000E+00  0.00000000000E+00  0.26663922374E+04  0.26663922374E+04  0.00000000000E+00 0. -1.
         -2   -1    0    0    0  501 -0.00000000000E+00 -0.00000000000E+00 -0.34771849652E+03  0.34771849652E+03  0.00000000000E+00 0.  1.
         23    2    1    2    0    0  0.31197693109E+03 -0.67971989656E+03  0.95554988012E+03  0.12168671255E+04  0.91330632156E+02 0.  0.
        254    2    1    2    0    0 -0.31197693109E+03  0.67971989656E+03  0.13631238608E+04  0.17972436085E+04  0.90145947496E+03 0.  0.
        -24    2    4    4    0    0 -0.20078814095E+03  0.38326608047E+02  0.10459340062E+04  0.10686669609E+04  0.79286326171E+02 0.  0.
         24    2    4    4    0    0 -0.11118879014E+03  0.64139328851E+03  0.31718985455E+03  0.72857664754E+03  0.80412871634E+02 0.  0.
         13    1    3    3    0    0  0.27798693721E+02 -0.32860887676E+02  0.29989924148E+02  0.52459516409E+02  0.00000000000E+00 0.  1.
        -13    1    3    3    0    0  0.28417823736E+03 -0.64685900888E+03  0.92555995598E+03  0.11644076091E+04  0.00000000000E+00 0. -1.
          4    1    6    6  502    0 -0.98414871643E+02  0.59804658448E+03  0.27086864661E+03  0.66386371183E+03  0.00000000000E+00 0. -1.
          3    1    5    5  503    0 -0.19382812601E+03  0.14531008180E+02  0.91777341492E+03  0.93813033943E+03  0.00000000000E+00 0. -1.
         -4    1    5    5    0  503 -0.69600149369E+01  0.23795599867E+02  0.12816059132E+03  0.13053662148E+03  0.00000000000E+00 0.  1.
         -3    1    6    6    0  502 -0.12773918493E+02  0.43346704024E+02  0.46321207940E+02  0.64712935712E+02  0.00000000000E+00 0.  1.
<mgrwt>
<rscale>  0 0.19257766E+04</rscale>
<asrwt>0</asrwt>
<pdfrwt beam="1">  1        2 0.41021418E+00 0.19257766E+04</pdfrwt>
<pdfrwt beam="2">  1       -2 0.53495155E-01 0.19257766E+04</pdfrwt>
<totfact> 0.85698772E+00</totfact>
</mgrwt>
</event>
<event>
12    1  0.1397649E-007  0.1639595E+04  0.7818608E-02  0.8796586E-01
         -2   -1    0    0    0  501 -0.00000000000E+00  0.00000000000E+00  0.23393224327E+03  0.23393224327E+03  0.00000000000E+00 0.  1.
          2   -1    0    0  501    0  0.00000000000E+00 -0.00000000000E+00 -0.28729159305E+04  0.28729159305E+04  0.00000000000E+00 0. -1.
         23    2    1    2    0    0  0.10955055656E+03 -0.13424645592E+03 -0.19665903312E+04  0.19762480339E+04  0.89751464798E+02 0.  0.
        254    2    1    2    0    0 -0.10955055656E+03  0.13424645592E+03 -0.67239335597E+03  0.11306001398E+04  0.89225580166E+03 0.  0.
        -24    2    4    4    0    0  0.14263036283E+03 -0.22924133636E+03  0.43986366795E+02  0.28484423345E+03  0.79413010084E+02 0.  0.
         24    2    4    4    0    0 -0.25218091940E+03  0.36348779228E+03 -0.71637972277E+03  0.84575590635E+03  0.79903408484E+02 0.  0.
         13    1    3    3    0    0  0.12335090480E+03 -0.10501510658E+03 -0.17013554872E+04  0.17090506464E+04  0.00000000000E+00 0. -1.
        -13    1    3    3    0    0 -0.13800348241E+02 -0.29231349348E+02 -0.26523484404E+03  0.26719738750E+03  0.00000000000E+00 0.  1.
          2    1    6    6  502    0 -0.24272004209E+03  0.30273898650E+03 -0.62276065957E+03  0.73375387691E+03  0.00000000000E+00 0. -1.
          3    1    5    5  503    0  0.11089715069E+03 -0.20757508114E+03  0.13382305745E+02  0.23572161218E+03  0.00000000000E+00 0. -1.
         -4    1    5    5    0  503  0.31733212142E+02 -0.21666255219E+02  0.30604061050E+02  0.49122621274E+02  0.00000000000E+00 0.  1.
         -1    1    6    6    0  502 -0.94608773033E+01  0.60748805785E+02 -0.93619063197E+02  0.11200202943E+03  0.00000000000E+00 0.  1.
<mgrwt>
<rscale>  0 0.16395947E+04</rscale>
<asrwt>0</asrwt>
<pdfrwt beam="1">  1        2 0.44198704E+00 0.16395947E+04</pdfrwt>
<pdfrwt beam="2">  1       -2 0.35989578E-01 0.16395947E+04</pdfrwt>
<totfact> 0.14556271E+01</totfact>
</mgrwt>
</event>
<event>
12    1  0.1397649E-007  0.3656026E+04  0.7818608E-02  0.8077777E-01
         -2   -1    0    0    0  501 -0.00000000000E+00  0.00000000000E+00  0.13236820675E+04  0.13236820675E+04  0.00000000000E+00 0. -1.
          2   -1    0    0  501    0  0.00000000000E+00 -0.00000000000E+00 -0.25244975714E+04  0.25244975714E+04  0.00000000000E+00 0.  1.
         23    2    1    2    0    0 -0.76867277205E+03  0.12290436894E+04 -0.15286337827E+04  0.21087036213E+04  0.92214423465E+02 0.  0.
        254    2    1    2    0    0  0.76867277205E+03 -0.12290436894E+04  0.32781827886E+03  0.17394760176E+04  0.90382839680E+03 0.  0.
        -24    2    4    4    0    0  0.59061748117E+03 -0.10598126497E+04 -0.12025987431E+03  0.12221033104E+04  0.83917830709E+02 0.  0.
         24    2    4    4    0    0  0.17805529088E+03 -0.16923103976E+03  0.44807815317E+03  0.51737270727E+03  0.80979351981E+02 0.  0.
         13    1    3    3    0    0 -0.21128072258E+03  0.39337335128E+03 -0.42642139134E+03  0.61742800408E+03  0.00000000000E+00 0. -1.
        -13    1    3    3    0    0 -0.55739204946E+03  0.83567033817E+03 -0.11022123914E+04  0.14912756173E+04  0.00000000000E+00 0.  1.
          2    1    6    6  502    0  0.13883703529E+03 -0.15674819617E+03  0.41398823445E+03  0.46393100526E+03  0.00000000000E+00 0. -1.
          1    1    5    5  503    0  0.29179832033E+03 -0.45456458067E+03 -0.28666120916E+02  0.54092232736E+03  0.00000000000E+00 0. -1.
         -2    1    5    5    0  503  0.29881916084E+03 -0.60524806902E+03 -0.91593753397E+02  0.68118098300E+03  0.00000000000E+00 0.  1.
         -1    1    6    6    0  502  0.39218255593E+02 -0.12482843585E+02  0.34089918716E+02  0.53441702011E+02  0.00000000000E+00 0.  1.
<mgrwt>
<rscale>  0 0.36560263E+04</rscale>
<asrwt>0</asrwt>
<pdfrwt beam="1">  1        2 0.38838424E+00 0.36560263E+04</pdfrwt>
<pdfrwt beam="2">  1       -2 0.20364340E+00 0.36560263E+04</pdfrwt>
<totfact> 0.34406233E-01</totfact>
</mgrwt>
</event>
<event>
12    1  0.1397649E-007  0.2276914E+04  0.7818608E-02  0.8487080E-01
         -2   -1    0    0    0  501 -0.00000000000E+00  0.00000000000E+00  0.11872302852E+04  0.11872302852E+04  0.00000000000E+00 0.  1.
          2   -1    0    0  501    0  0.00000000000E+00 -0.00000000000E+00 -0.10916872450E+04  0.10916872450E+04  0.00000000000E+00 0. -1.
         23    2    1    2    0    0 -0.66930840898E+03 -0.41732655396E+03 -0.53425793702E+03  0.95687778400E+03  0.89712603778E+02 0.  0.
        254    2    1    2    0    0  0.66930840898E+03  0.41732655396E+03  0.62980097731E+03  0.13220397462E+04  0.85381767408E+03 0.  0.
        -24    2    4    4    0    0  0.21700725788E+02  0.49405844276E+03  0.22439619756E+03  0.54999998742E+03  0.87072764506E+02 0.  0.
         24    2    4    4    0    0  0.64760768319E+03 -0.76731888804E+02  0.40540477975E+03  0.77203975879E+03  0.80055353490E+02 0.  0.
         11    1    3    3    0    0 -0.19880208957E+03 -0.11856334304E+03 -0.20715791776E+03  0.31063473730E+03  0.00000000000E+00 0.  1.
        -11    1    3    3    0    0 -0.47050631941E+03 -0.29876321092E+03 -0.32710001926E+03  0.64624304669E+03  0.00000000000E+00 0. -1.
          2    1    6    6  502    0  0.54862445425E+03 -0.39839037602E+02  0.32146477438E+03  0.63711501465E+03  0.00000000000E+00 0. -1.
          1    1    5    5  503    0  0.21504232860E+02  0.49613487239E+03  0.22752351013E+03  0.54624096450E+03  0.00000000000E+00 0. -1.
         -2    1    5    5    0  503  0.19649292776E+00 -0.20764296263E+01 -0.31273125676E+01  0.37590229261E+01  0.00000000000E+00 0.  1.
         -1    1    6    6    0  502  0.98983228934E+02 -0.36892851202E+02  0.83940005366E+02  0.13492474414E+03  0.00000000000E+00 0.  1.
<mgrwt>
<rscale>  0 0.22769138E+04</rscale>
<asrwt>0</asrwt>
<pdfrwt beam="1">  1        2 0.16795188E+00 0.22769138E+04</pdfrwt>
<pdfrwt beam="2">  1       -2 0.18265081E+00 0.22769138E+04</pdfrwt>
<totfact> 0.34811890E+00</totfact>
</mgrwt>
</event>
<event>
12    1  0.1397649E-007  0.2473000E+04  0.7818608E-02  0.8412668E-01
         -2   -1    0    0    0  501 -0.00000000000E+00  0.00000000000E+00  0.31571819353E+03  0.31571819353E+03  0.00000000000E+00 0.  1.
          2   -1    0    0  501    0  0.00000000000E+00 -0.00000000000E+00 -0.48427129632E+04  0.48427129632E+04  0.00000000000E+00 0. -1.
         23    2    1    2    0    0  0.93909488765E+03  0.28367070436E+03 -0.11085817892E+04  0.14830277950E+04  0.89719456698E+02 0.  0.
        254    2    1    2    0    0 -0.93909488765E+03 -0.28367070436E+03 -0.34184129804E+04  0.36754033617E+04  0.92772533102E+03 0.  0.
        -24    2    4    4    0    0 -0.47185583729E+03 -0.60444422445E+03 -0.21451355836E+04  0.22794709869E+04  0.79878385127E+02 0.  0.
         24    2    4    4    0    0 -0.46723905036E+03  0.32077352009E+03 -0.12732773968E+04  0.13959323748E+04  0.78637677684E+02 0.  0.
         13    1    3    3    0    0  0.10236278530E+03  0.35079965920E+02 -0.16792732190E+03  0.19977069171E+03  0.00000000000E+00 0. -1.
        -13    1    3    3    0    0  0.83673210235E+03  0.24859073844E+03 -0.94065446733E+03  0.12832571033E+04  0.00000000000E+00 0.  1.
          2    1    6    6  502    0 -0.46861813490E+03  0.32295250640E+03 -0.12624756813E+04  0.13848271096E+04  0.00000000000E+00 0. -1.
          3    1    5    5  503    0 -0.34145454265E+03 -0.49045385704E+03 -0.16818088831E+04  0.17848297706E+04  0.00000000000E+00 0. -1.
         -4    1    5    5    0  503 -0.13040129464E+03 -0.11399036741E+03 -0.46332670044E+03  0.49464121629E+03  0.00000000000E+00 0.  1.
         -1    1    6    6    0  502  0.13790845391E+01 -0.21789863132E+01 -0.10801715555E+02  0.11105265168E+02  0.00000000000E+00 0.  1.
<mgrwt>
<rscale>  0 0.24730003E+04</rscale>
<asrwt>0</asrwt>
<pdfrwt beam="1">  1        2 0.74503279E+00 0.24730003E+04</pdfrwt>
<pdfrwt beam="2">  1       -2 0.48572028E-01 0.24730003E+04</pdfrwt>
<totfact> 0.19258028E-01</totfact>
</mgrwt>
</event>
<event>
12    1  0.1397649E-007  0.1369666E+04  0.7818608E-02  0.8976073E-01
          1   -1    0    0  501    0  0.00000000000E+00  0.00000000000E+00  0.67347161429E+03  0.67347161429E+03  0.00000000000E+00 0. -1.
         -1   -1    0    0    0  501 -0.00000000000E+00 -0.00000000000E+00 -0.69638603586E+03  0.69638603586E+03  0.00000000000E+00 0.  1.
         23    2    1    2    0    0 -0.21095244770E+03  0.25587687264E+03  0.11934115192E+03  0.36437342646E+03  0.92475803460E+02 0.  0.
        254    2    1    2    0    0  0.21095244770E+03 -0.25587687264E+03 -0.14225557350E+03  0.10054842237E+04  0.93850304569E+03 0.  0.
        -24    2    4    4    0    0  0.35255490334E+02 -0.27236776222E+02 -0.51742019038E+03  0.52551334236E+03  0.80348167426E+02 0.  0.
         24    2    4    4    0    0  0.17569695736E+03 -0.22864009642E+03  0.37516461689E+03  0.47997088133E+03  0.80485046113E+02 0.  0.
         13    1    3    3    0    0 -0.12231841689E+03  0.18754308557E+03  0.11654267122E+03  0.25242107334E+03  0.00000000000E+00 0. -1.
        -13    1    3    3    0    0 -0.88634030810E+02  0.68333787073E+02  0.27984807040E+01  0.11195235311E+03  0.00000000000E+00 0.  1.
          2    1    6    6  502    0  0.80897136225E+02 -0.48087113316E+02  0.98023255067E+02  0.13588699588E+03  0.00000000000E+00 0. -1.
          1    1    5    5  503    0  0.24192752683E+02  0.20180385307E+02 -0.90527184874E+02  0.95852534837E+02  0.00000000000E+00 0. -1.
         -2    1    5    5    0  503  0.11062737651E+02 -0.47417161529E+02 -0.42689300551E+03  0.42966080753E+03  0.00000000000E+00 0.  1.
         -1    1    6    6    0  502  0.94799821137E+02 -0.18055298310E+03  0.27714136182E+03  0.34408388545E+03  0.00000000000E+00 0.  1.
<mgrwt>
<rscale>  0 0.13696660E+04</rscale>
<asrwt>0</asrwt>
<pdfrwt beam="1">  1        1 0.10361102E+00 0.13696660E+04</pdfrwt>
<pdfrwt beam="2">  1       -1 0.10713631E+00 0.13696660E+04</pdfrwt>
<totfact> 0.22937732E+01</totfact>
</mgrwt>
</event>
<event>
12    1  0.1397649E-007  0.1949825E+04  0.7818608E-02  0.8630445E-01
         -2   -1    0    0    0  501 -0.00000000000E+00  0.00000000000E+00  0.42459198135E+03  0.42459198135E+03  0.00000000000E+00 0.  1.
          2   -1    0    0  501    0  0.00000000000E+00 -0.00000000000E+00 -0.22385120309E+04  0.22385120309E+04  0.00000000000E+00 0. -1.
         23    2    1    2    0    0  0.75932077732E+03 -0.72372564604E+02 -0.74836149374E+03  0.10723807394E+04  0.90275655112E+02 0.  0.
        254    2    1    2    0    0 -0.75932077732E+03  0.72372564604E+02 -0.10655585558E+04  0.15907232729E+04  0.90176474980E+03 0.  0.
        -24    2    4    4    0    0 -0.47554779066E+03 -0.31236918935E+03 -0.91831069117E+03  0.10834855306E+04  0.83223541907E+02 0.  0.
         24    2    4    4    0    0 -0.28377298666E+03  0.38474175396E+03 -0.14724786463E+03  0.50723774222E+03  0.83993263383E+02 0.  0.
         11    1    3    3    0    0  0.55374544715E+03 -0.76690931770E+02 -0.50061168577E+03  0.75041826949E+03  0.00000000000E+00 0. -1.
        -11    1    3    3    0    0  0.20557533017E+03  0.43183671664E+01 -0.24774980797E+03  0.32196246989E+03  0.00000000000E+00 0.  1.
          2    1    6    6  502    0 -0.72727088694E+02  0.45262941611E+02 -0.26188899412E+02  0.89575787832E+02  0.00000000000E+00 0. -1.
          3    1    5    5  503    0 -0.45266854866E+02 -0.31574984434E+02 -0.14400427757E+03  0.15421835089E+03  0.00000000000E+00 0. -1.
         -4    1    5    5    0  503 -0.43028093579E+03 -0.28079420492E+03 -0.77430641360E+03  0.92926717975E+03  0.00000000000E+00 0.  1.
         -1    1    6    6    0  502 -0.21104589797E+03  0.33947881235E+03 -0.12105896522E+03  0.41766195438E+03  0.00000000000E+00 0.  1.
<mgrwt>
<rscale>  0 0.19498249E+04</rscale>
<asrwt>0</asrwt>
<pdfrwt beam="1">  1        2 0.34438647E+00 0.19498249E+04</pdfrwt>
<pdfrwt beam="2">  1       -2 0.65321843E-01 0.19498249E+04</pdfrwt>
<totfact> 0.98987304E+00</totfact>
</mgrwt>
</event>
<event>
12    1  0.1397649E-007  0.1117419E+04  0.7818608E-02  0.9188378E-01
         -2   -1    0    0    0  501 -0.00000000000E+00  0.00000000000E+00  0.28871268884E+03  0.28871268884E+03  0.00000000000E+00 0.  1.
          2   -1    0    0  501    0  0.00000000000E+00 -0.00000000000E+00 -0.10812013524E+04  0.10812013524E+04  0.00000000000E+00 0. -1.
         23    2    1    2    0    0  0.11489244229E+02  0.40722389703E+02  0.67090897080E+02  0.11682085094E+03  0.85764835375E+02 0.  0.
        254    2    1    2    0    0 -0.11489244229E+02 -0.40722389703E+02 -0.85957956068E+03  0.12530931903E+04  0.91081019250E+03 0.  0.
        -24    2    4    4    0    0  0.38073986226E+03 -0.14252520202E+03 -0.69344295699E+03  0.80766836422E+03  0.78668774248E+02 0.  0.
         24    2    4    4    0    0 -0.39222910649E+03  0.10180281232E+03 -0.16613660369E+03  0.44542482611E+03  0.81206034636E+02 0.  0.
         11    1    3    3    0    0  0.20970516328E+02 -0.15779328215E+02  0.50928912293E+02  0.57293139740E+02  0.00000000000E+00 0. -1.
        -11    1    3    3    0    0 -0.94812720989E+01  0.56501717917E+02  0.16161984788E+02  0.59527711198E+02  0.00000000000E+00 0.  1.
          2    1    6    6  502    0 -0.47971054119E+02  0.35951219254E+02 -0.65506043651E+01  0.60304416229E+02  0.00000000000E+00 0. -1.
          3    1    5    5  503    0  0.20144131584E+03 -0.40130864848E+02 -0.38746315047E+03  0.43853937453E+03  0.00000000000E+00 0. -1.
         -4    1    5    5    0  503  0.17929854642E+03 -0.10239433717E+03 -0.30597980652E+03  0.36912898969E+03  0.00000000000E+00 0.  1.
         -1    1    6    6    0  502 -0.34425805237E+03  0.65851593061E+02 -0.15958599932E+03  0.38512040988E+03  0.00000000000E+00 0.  1.
<mgrwt>
<rscale>  0 0.11174194E+04</rscale>
<asrwt>0</asrwt>
<pdfrwt beam="1">  1        2 0.16633867E+00 0.11174194E+04</pdfrwt>
<pdfrwt beam="2">  1       -2 0.44417337E-01 0.11174194E+04</pdfrwt>
<totfact> 0.10663926E+02</totfact>
</mgrwt>
</event>
<event>
12    1  0.1397649E-007  0.1931753E+04  0.7818608E-02  0.8639210E-01
          2   -1    0    0  501    0  0.00000000000E+00  0.00000000000E+00  0.10786955710E+04  0.10786955710E+04  0.00000000000E+00 0.  1.
         -2   -1    0    0    0  501 -0.00000000000E+00 -0.00000000000E+00 -0.86485721675E+03  0.86485721675E+03  0.00000000000E+00 0. -1.
         23    2    1    2    0    0  0.50558382053E+03 -0.38932329323E+03 -0.31830417482E+03  0.71842873703E+03  0.87376634457E+02 0.  0.
        254    2    1    2    0    0 -0.50558382053E+03  0.38932329323E+03  0.53214252910E+03  0.12251240508E+04  0.90031419084E+03 0.  0.
        -24    2    4    4    0    0  0.95219650402E+02  0.26607268361E+03  0.53027121987E+03  0.60673236992E+03  0.84113894803E+02 0.  0.
         24    2    4    4    0    0 -0.60080347094E+03  0.12325060962E+03  0.18713092341E+01  0.61839168084E+03  0.79052170591E+02 0.  0.
         11    1    3    3    0    0  0.22897932629E+03 -0.16312620077E+03 -0.93530174173E+02  0.29629306899E+03  0.00000000000E+00 0. -1.
        -11    1    3    3    0    0  0.27660449424E+03 -0.22619709246E+03 -0.22477400065E+03  0.42213566805E+03  0.00000000000E+00 0.  1.
          4    1    6    6  502    0 -0.35767046859E+03  0.70979802142E+02  0.39863886745E+02  0.36681797377E+03  0.00000000000E+00 0. -1.
          1    1    5    5  503    0  0.22906356450E+02  0.67260760882E+01  0.64031455883E+02  0.68337168568E+02  0.00000000000E+00 0. -1.
         -2    1    5    5    0  503  0.72313293952E+02  0.25934660752E+03  0.46623976398E+03  0.53839520135E+03  0.00000000000E+00 0.  1.
         -3    1    6    6    0  502 -0.24313300234E+03  0.52270807481E+02 -0.37992577511E+02  0.25157370707E+03  0.00000000000E+00 0.  1.
<mgrwt>
<rscale>  0 0.19317532E+04</rscale>
<asrwt>0</asrwt>
<pdfrwt beam="1">  1        2 0.16595317E+00 0.19317532E+04</pdfrwt>
<pdfrwt beam="2">  1       -2 0.13305496E+00 0.19317532E+04</pdfrwt>
<totfact> 0.85902782E+00</totfact>
</mgrwt>
</event>
<event>
12    1  0.1397649E-007  0.2084723E+04  0.7818608E-02  0.8568003E-01
          1   -1    0    0  501    0  0.00000000000E+00  0.00000000000E+00  0.17047132513E+04  0.17047132513E+04  0.00000000000E+00 0. -1.
         -1   -1    0    0    0  501 -0.00000000000E+00 -0.00000000000E+00 -0.63736079383E+03  0.63736079383E+03  0.00000000000E+00 0.  1.
         23    2    1    2    0    0 -0.30300255908E+01 -0.54665473828E+03 -0.28797703477E+03  0.62470289928E+03  0.92099706141E+02 0.  0.
        254    2    1    2    0    0  0.30300255908E+01  0.54665473828E+03  0.13553294922E+04  0.17173711458E+04  0.90200057437E+03 0.  0.
        -24    2    4    4    0    0  0.24281859331E+03 -0.14527734928E+03  0.56887271819E+03  0.64040251594E+03  0.80204958986E+02 0.  0.
         24    2    4    4    0    0 -0.23978856772E+03  0.69193208756E+03  0.78645677403E+03  0.10769686299E+04  0.71264306487E+02 0.  0.
         11    1    3    3    0    0  0.30109553297E+02 -0.45769551628E+03 -0.25060406702E+03  0.52267979608E+03  0.00000000000E+00 0.  1.
        -11    1    3    3    0    0 -0.33139578888E+02 -0.88959221997E+02 -0.37372967750E+02  0.10202310320E+03  0.00000000000E+00 0. -1.
          2    1    6    6  502    0 -0.18347761429E+03  0.49739504052E+03  0.52350276023E+03  0.74506442759E+03  0.00000000000E+00 0. -1.
          3    1    5    5  503    0  0.19894883568E+03 -0.13627701996E+03  0.52488183733E+03  0.57762704971E+03  0.00000000000E+00 0. -1.
         -2    1    5    5    0  503  0.43869757626E+02 -0.90003293228E+01  0.43990880860E+02  0.62775466234E+02  0.00000000000E+00 0.  1.
         -1    1    6    6    0  502 -0.56310953433E+02  0.19453704704E+03  0.26295401380E+03  0.33190420232E+03  0.00000000000E+00 0.  1.
<mgrwt>
<rscale>  0 0.20847229E+04</rscale>
<asrwt>0</asrwt>
<pdfrwt beam="1">  1        1 0.26226357E+00 0.20847229E+04</pdfrwt>
<pdfrwt beam="2">  1       -1 0.98055508E-01 0.20847229E+04</pdfrwt>
<totfact> 0.43421572E+00</totfact>
</mgrwt>
</event>
<event>
12    1  0.1397649E-007  0.1933159E+04  0.7818608E-02  0.8638525E-01
          2   -1    0    0  501    0  0.00000000000E+00  0.00000000000E+00  0.23634150775E+04  0.23634150775E+04  0.00000000000E+00 0. -1.
         -2   -1    0    0    0  501 -0.00000000000E+00 -0.00000000000E+00 -0.39530749036E+03  0.39530749036E+03  0.00000000000E+00 0.  1.
         23    2    1    2    0    0 -0.35063457914E+03 -0.36802668161E+03 -0.21087072078E+02  0.51706962161E+03  0.92347617814E+02 0.  0.
        254    2    1    2    0    0  0.35063457914E+03  0.36802668161E+03  0.19891946592E+04  0.22416529462E+04  0.89984681625E+03 0.  0.
        -24    2    4    4    0    0  0.34801853830E+03 -0.14820351675E+03  0.14042707929E+04  0.14564878525E+04  0.79367622474E+02 0.  0.
         24    2    4    4    0    0  0.26160408380E+01  0.51623019836E+03  0.58492386634E+03  0.78516509371E+03  0.88587999154E+02 0.  0.
         11    1    3    3    0    0 -0.18536832803E+03 -0.21815808036E+03  0.31059091680E+02  0.28795664993E+03  0.00000000000E+00 0. -1.
        -11    1    3    3    0    0 -0.16526625111E+03 -0.14986860125E+03 -0.52146163758E+02  0.22911297168E+03  0.00000000000E+00 0.  1.
          2    1    6    6  502    0 -0.28246078620E+02  0.41224235352E+03  0.49051663506E+03  0.64136430230E+03  0.00000000000E+00 0. -1.
          1    1    5    5  503    0  0.63015915727E+02  0.36208905742E+01  0.20448451348E+03  0.21400474933E+03  0.00000000000E+00 0. -1.
         -2    1    5    5    0  503  0.28500262257E+03 -0.15182440733E+03  0.11997862794E+04  0.12424831032E+04  0.00000000000E+00 0.  1.
         -1    1    6    6    0  502  0.30862119458E+02  0.10398784484E+03  0.94407231284E+02  0.14380079141E+03  0.00000000000E+00 0.  1.
<mgrwt>
<rscale>  0 0.19331587E+04</rscale>
<asrwt>0</asrwt>
<pdfrwt beam="1">  1        2 0.36360231E+00 0.19331587E+04</pdfrwt>
<pdfrwt beam="2">  1       -2 0.60816538E-01 0.19331587E+04</pdfrwt>
<totfact> 0.98112893E+00</totfact>
</mgrwt>
</event>
<event>
12    1  0.1397649E-007  0.1416091E+04  0.7818608E-02  0.8942252E-01
          2   -1    0    0  501    0  0.00000000000E+00  0.00000000000E+00  0.14405395872E+04  0.14405395872E+04  0.00000000000E+00 0. -1.
         -2   -1    0    0    0  501 -0.00000000000E+00 -0.00000000000E+00 -0.34801454616E+03  0.34801454616E+03  0.00000000000E+00 0.  1.
         23    2    1    2    0    0 -0.27689682559E+02  0.15824743885E+03 -0.15237664924E+03  0.23884895281E+03  0.89561200334E+02 0.  0.
        254    2    1    2    0    0  0.27689682559E+02 -0.15824743885E+03  0.12449016903E+04  0.15497051805E+04  0.90884374769E+03 0.  0.
        -24    2    4    4    0    0 -0.29685049487E+03 -0.34275774810E+03  0.35505553608E+03  0.58143626106E+03  0.80003761059E+02 0.  0.
         24    2    4    4    0    0  0.32454017743E+03  0.18451030926E+03  0.88984615417E+03  0.96826891946E+03  0.79675223944E+02 0.  0.
         13    1    3    3    0    0 -0.56996728240E+02  0.88149507220E+02 -0.10914899654E+03  0.15143469252E+03  0.00000000000E+00 0.  1.
        -13    1    3    3    0    0  0.29307045680E+02  0.70097931625E+02 -0.43227652701E+02  0.87414260294E+02  0.00000000000E+00 0. -1.
          2    1    6    6  502    0  0.16115636620E+03  0.10821874215E+03  0.36658492702E+03  0.41480981092E+03  0.00000000000E+00 0. -1.
          3    1    5    5  503    0 -0.10889813128E+03 -0.18275346933E+03  0.18217188666E+03  0.28007897071E+03  0.00000000000E+00 0. -1.
         -4    1    5    5    0  503 -0.18795236360E+03 -0.16000427877E+03  0.17288364942E+03  0.30135729034E+03  0.00000000000E+00 0.  1.
         -1    1    6    6    0  502  0.16338381123E+03  0.76291567109E+02  0.52326122715E+03  0.55345910854E+03  0.00000000000E+00 0.  1.
<mgrwt>
<rscale>  0 0.14160914E+04</rscale>
<asrwt>0</asrwt>
<pdfrwt beam="1">  1        2 0.22162147E+00 0.14160914E+04</pdfrwt>
<pdfrwt beam="2">  1       -2 0.53540700E-01 0.14160914E+04</pdfrwt>
<totfact> 0.43838457E+01</totfact>
</mgrwt>
</event>
<event>
12    1  0.1397649E-007  0.1554653E+04  0.7818608E-02  0.8848901E-01
          2   -1    0    0  501    0  0.00000000000E+00  0.00000000000E+00  0.53386322358E+03  0.53386322358E+03  0.00000000000E+00 0. -1.
         -2   -1    0    0    0  501 -0.00000000000E+00 -0.00000000000E+00 -0.11318191895E+04  0.11318191895E+04  0.00000000000E+00 0.  1.
         23    2    1    2    0    0  0.45918629907E+03 -0.14936284638E+02  0.42721448050E+02  0.47072183291E+03  0.93159927007E+02 0.  0.
        254    2    1    2    0    0 -0.45918629907E+03  0.14936284638E+02 -0.64067741400E+03  0.11949605802E+04  0.89799114115E+03 0.  0.
        -24    2    4    4    0    0 -0.12442795118E+03  0.10180910157E+03  0.20775916937E+03  0.27528679081E+03  0.82289346459E+02 0.  0.
         24    2    4    4    0    0 -0.33475834790E+03 -0.86872816931E+02 -0.84843658338E+03  0.91967378940E+03  0.79656795604E+02 0.  0.
         11    1    3    3    0    0  0.20403978649E+03  0.81444614354E+01 -0.25018231110E+02  0.20572913895E+03  0.00000000000E+00 0.  1.
        -11    1    3    3    0    0  0.25514651258E+03 -0.23080746073E+02  0.67739679161E+02  0.26499269396E+03  0.00000000000E+00 0. -1.
          4    1    6    6  502    0 -0.38169404553E+02  0.14977864695E+02 -0.86390169589E+02  0.95626885740E+02  0.00000000000E+00 0. -1.
          1    1    5    5  503    0  0.20944926311E+01 -0.26632928532E+00  0.45679303047E+02  0.45728071876E+02  0.00000000000E+00 0. -1.
         -2    1    5    5    0  503 -0.12652244381E+03  0.10207543085E+03  0.16207986633E+03  0.22955871894E+03  0.00000000000E+00 0.  1.
         -3    1    6    6    0  502 -0.29658894334E+03 -0.10185068163E+03 -0.76204641379E+03  0.82404690366E+03  0.00000000000E+00 0.  1.
<mgrwt>
<rscale>  0 0.15546532E+04</rscale>
<asrwt>0</asrwt>
<pdfrwt beam="1">  1        2 0.82132804E-01 0.15546532E+04</pdfrwt>
<pdfrwt beam="2">  1       -2 0.17412603E+00 0.15546532E+04</pdfrwt>
<totfact> 0.10923874E+01</totfact>
</mgrwt>
</event>
<event>
12    1  0.1397649E-007  0.3157680E+04  0.7818608E-02  0.8200084E-01
         -2   -1    0    0    0  501 -0.00000000000E+00  0.00000000000E+00  0.17422258274E+04  0.17422258274E+04  0.00000000000E+00 0.  1.
          2   -1    0    0  501    0  0.00000000000E+00 -0.00000000000E+00 -0.14307766635E+04  0.14307766635E+04  0.00000000000E+00 0. -1.
         23    2    1    2    0    0  0.88471213572E+03 -0.83980016354E+03 -0.64061761118E+03  0.13807266056E+04  0.89639042493E+02 0.  0.
        254    2    1    2    0    0 -0.88471213572E+03  0.83980016354E+03  0.95206677505E+03  0.17922758853E+04  0.90434607704E+03 0.  0.
        -24    2    4    4    0    0 -0.57337491956E+03  0.92205724899E+03  0.42418955832E+03  0.11686149707E+04  0.82315245357E+02 0.  0.
         24    2    4    4    0    0 -0.31133721617E+03 -0.82257085456E+02  0.52787721673E+03  0.62366091456E+03  0.81249554651E+02 0.  0.
         13    1    3    3    0    0 -0.27519755859E+00  0.17376086080E+01 -0.20356710901E+00  0.17710044999E+01  0.00000000000E+00 0.  1.
        -13    1    3    3    0    0  0.88498733328E+03 -0.84153777215E+03 -0.64041404407E+03  0.13789556011E+04  0.00000000000E+00 0. -1.
          2    1    6    6  502    0 -0.47041197210E+02 -0.15020023242E+02  0.35547119483E+02  0.60844663173E+02  0.00000000000E+00 0. -1.
          3    1    5    5  503    0 -0.11578075750E+03  0.24979294430E+03  0.12052096050E+03  0.30054450710E+03  0.00000000000E+00 0. -1.
         -2    1    5    5    0  503 -0.45759416206E+03  0.67226430469E+03  0.30366859782E+03  0.86807046363E+03  0.00000000000E+00 0.  1.
         -1    1    6    6    0  502 -0.26429601896E+03 -0.67237062214E+02  0.49233009725E+03  0.56281625139E+03  0.00000000000E+00 0.  1.
<mgrwt>
<rscale>  0 0.31576802E+04</rscale>
<asrwt>0</asrwt>
<pdfrwt beam="1">  1        2 0.22011949E+00 0.31576802E+04</pdfrwt>
<pdfrwt beam="2">  1       -2 0.26803474E+00 0.31576802E+04</pdfrwt>
<totfact> 0.58505448E-01</totfact>
</mgrwt>
</event>
<event>
12    1  0.1397649E-007  0.2157333E+04  0.7818608E-02  0.8536400E-01
         -1   -1    0    0    0  501 -0.00000000000E+00  0.00000000000E+00  0.47843406477E+03  0.47843406477E+03  0.00000000000E+00 0.  1.
          1   -1    0    0  501    0  0.00000000000E+00 -0.00000000000E+00 -0.24319357539E+04  0.24319357539E+04  0.00000000000E+00 0. -1.
         23    2    1    2    0    0 -0.84398833191E+03 -0.13122645917E+03 -0.51261814693E+03  0.10007988351E+04  0.96354843606E+02 0.  0.
        254    2    1    2    0    0  0.84398833191E+03  0.13122645917E+03 -0.14408835422E+04  0.19095709836E+04  0.91694016763E+03 0.  0.
        -24    2    4    4    0    0  0.15353625280E+03 -0.36126172733E+03 -0.49196347305E+03  0.63448927243E+03  0.80406227727E+02 0.  0.
         24    2    4    4    0    0  0.69045207911E+03  0.49248818650E+03 -0.94892006919E+03  0.12750817111E+04  0.78200927067E+02 0.  0.
         11    1    3    3    0    0 -0.32240075959E+03 -0.65070193097E+02 -0.24976376858E+03  0.41298706991E+03  0.00000000000E+00 0.  1.
        -11    1    3    3    0    0 -0.52158757232E+03 -0.66156266071E+02 -0.26285437835E+03  0.58781176524E+03  0.00000000000E+00 0. -1.
          4    1    6    6  502    0  0.61527569547E+03  0.41325774031E+03 -0.80240318698E+03  0.10923355784E+04  0.00000000000E+00 0. -1.
          1    1    5    5  503    0  0.15104296609E+03 -0.35624923536E+03 -0.45580986432E+03  0.59790478148E+03  0.00000000000E+00 0. -1.
         -4    1    5    5    0  503  0.24932867140E+01 -0.50124919719E+01 -0.36153608731E+02  0.36584490959E+02  0.00000000000E+00 0.  1.
         -3    1    6    6    0  502  0.75176383638E+02  0.79230446181E+02 -0.14651688221E+03  0.18274613274E+03  0.00000000000E+00 0.  1.
<mgrwt>
<rscale>  0 0.21573325E+04</rscale>
<asrwt>0</asrwt>
<pdfrwt beam="1">  1        1 0.37414397E+00 0.21573325E+04</pdfrwt>
<pdfrwt beam="2">  1       -1 0.73605239E-01 0.21573325E+04</pdfrwt>
<totfact> 0.25696519E+00</totfact>
</mgrwt>
</event>
<event>
12    1  0.1397649E-007  0.1186681E+04  0.7818608E-02  0.9124595E-01
          1   -1    0    0  501    0  0.00000000000E+00  0.00000000000E+00  0.10039866827E+04  0.10039866827E+04  0.00000000000E+00 0. -1.
         -1   -1    0    0    0  501 -0.00000000000E+00 -0.00000000000E+00 -0.35065484738E+03  0.35065484738E+03  0.00000000000E+00 0.  1.
         23    2    1    2    0    0  0.15336915126E+02 -0.20685532019E+03  0.71095111571E+01  0.22654310124E+03  0.90812373135E+02 0.  0.
        254    2    1    2    0    0 -0.15336915126E+02  0.20685532019E+03  0.64622232416E+03  0.11280984288E+04  0.90109845657E+03 0.  0.
        -24    2    4    4    0    0  0.36155745187E+03  0.90986512656E+02  0.19353106760E+02  0.38317536342E+03  0.86292988750E+02 0.  0.
         24    2    4    4    0    0 -0.37689436699E+03  0.11586880753E+03  0.62686921740E+03  0.74492306541E+03  0.80438878829E+02 0.  0.
         11    1    3    3    0    0  0.53653337468E+02 -0.12652316539E+03  0.43670848384E+01  0.13749859429E+03  0.00000000000E+00 0. -1.
        -11    1    3    3    0    0 -0.38316422343E+02 -0.80332154798E+02  0.27424263187E+01  0.89044506949E+02  0.00000000000E+00 0.  1.
          2    1    6    6  502    0 -0.43626551069E+02  0.23622787748E+02  0.39893867341E+02  0.63661862293E+02  0.00000000000E+00 0. -1.
          1    1    5    5  503    0  0.12080101250E+03 -0.10065065028E+02  0.13909691151E+02  0.12201503867E+03  0.00000000000E+00 0. -1.
         -2    1    5    5    0  503  0.24075643937E+03  0.10105157768E+03  0.54434156090E+01  0.26116032475E+03  0.00000000000E+00 0.  1.
         -1    1    6    6    0  502 -0.33326781592E+03  0.92246019784E+02  0.58697535006E+03  0.68126120312E+03  0.00000000000E+00 0.  1.
<mgrwt>
<rscale>  0 0.11866807E+04</rscale>
<asrwt>0</asrwt>
<pdfrwt beam="1">  1        1 0.15445949E+00 0.11866807E+04</pdfrwt>
<pdfrwt beam="2">  1       -1 0.53946900E-01 0.11866807E+04</pdfrwt>
<totfact> 0.51614227E+01</totfact>
</mgrwt>
</event>
<event>
12    1  0.1397649E-007  0.1088925E+04  0.7818608E-02  0.9216054E-01
          1   -1    0    0  501    0  0.00000000000E+00  0.00000000000E+00  0.83966159863E+03  0.83966159863E+03  0.00000000000E+00 0. -1.
         -1   -1    0    0    0  501 -0.00000000000E+00 -0.00000000000E+00 -0.35304611540E+03  0.35304611540E+03  0.00000000000E+00 0.  1.
         23    2    1    2    0    0 -0.43579543563E+02 -0.12826543564E+03  0.16528850563E+03  0.23193293020E+03  0.90118785038E+02 0.  0.
        254    2    1    2    0    0  0.43579543563E+02  0.12826543564E+03  0.32132697759E+03  0.96077478384E+03  0.89525748259E+03 0.  0.
        -24    2    4    4    0    0  0.20459542659E+03 -0.33616425202E+03  0.87641096336E+02  0.41074274441E+03  0.78504441942E+02 0.  0.
         24    2    4    4    0    0 -0.16101588302E+03  0.46442968766E+03  0.23368588126E+03  0.55003203943E+03  0.79404684588E+02 0.  0.
         11    1    3    3    0    0 -0.16841387977E+02  0.11084893026E+02  0.14190204592E+02  0.24655001699E+02  0.00000000000E+00 0.  1.
        -11    1    3    3    0    0 -0.26738155586E+02 -0.13935032867E+03  0.15109830104E+03  0.20727792850E+03  0.00000000000E+00 0. -1.
          2    1    6    6  502    0 -0.29771672877E+02  0.66644735310E+02  0.59117831536E+01  0.73231294065E+02  0.00000000000E+00 0. -1.
          1    1    5    5  503    0  0.41843064878E+02 -0.72937995733E+02  0.52846280399E+02  0.99315268976E+02  0.00000000000E+00 0. -1.
         -2    1    5    5    0  503  0.16275236171E+03 -0.26322625628E+03  0.34794815937E+02  0.31142747543E+03  0.00000000000E+00 0.  1.
         -1    1    6    6    0  502 -0.13124421015E+03  0.39778495235E+03  0.22777409810E+03  0.47680074536E+03  0.00000000000E+00 0.  1.
<mgrwt>
<rscale>  0 0.10889247E+04</rscale>
<asrwt>0</asrwt>
<pdfrwt beam="1">  1        1 0.12917871E+00 0.10889247E+04</pdfrwt>
<pdfrwt beam="2">  1       -1 0.54314787E-01 0.10889247E+04</pdfrwt>
<totfact> 0.69754386E+01</totfact>
</mgrwt>
</event>
<event>
12    1  0.1397649E-007  0.1668597E+04  0.7818608E-02  0.8779480E-01
          1   -1    0    0  501    0  0.00000000000E+00  0.00000000000E+00  0.11977174796E+04  0.11977174796E+04  0.00000000000E+00 0. -1.
         -1   -1    0    0    0  501 -0.00000000000E+00 -0.00000000000E+00 -0.58115013858E+03  0.58115013858E+03  0.00000000000E+00 0.  1.
         23    2    1    2    0    0 -0.60776130157E+02  0.55580093875E+03 -0.67293952484E+01  0.56644474423E+03  0.90586654623E+02 0.  0.
        254    2    1    2    0    0  0.60776130157E+02 -0.55580093875E+03  0.62329673629E+03  0.12124228740E+04  0.87684775324E+03 0.  0.
        -24    2    4    4    0    0 -0.21266147675E+03 -0.28564898719E+03 -0.10978953788E+03  0.38072257268E+03  0.77946694240E+02 0.  0.
         24    2    4    4    0    0  0.27343760690E+03 -0.27015195155E+03  0.73308627418E+03  0.83170030130E+03  0.80991999620E+02 0.  0.
         11    1    3    3    0    0 -0.38687121429E+02  0.52287913916E+03 -0.19851342907E+02  0.52468406051E+03  0.00000000000E+00 0.  1.
        -11    1    3    3    0    0 -0.22089008729E+02  0.32921799582E+02  0.13121947659E+02  0.41760683719E+02  0.00000000000E+00 0. -1.
          4    1    6    6  502    0  0.19905129143E+03 -0.15396845599E+03  0.52259851908E+03  0.58003182172E+03  0.00000000000E+00 0. -1.
          3    1    5    5  503    0 -0.18878228991E+03 -0.19749776867E+03 -0.81065763766E+02  0.28498382352E+03  0.00000000000E+00 0. -1.
         -4    1    5    5    0  503 -0.23879186838E+02 -0.88151218526E+02 -0.28723774116E+02  0.95738749162E+02  0.00000000000E+00 0.  1.
         -3    1    6    6    0  502  0.74386315470E+02 -0.11618349556E+03  0.21048775509E+03  0.25166847958E+03  0.00000000000E+00 0.  1.
<mgrwt>
<rscale>  0 0.16685966E+04</rscale>
<asrwt>0</asrwt>
<pdfrwt beam="1">  1        1 0.18426423E+00 0.16685966E+04</pdfrwt>
<pdfrwt beam="2">  1       -1 0.89407714E-01 0.16685966E+04</pdfrwt>
<totfact> 0.12545757E+01</totfact>
</mgrwt>
</event>
<event>
12    1  0.1397649E-007  0.1421907E+04  0.7818608E-02  0.8938112E-01
         -2   -1    0    0    0  501 -0.00000000000E+00  0.00000000000E+00  0.22948428166E+03  0.22948428166E+03  0.00000000000E+00 0.  1.
          2   -1    0    0  501    0  0.00000000000E+00 -0.00000000000E+00 -0.22025697135E+04  0.22025697135E+04  0.00000000000E+00 0. -1.
         23    2    1    2    0    0  0.23671843129E+03 -0.37782213041E+02 -0.52908022033E+02  0.26092589027E+03  0.88430481639E+02 0.  0.
        254    2    1    2    0    0 -0.23671843129E+03  0.37782213041E+02 -0.19201774098E+04  0.21711281049E+04  0.98450639987E+03 0.  0.
        -24    2    4    4    0    0  0.21945681572E+03  0.36989537466E+03 -0.72020686787E+03  0.84255776475E+03  0.78878211523E+02 0.  0.
         24    2    4    4    0    0 -0.45617524701E+03 -0.33211316162E+03 -0.11999705419E+04  0.13285703402E+04  0.82309410666E+02 0.  0.
         11    1    3    3    0    0  0.24639573814E+02 -0.27265004892E+02  0.12376292608E+02  0.38777077098E+02  0.00000000000E+00 0. -1.
        -11    1    3    3    0    0  0.21207885747E+03 -0.10517208148E+02 -0.65284314641E+02  0.22214881317E+03  0.00000000000E+00 0.  1.
          4    1    6    6  502    0 -0.44704537970E+03 -0.33586178057E+03 -0.11883289405E+04  0.13133081809E+04  0.00000000000E+00 0. -1.
          1    1    5    5  503    0  0.20843323654E+03  0.31589668038E+03 -0.58735659067E+03  0.69872948369E+03  0.00000000000E+00 0. -1.
         -4    1    5    5    0  503  0.11023579186E+02  0.53998694278E+02 -0.13285027720E+03  0.14382828106E+03  0.00000000000E+00 0.  1.
         -3    1    6    6    0  502 -0.91298673132E+01  0.37486189563E+01 -0.11641601477E+02  0.15262159290E+02  0.00000000000E+00 0.  1.
<mgrwt>
<rscale>  0 0.14219074E+04</rscale>
<asrwt>0</asrwt>
<pdfrwt beam="1">  1        2 0.33885688E+00 0.14219074E+04</pdfrwt>
<pdfrwt beam="2">  1       -2 0.35305274E-01 0.14219074E+04</pdfrwt>
<totfact> 0.37736359E+01</totfact>
</mgrwt>
</event>
<event>
12    1  0.1397649E-007  0.1562686E+04  0.7818608E-02  0.8843805E-01
          1   -1    0    0  501    0  0.00000000000E+00  0.00000000000E+00  0.90074979331E+03  0.90074979331E+03  0.00000000000E+00 0. -1.
         -1   -1    0    0    0  501 -0.00000000000E+00 -0.00000000000E+00 -0.67776562426E+03  0.67776562426E+03  0.00000000000E+00 0.  1.
         23    2    1    2    0    0 -0.37237412237E+03 -0.62876997346E+02 -0.28315839606E+03  0.48105408214E+03  0.92835062780E+02 0.  0.
        254    2    1    2    0    0  0.37237412237E+03  0.62876997346E+02  0.50614256511E+03  0.10974613354E+04  0.89756619964E+03 0.  0.
        -24    2    4    4    0    0  0.69325984411E+02  0.13243848827E+03 -0.23430091567E+03  0.29049475793E+03  0.84523606246E+02 0.  0.
         24    2    4    4    0    0  0.30304813796E+03 -0.69561490922E+02  0.74044348078E+03  0.80696657749E+03  0.79129855446E+02 0.  0.
         13    1    3    3    0    0 -0.32552659994E+03 -0.25787805472E+02 -0.21789770590E+03  0.39257099793E+03  0.00000000000E+00 0.  1.
        -13    1    3    3    0    0 -0.46847522431E+02 -0.37089191873E+02 -0.65260690163E+02  0.88483084215E+02  0.00000000000E+00 0. -1.
          2    1    6    6  502    0  0.13169901055E+02 -0.23630306899E+02  0.72659922128E+02  0.77532586579E+02  0.00000000000E+00 0. -1.
          1    1    5    5  503    0 -0.67346840598E+01  0.76975088885E+02 -0.11452942883E+03  0.13815755624E+03  0.00000000000E+00 0. -1.
         -2    1    5    5    0  503  0.76060668471E+02  0.55463399383E+02 -0.11977148685E+03  0.15233720170E+03  0.00000000000E+00 0.  1.
         -1    1    6    6    0  502  0.28987823690E+03 -0.45931184023E+02  0.66778355865E+03  0.72943399091E+03  0.00000000000E+00 0.  1.
<mgrwt>
<rscale>  0 0.15626865E+04</rscale>
<asrwt>0</asrwt>
<pdfrwt beam="1">  1        1 0.13857689E+00 0.15626865E+04</pdfrwt>
<pdfrwt beam="2">  1       -1 0.10427163E+00 0.15626865E+04</pdfrwt>
<totfact> 0.15137084E+01</totfact>
</mgrwt>
</event>
<event>
12    1  0.1397649E-007  0.2476116E+04  0.7818608E-02  0.8411544E-01
          2   -1    0    0  501    0  0.00000000000E+00  0.00000000000E+00  0.23974786795E+04  0.23974786795E+04  0.00000000000E+00 0. -1.
         -2   -1    0    0    0  501 -0.00000000000E+00 -0.00000000000E+00 -0.63933338889E+03  0.63933338889E+03  0.00000000000E+00 0.  1.
         23    2    1    2    0    0 -0.98394864258E+02  0.10493178811E+04  0.10339652413E+04  0.14792311494E+04  0.91055523395E+02 0.  0.
        254    2    1    2    0    0  0.98394864258E+02 -0.10493178811E+04  0.72418004932E+03  0.15575809190E+04  0.88930985064E+03 0.  0.
        -24    2    4    4    0    0 -0.45933955285E+02 -0.23846689937E+03  0.68326221906E+03  0.72906732180E+03  0.75600987911E+02 0.  0.
         24    2    4    4    0    0  0.14432881954E+03 -0.81085098171E+03  0.40917830258E+02  0.82851359718E+03  0.80314314897E+02 0.  0.
         11    1    3    3    0    0 -0.28244689409E+02  0.22202776891E+03  0.27278852793E+03  0.35285644902E+03  0.00000000000E+00 0. -1.
        -11    1    3    3    0    0 -0.70150174849E+02  0.82729011217E+03  0.76117671338E+03  0.11263747004E+04  0.00000000000E+00 0.  1.
          2    1    6    6  502    0  0.91543950061E+02 -0.57884725817E+03  0.63697873589E+02  0.58949288561E+03  0.00000000000E+00 0. -1.
          1    1    5    5  503    0 -0.27914269872E+02 -0.17720311230E+03  0.58492405141E+03  0.61181393853E+03  0.00000000000E+00 0. -1.
         -2    1    5    5    0  503 -0.18019685414E+02 -0.61263787077E+02  0.98338167655E+02  0.11725338327E+03  0.00000000000E+00 0.  1.
         -1    1    6    6    0  502  0.52784869482E+02 -0.23200372354E+03 -0.22780043331E+02  0.23902071157E+03  0.00000000000E+00 0.  1.
<mgrwt>
<rscale>  0 0.24761165E+04</rscale>
<asrwt>0</asrwt>
<pdfrwt beam="1">  1        2 0.36884287E+00 0.24761165E+04</pdfrwt>
<pdfrwt beam="2">  1       -2 0.98358984E-01 0.24761165E+04</pdfrwt>
<totfact> 0.30612414E+00</totfact>
</mgrwt>
</event>
<event>
12    1  0.1397649E-007  0.4188542E+04  0.7818608E-02  0.7967555E-01
         -2   -1    0    0    0  501 -0.00000000000E+00  0.00000000000E+00  0.19554202607E+04  0.19554202607E+04  0.00000000000E+00 0.  1.
          2   -1    0    0  501    0  0.00000000000E+00 -0.00000000000E+00 -0.22429816005E+04  0.22429816005E+04  0.00000000000E+00 0. -1.
         23    2    1    2    0    0 -0.17523605697E+04 -0.94016232805E+03  0.18520274231E+02  0.19908284481E+04  0.91554026872E+02 0.  0.
        254    2    1    2    0    0  0.17523605697E+04  0.94016232805E+03 -0.30608161409E+03  0.22075734131E+04  0.90830702439E+03 0.  0.
        -24    2    4    4    0    0  0.18281586439E+04  0.96239351017E+03 -0.25584709777E+03  0.20833460257E+04  0.80669880231E+02 0.  0.
         24    2    4    4    0    0 -0.75798074239E+02 -0.22231182119E+02 -0.50234516324E+02  0.12422738742E+03  0.81666171940E+02 0.  0.
         13    1    3    3    0    0 -0.69242130170E+03 -0.36470772409E+03 -0.37037493469E+02  0.78347352155E+03  0.00000000000E+00 0.  1.
        -13    1    3    3    0    0 -0.10599392680E+04 -0.57545460396E+03  0.55557767700E+02  0.12073549265E+04  0.00000000000E+00 0. -1.
          4    1    6    6  502    0 -0.68179247556E+02 -0.48104535787E+02 -0.49959219601E+02  0.97254201882E+02  0.00000000000E+00 0. -1.
          3    1    5    5  503    0  0.12953830109E+04  0.72268590416E+03 -0.17929072080E+03  0.14941342723E+04  0.00000000000E+00 0. -1.
         -4    1    5    5    0  503  0.53277563303E+03  0.23970760600E+03 -0.76556376968E+02  0.58921175343E+03  0.00000000000E+00 0.  1.
         -3    1    6    6    0  502 -0.76188266823E+01  0.25873353668E+02 -0.27529672358E+00  0.26973185543E+02  0.00000000000E+00 0.  1.
<mgrwt>
<rscale>  0 0.41885423E+04</rscale>
<asrwt>0</asrwt>
<pdfrwt beam="1">  1        2 0.34507409E+00 0.41885423E+04</pdfrwt>
<pdfrwt beam="2">  1       -2 0.30083389E+00 0.41885423E+04</pdfrwt>
<totfact> 0.11919492E-01</totfact>
</mgrwt>
</event>
<event>
12    1  0.1397649E-007  0.1282373E+04  0.7818608E-02  0.9043662E-01
         -1   -1    0    0    0  501 -0.00000000000E+00  0.00000000000E+00  0.24517206475E+03  0.24517206475E+03  0.00000000000E+00 0.  1.
          1   -1    0    0  501    0  0.00000000000E+00 -0.00000000000E+00 -0.16768624329E+04  0.16768624329E+04  0.00000000000E+00 0. -1.
         23    2    1    2    0    0  0.88335985881E+02  0.11924259016E+03  0.49659362148E+02  0.18138080009E+03  0.91710962721E+02 0.  0.
        254    2    1    2    0    0 -0.88335985881E+02 -0.11924259016E+03 -0.14813497303E+04  0.17406536975E+04  0.90191808368E+03 0.  0.
        -24    2    4    4    0    0 -0.33493980274E+03 -0.11447539659E+03 -0.14316746417E+04  0.14769750376E+04  0.80459269425E+02 0.  0.
         24    2    4    4    0    0  0.24660381686E+03 -0.47671935730E+01 -0.49675088523E+02  0.26367865992E+03  0.78883792090E+02 0.  0.
         13    1    3    3    0    0  0.44987710652E+02  0.74623762088E+02 -0.18524252398E+02  0.89082814868E+02  0.00000000000E+00 0. -1.
        -13    1    3    3    0    0  0.43348275229E+02  0.44618828074E+02  0.68183614546E+02  0.92297985225E+02  0.00000000000E+00 0.  1.
          4    1    6    6  502    0  0.14376818519E+03  0.14565949184E+02  0.70095687616E+01  0.14467408892E+03  0.00000000000E+00 0. -1.
          1    1    5    5  503    0 -0.29499804758E+03 -0.83316904604E+02 -0.13056189102E+04  0.13411212821E+04  0.00000000000E+00 0. -1.
         -2    1    5    5    0  503 -0.39941755159E+02 -0.31158491985E+02 -0.12605573154E+03  0.13585375550E+03  0.00000000000E+00 0.  1.
         -3    1    6    6    0  502  0.10283563166E+03 -0.19333142757E+02 -0.56684657284E+02  0.11900457101E+03  0.00000000000E+00 0.  1.
<mgrwt>
<rscale>  0 0.12823725E+04</rscale>
<asrwt>0</asrwt>
<pdfrwt beam="1">  1        1 0.25797884E+00 0.12823725E+04</pdfrwt>
<pdfrwt beam="2">  1       -1 0.37718779E-01 0.12823725E+04</pdfrwt>
<totfact> 0.32971515E+01</totfact>
</mgrwt>
</event>
<event>
12    1  0.1397649E-007  0.1748207E+04  0.7818608E-02  0.8734338E-01
         -1   -1    0    0    0  501 -0.00000000000E+00  0.00000000000E+00  0.11152530536E+04  0.11152530536E+04  0.00000000000E+00 0.  1.
          1   -1    0    0  501    0  0.00000000000E+00 -0.00000000000E+00 -0.68509760805E+03  0.68509760805E+03  0.00000000000E+00 0. -1.
         23    2    1    2    0    0  0.55624210975E+03  0.30428245003E+03  0.15751397816E+03  0.65963218477E+03  0.91163983105E+02 0.  0.
        254    2    1    2    0    0 -0.55624210975E+03 -0.30428245003E+03  0.27264146743E+03  0.11407184769E+04  0.90824676149E+03 0.  0.
        -24    2    4    4    0    0 -0.20497777755E+03  0.30886813145E+03  0.22009696948E+01  0.37991610375E+03  0.83162429658E+02 0.  0.
         24    2    4    4    0    0 -0.35126433221E+03 -0.61315058148E+03  0.27044049774E+03  0.76080237317E+03  0.79636182392E+02 0.  0.
         11    1    3    3    0    0  0.67828873350E+02  0.66896998778E+02  0.43580326791E+02  0.10476263355E+03  0.00000000000E+00 0. -1.
        -11    1    3    3    0    0  0.48841323640E+03  0.23738545125E+03  0.11393365137E+03  0.55486955122E+03  0.00000000000E+00 0.  1.
          4    1    6    6  502    0 -0.32043330584E+03 -0.51746429765E+03  0.21193499788E+03  0.64448680837E+03  0.00000000000E+00 0. -1.
          3    1    5    5  503    0 -0.15968682878E+03  0.25261941113E+03 -0.30945024034E+02  0.30045639397E+03  0.00000000000E+00 0. -1.
         -2    1    5    5    0  503 -0.45290948764E+02  0.56248720325E+02  0.33145993729E+02  0.79459709780E+02  0.00000000000E+00 0.  1.
         -3    1    6    6    0  502 -0.30831026364E+02 -0.95686283835E+02  0.58505499860E+02  0.11631556480E+03  0.00000000000E+00 0.  1.
<mgrwt>
<rscale>  0 0.17482073E+04</rscale>
<asrwt>0</asrwt>
<pdfrwt beam="1">  1        1 0.10539963E+00 0.17482073E+04</pdfrwt>
<pdfrwt beam="2">  1       -1 0.17157739E+00 0.17482073E+04</pdfrwt>
<totfact> 0.63913396E+00</totfact>
</mgrwt>
</event>
<event>
12    1  0.1397649E-007  0.2735202E+04  0.7818608E-02  0.8323673E-01
         -2   -1    0    0    0  501 -0.00000000000E+00  0.00000000000E+00  0.62827660759E+03  0.62827660759E+03  0.00000000000E+00 0.  1.
          2   -1    0    0  501    0  0.00000000000E+00 -0.00000000000E+00 -0.29769254713E+04  0.29769254713E+04  0.00000000000E+00 0. -1.
         23    2    1    2    0    0 -0.63008600252E+03  0.88268961495E+03 -0.32213421999E+03  0.11349819204E+04  0.90907519097E+02 0.  0.
        254    2    1    2    0    0  0.63008600252E+03 -0.88268961495E+03 -0.20265146437E+04  0.24702201585E+04  0.90502856492E+03 0.  0.
        -24    2    4    4    0    0 -0.11405803684E+03  0.39116287234E+02 -0.58439302394E+03  0.60213909342E+03  0.80727701005E+02 0.  0.
         24    2    4    4    0    0  0.74414403936E+03 -0.92180590218E+03 -0.14421216198E+04  0.18680810651E+04  0.80843223677E+02 0.  0.
         11    1    3    3    0    0 -0.61037622902E+03  0.83641711743E+03 -0.32306880204E+03  0.10846779182E+04  0.00000000000E+00 0.  1.
        -11    1    3    3    0    0 -0.19709773500E+02  0.46272497516E+02  0.93458204539E+00  0.50304002241E+02  0.00000000000E+00 0. -1.
          2    1    6    6  502    0  0.26850419364E+03 -0.27248775008E+03 -0.46406107291E+03  0.60141230062E+03  0.00000000000E+00 0. -1.
          1    1    5    5  503    0 -0.10966565341E+03  0.86418752379E+01 -0.38592719602E+03  0.40129918786E+03  0.00000000000E+00 0. -1.
         -2    1    5    5    0  503 -0.43923834340E+01  0.30474411996E+02 -0.19846582791E+03  0.20083990557E+03  0.00000000000E+00 0.  1.
         -1    1    6    6    0  502  0.47563984572E+03 -0.64931815210E+03 -0.97806054686E+03  0.12666687644E+04  0.00000000000E+00 0.  1.
<mgrwt>
<rscale>  0 0.27352021E+04</rscale>
<asrwt>0</asrwt>
<pdfrwt beam="1">  1        2 0.45798853E+00 0.27352021E+04</pdfrwt>
<pdfrwt beam="2">  1       -2 0.96657940E-01 0.27352021E+04</pdfrwt>
<totfact> 0.14087692E+00</totfact>
</mgrwt>
</event>
<event>
12    1  0.1397649E-007  0.1575035E+04  0.7818608E-02  0.8836033E-01
         -1   -1    0    0    0  501 -0.00000000000E+00  0.00000000000E+00  0.29818169890E+03  0.29818169890E+03  0.00000000000E+00 0.  1.
          1   -1    0    0  501    0  0.00000000000E+00 -0.00000000000E+00 -0.20798856609E+04  0.20798856609E+04  0.00000000000E+00 0. -1.
         23    2    1    2    0    0 -0.15324521858E+03  0.33128760141E+03 -0.29047366909E+02  0.37702835317E+03  0.89839065584E+02 0.  0.
        254    2    1    2    0    0  0.15324521858E+03 -0.33128760141E+03 -0.17526565951E+04  0.20010390066E+04  0.89393310372E+03 0.  0.
        -24    2    4    4    0    0 -0.14196682920E+03  0.22580624818E+03 -0.86842370269E+03  0.91219851009E+03  0.82482435150E+02 0.  0.
         24    2    4    4    0    0  0.29521204778E+03 -0.55709384959E+03 -0.88423289241E+03  0.10888404966E+04  0.78753466756E+02 0.  0.
         13    1    3    3    0    0 -0.53288287348E+02  0.53773463394E+02  0.19297919327E+02  0.78125774391E+02  0.00000000000E+00 0. -1.
        -13    1    3    3    0    0 -0.99956931227E+02  0.27751413801E+03 -0.48345286235E+02  0.29890257878E+03  0.00000000000E+00 0.  1.
          2    1    6    6  502    0  0.13581535982E+03 -0.26448441153E+03 -0.48438414744E+03  0.56835360313E+03  0.00000000000E+00 0. -1.
          1    1    5    5  503    0 -0.65774221517E+02  0.13841430361E+03 -0.61003811189E+03  0.62899226197E+03  0.00000000000E+00 0. -1.
         -2    1    5    5    0  503 -0.76192607684E+02  0.87391944570E+02 -0.25838559079E+03  0.28320624811E+03  0.00000000000E+00 0.  1.
         -3    1    6    6    0  502  0.15939668795E+03 -0.29260943806E+03 -0.39984874497E+03  0.52048689342E+03  0.00000000000E+00 0.  1.
<mgrwt>
<rscale>  0 0.15750350E+04</rscale>
<asrwt>0</asrwt>
<pdfrwt beam="1">  1        1 0.31998240E+00 0.15750350E+04</pdfrwt>
<pdfrwt beam="2">  1       -1 0.45874109E-01 0.15750350E+04</pdfrwt>
<totfact> 0.11953596E+01</totfact>
</mgrwt>
</event>
<event>
12    1  0.1397649E-007  0.1319593E+04  0.7818608E-02  0.9014170E-01
         -1   -1    0    0    0  501 -0.00000000000E+00  0.00000000000E+00  0.26479363484E+03  0.26479363484E+03  0.00000000000E+00 0. -1.
          1   -1    0    0  501    0  0.00000000000E+00 -0.00000000000E+00 -0.16440411612E+04  0.16440411612E+04  0.00000000000E+00 0.  1.
         23    2    1    2    0    0  0.81190095019E+01 -0.19449813023E+03 -0.65506318358E+03  0.68895184542E+03  0.87472451943E+02 0.  0.
        254    2    1    2    0    0 -0.81190095019E+01  0.19449813023E+03 -0.72418434280E+03  0.12198829506E+04  0.96217254687E+03 0.  0.
        -24    2    4    4    0    0 -0.23072458941E+03  0.36787790303E+03 -0.29953684238E+01  0.44123966683E+03  0.78201557847E+02 0.  0.
         24    2    4    4    0    0  0.22260557991E+03 -0.17337977280E+03 -0.72118897437E+03  0.77864328382E+03  0.80981706902E+02 0.  0.
         11    1    3    3    0    0  0.28048613507E+02 -0.20002613360E+02 -0.15975376151E+03  0.16342611045E+03  0.00000000000E+00 0. -1.
        -11    1    3    3    0    0 -0.19929604005E+02 -0.17449551687E+03 -0.49530942207E+03  0.52552573497E+03  0.00000000000E+00 0.  1.
          4    1    6    6  502    0  0.18859823253E+03 -0.14571295653E+03 -0.50983765771E+03  0.56279303144E+03  0.00000000000E+00 0. -1.
          3    1    5    5  503    0 -0.17226554430E+03  0.31874137175E+03 -0.20496419622E+02  0.36289334940E+03  0.00000000000E+00 0. -1.
         -4    1    5    5    0  503 -0.58459045111E+02  0.49136531281E+02  0.17501051198E+02  0.78346317428E+02  0.00000000000E+00 0.  1.
         -3    1    6    6    0  502  0.34007347385E+02 -0.27666816279E+02 -0.21135131666E+03  0.21585025238E+03  0.00000000000E+00 0.  1.
<mgrwt>
<rscale>  0 0.13195933E+04</rscale>
<asrwt>0</asrwt>
<pdfrwt beam="1">  1        1 0.25292941E+00 0.13195933E+04</pdfrwt>
<pdfrwt beam="2">  1       -1 0.40737483E-01 0.13195933E+04</pdfrwt>
<totfact> 0.30079748E+01</totfact>
</mgrwt>
</event>
<event>
12    1  0.1397649E-007  0.1544168E+04  0.7818608E-02  0.8855602E-01
         -1   -1    0    0    0  501 -0.00000000000E+00  0.00000000000E+00  0.22821717976E+03  0.22821717976E+03  0.00000000000E+00 0.  1.
          1   -1    0    0  501    0  0.00000000000E+00 -0.00000000000E+00 -0.26120452554E+04  0.26120452554E+04  0.00000000000E+00 0. -1.
         23    2    1    2    0    0 -0.47880795259E+02 -0.34555343113E+03 -0.13302860262E+03  0.38430881862E+03  0.91087401082E+02 0.  0.
        254    2    1    2    0    0  0.47880795259E+02  0.34555343113E+03 -0.22507994730E+04  0.24559536165E+04  0.91864582650E+03 0.  0.
        -24    2    4    4    0    0  0.40947537386E+03  0.37612188379E+03 -0.17069042975E+04  0.17969416792E+04  0.79620126330E+02 0.  0.
         24    2    4    4    0    0 -0.36159457860E+03 -0.30568452660E+02 -0.54389517552E+03  0.65901193730E+03  0.82399647939E+02 0.  0.
         11    1    3    3    0    0 -0.60800197508E+02 -0.30684522906E+03 -0.91114103835E+02  0.32581043343E+03  0.00000000000E+00 0.  1.
        -11    1    3    3    0    0  0.12919402248E+02 -0.38708202074E+02 -0.41914498786E+02  0.58498385198E+02  0.00000000000E+00 0. -1.
          2    1    6    6  502    0 -0.46492139265E+02 -0.10430636111E+02 -0.12982113291E+03  0.13828898631E+03  0.00000000000E+00 0. -1.
          1    1    5    5  503    0  0.58023858426E+01  0.89595235814E+01 -0.10652945701E+02  0.15080649733E+02  0.00000000000E+00 0. -1.
         -2    1    5    5    0  503  0.40367298802E+03  0.36716236021E+03 -0.16962513518E+04  0.17818610295E+04  0.00000000000E+00 0.  1.
         -1    1    6    6    0  502 -0.31510243934E+03 -0.20137816549E+02 -0.41407404260E+03  0.52072295099E+03  0.00000000000E+00 0.  1.
<mgrwt>
<rscale>  0 0.15441679E+04</rscale>
<asrwt>0</asrwt>
<pdfrwt beam="1">  1        1 0.40185312E+00 0.15441679E+04</pdfrwt>
<pdfrwt beam="2">  1       -1 0.35110335E-01 0.15441679E+04</pdfrwt>
<totfact> 0.84414266E+00</totfact>
</mgrwt>
</event>
<event>
12    1  0.1397649E-007  0.1209395E+04  0.7818608E-02  0.9104673E-01
          2   -1    0    0  501    0  0.00000000000E+00  0.00000000000E+00  0.11523430433E+04  0.11523430433E+04  0.00000000000E+00 0. -1.
         -2   -1    0    0    0  501 -0.00000000000E+00 -0.00000000000E+00 -0.31731786239E+03  0.31731786239E+03  0.00000000000E+00 0.  1.
         23    2    1    2    0    0 -0.42561221266E+02  0.11309461967E+02 -0.11878533816E+03  0.15709065395E+03  0.92887865246E+02 0.  0.
        254    2    1    2    0    0  0.42561221266E+02 -0.11309461967E+02  0.95381051902E+03  0.13125702517E+04  0.90063688464E+03 0.  0.
        -24    2    4    4    0    0  0.16759264699E+03 -0.41716651108E+03  0.60117685861E+03  0.75476938086E+03  0.78409244787E+02 0.  0.
         24    2    4    4    0    0 -0.12503142572E+03  0.40585704911E+03  0.35263366041E+03  0.55780087084E+03  0.80240334766E+02 0.  0.
         13    1    3    3    0    0 -0.31359723110E+02 -0.38460272468E+02 -0.42595290546E+02  0.65398651122E+02  0.00000000000E+00 0. -1.
        -13    1    3    3    0    0 -0.11201498156E+02  0.49769734435E+02 -0.76190047614E+02  0.91692002825E+02  0.00000000000E+00 0.  1.
          4    1    6    6  502    0 -0.92337800116E+02  0.35922237700E+03  0.27601142371E+03  0.46233028398E+03  0.00000000000E+00 0. -1.
          1    1    5    5  503    0  0.13528935376E+03 -0.32542957316E+03  0.41291117448E+03  0.54286577931E+03  0.00000000000E+00 0. -1.
         -2    1    5    5    0  503  0.32303293226E+02 -0.91736937912E+02  0.18826568413E+03  0.21190360155E+03  0.00000000000E+00 0.  1.
         -3    1    6    6    0  502 -0.32693625607E+02  0.46634672113E+02  0.76622236700E+02  0.95470586860E+02  0.00000000000E+00 0.  1.
<mgrwt>
<rscale>  0 0.12093949E+04</rscale>
<asrwt>0</asrwt>
<pdfrwt beam="1">  1        2 0.17728354E+00 0.12093949E+04</pdfrwt>
<pdfrwt beam="2">  1       -2 0.48818133E-01 0.12093949E+04</pdfrwt>
<totfact> 0.79266746E+01</totfact>
</mgrwt>
</event>
<event>
12    1  0.1397649E-007  0.1371870E+04  0.7818608E-02  0.8974436E-01
         -1   -1    0    0    0  501 -0.00000000000E+00  0.00000000000E+00  0.29758751251E+03  0.29758751251E+03  0.00000000000E+00 0.  1.
          1   -1    0    0  501    0  0.00000000000E+00 -0.00000000000E+00 -0.15810710084E+04  0.15810710084E+04  0.00000000000E+00 0. -1.
         23    2    1    2    0    0  0.34416448736E+03 -0.92544761895E+02 -0.17367530860E+03  0.40653142014E+03  0.89949738334E+02 0.  0.
        254    2    1    2    0    0 -0.34416448736E+03  0.92544761895E+02 -0.11098081873E+04  0.14721271007E+04  0.89914974332E+03 0.  0.
        -24    2    4    4    0    0  0.19556591017E+03  0.24344390089E+03 -0.70990805774E+03  0.77953608532E+03  0.78715308381E+02 0.  0.
         24    2    4    4    0    0 -0.53973039753E+03 -0.15089913899E+03 -0.39990012952E+03  0.69259101542E+03  0.75384009474E+02 0.  0.
         11    1    3    3    0    0  0.33148834901E+03 -0.65915514511E+02 -0.15718459069E+03  0.37274170162E+03  0.00000000000E+00 0.  1.
        -11    1    3    3    0    0  0.12676138354E+02 -0.26629247384E+02 -0.16490717912E+02  0.33789718511E+02  0.00000000000E+00 0. -1.
          4    1    6    6  502    0 -0.45201470202E+02  0.56365402597E+01 -0.45406824274E+02  0.64317363015E+02  0.00000000000E+00 0. -1.
          1    1    5    5  503    0 -0.18913848349E+00  0.26091978351E+02 -0.96323787642E+02  0.99795286328E+02  0.00000000000E+00 0. -1.
         -2    1    5    5    0  503  0.19575504865E+03  0.21735192254E+03 -0.61358427010E+03  0.67974079899E+03  0.00000000000E+00 0.  1.
         -3    1    6    6    0  502 -0.49452892733E+03 -0.15653567925E+03 -0.35449330525E+03  0.62827365241E+03  0.00000000000E+00 0.  1.
<mgrwt>
<rscale>  0 0.13718702E+04</rscale>
<asrwt>0</asrwt>
<pdfrwt beam="1">  1        1 0.24324169E+00 0.13718702E+04</pdfrwt>
<pdfrwt beam="2">  1       -1 0.45782694E-01 0.13718702E+04</pdfrwt>
<totfact> 0.26642311E+01</totfact>
</mgrwt>
</event>
<event>
12    1  0.1397649E-007  0.1443504E+04  0.7818608E-02  0.8922917E-01
          1   -1    0    0  501    0  0.00000000000E+00  0.00000000000E+00  0.17925783667E+04  0.17925783667E+04  0.00000000000E+00 0. -1.
         -1   -1    0    0    0  501 -0.00000000000E+00 -0.00000000000E+00 -0.29060138234E+03  0.29060138234E+03  0.00000000000E+00 0.  1.
         23    2    1    2    0    0 -0.36377368422E+03  0.17351555914E+03  0.33775161161E+03  0.53332822551E+03  0.89016304061E+02 0.  0.
        254    2    1    2    0    0  0.36377368422E+03 -0.17351555914E+03  0.11642253728E+04  0.15498515236E+04  0.94030850461E+03 0.  0.
        -24    2    4    4    0    0 -0.21683626055E+03 -0.74713089083E+02  0.65544366717E-01  0.24281626641E+03  0.79747886284E+02 0.  0.
         24    2    4    4    0    0  0.58060994477E+03 -0.98802470053E+02  0.11641598284E+04  0.13070352572E+04  0.78760531214E+02 0.  0.
         13    1    3    3    0    0 -0.29262701881E+03  0.13870339952E+03  0.31292025469E+03  0.45032020938E+03  0.00000000000E+00 0. -1.
        -13    1    3    3    0    0 -0.71146665411E+02  0.34812159615E+02  0.24831356914E+02  0.83008016133E+02  0.00000000000E+00 0.  1.
          4    1    6    6  502    0  0.50955697242E+03 -0.68511008991E+02  0.10511194964E+04  0.11701257463E+04  0.00000000000E+00 0. -1.
          3    1    5    5  503    0 -0.21311861274E+03 -0.58785646711E+02  0.13730386814E+02  0.22150354146E+03  0.00000000000E+00 0. -1.
         -4    1    5    5    0  503 -0.37176478086E+01 -0.15927442372E+02 -0.13664842447E+02  0.21312724951E+02  0.00000000000E+00 0.  1.
         -3    1    6    6    0  502  0.71052972346E+02 -0.30291461062E+02  0.11304033205E+03  0.13690951085E+03  0.00000000000E+00 0.  1.
<mgrwt>
<rscale>  0 0.14435037E+04</rscale>
<asrwt>0</asrwt>
<pdfrwt beam="1">  1        1 0.27578128E+00 0.14435037E+04</pdfrwt>
<pdfrwt beam="2">  1       -1 0.44707906E-01 0.14435037E+04</pdfrwt>
<totfact> 0.19860345E+01</totfact>
</mgrwt>
</event>
<event>
12    1  0.1397649E-007  0.1613040E+04  0.7818608E-02  0.8812577E-01
         -2   -1    0    0    0  501 -0.00000000000E+00  0.00000000000E+00  0.36865882812E+03  0.36865882812E+03  0.00000000000E+00 0.  1.
          2   -1    0    0  501    0  0.00000000000E+00 -0.00000000000E+00 -0.17644352665E+04  0.17644352665E+04  0.00000000000E+00 0. -1.
         23    2    1    2    0    0  0.43048351475E+02  0.16501615539E+03  0.20936242797E+03  0.28484534360E+03  0.90668359546E+02 0.  0.
        254    2    1    2    0    0 -0.43048351475E+02 -0.16501615539E+03 -0.16051388664E+04  0.18482487510E+04  0.90026061411E+03 0.  0.
        -24    2    4    4    0    0 -0.12933718007E+03 -0.18120393300E+03  0.20883787386E+01  0.23663108109E+03  0.80168171526E+02 0.  0.
         24    2    4    4    0    0  0.86288828597E+02  0.16187777618E+02 -0.16072272451E+04  0.16116176700E+04  0.80151672634E+02 0.  0.
         11    1    3    3    0    0  0.72088264925E+01  0.15504953651E+03  0.15863517231E+03  0.22194018078E+03  0.00000000000E+00 0.  1.
        -11    1    3    3    0    0  0.35839524982E+02  0.99666188773E+01  0.50727255654E+02  0.62905162817E+02  0.00000000000E+00 0. -1.
          2    1    6    6  502    0  0.90477572269E+02  0.34563843708E+02 -0.14564703313E+04  0.14596871844E+04  0.00000000000E+00 0. -1.
          3    1    5    5  503    0 -0.67037650994E+02 -0.15471402310E+03 -0.39961040138E+01  0.16866073770E+03  0.00000000000E+00 0. -1.
         -4    1    5    5    0  503 -0.62299529078E+02 -0.26489909909E+02  0.60844827523E+01  0.67970343391E+02  0.00000000000E+00 0.  1.
         -1    1    6    6    0  502 -0.41887436716E+01 -0.18376066090E+02 -0.15075691384E+03  0.15193048558E+03  0.00000000000E+00 0.  1.
<mgrwt>
<rscale>  0 0.16130402E+04</rscale>
<asrwt>0</asrwt>
<pdfrwt beam="1">  1        2 0.27145159E+00 0.16130402E+04</pdfrwt>
<pdfrwt beam="2">  1       -2 0.56716741E-01 0.16130402E+04</pdfrwt>
<totfact> 0.25221056E+01</totfact>
</mgrwt>
</event>
<event>
12    1  0.1397649E-007  0.1241790E+04  0.7818608E-02  0.9077044E-01
         -1   -1    0    0    0  501 -0.00000000000E+00  0.00000000000E+00  0.77711295768E+03  0.77711295768E+03  0.00000000000E+00 0.  1.
          1   -1    0    0  501    0  0.00000000000E+00 -0.00000000000E+00 -0.49608071442E+03  0.49608071442E+03  0.00000000000E+00 0. -1.
         23    2    1    2    0    0  0.40466253166E+02  0.28059507377E+03 -0.45762456925E+02  0.30120376399E+03  0.90875694807E+02 0.  0.
        254    2    1    2    0    0 -0.40466253166E+02 -0.28059507377E+03  0.32679470019E+03  0.97198990811E+03  0.87040133980E+03 0.  0.
        -24    2    4    4    0    0 -0.25039878242E+03  0.18480516472E+03  0.32230788359E+03  0.45502958603E+03  0.79479891738E+02 0.  0.
         24    2    4    4    0    0  0.20993252926E+03 -0.46540023849E+03  0.44868165985E+01  0.51696032208E+03  0.80986383120E+02 0.  0.
         13    1    3    3    0    0  0.38450263918E+02  0.11937777116E+03  0.20142010937E+02  0.12702431124E+03  0.00000000000E+00 0.  1.
        -13    1    3    3    0    0  0.20159892476E+01  0.16121730261E+03 -0.65904467862E+02  0.17417945275E+03  0.00000000000E+00 0. -1.
          2    1    6    6  502    0  0.14064678613E+03 -0.37215485299E+03  0.26489729885E+02  0.39872604485E+03  0.00000000000E+00 0. -1.
          3    1    5    5  503    0 -0.10606939923E+02  0.31452693407E+02  0.15863783988E+02  0.36789111698E+02  0.00000000000E+00 0. -1.
         -4    1    5    5    0  503 -0.23979184250E+03  0.15335247132E+03  0.30644409961E+03  0.41824047434E+03  0.00000000000E+00 0.  1.
         -1    1    6    6    0  502  0.69285743132E+02 -0.93245385503E+02 -0.22002913287E+02  0.11823427723E+03  0.00000000000E+00 0.  1.
<mgrwt>
<rscale>  0 0.12417902E+04</rscale>
<asrwt>0</asrwt>
<pdfrwt beam="1">  1        1 0.76320110E-01 0.12417902E+04</pdfrwt>
<pdfrwt beam="2">  1       -1 0.11955584E+00 0.12417902E+04</pdfrwt>
<totfact> 0.27632743E+01</totfact>
</mgrwt>
</event>
<event>
12    1  0.1397649E-007  0.1866520E+04  0.7818608E-02  0.8671703E-01
         -2   -1    0    0    0  501 -0.00000000000E+00  0.00000000000E+00  0.44536886624E+03  0.44536886624E+03  0.00000000000E+00 0.  1.
          2   -1    0    0  501    0  0.00000000000E+00 -0.00000000000E+00 -0.19556252504E+04  0.19556252504E+04  0.00000000000E+00 0. -1.
         23    2    1    2    0    0  0.66140961973E+03  0.26548172792E+03 -0.55939026813E+03  0.91057279779E+03  0.91006126530E+02 0.  0.
        254    2    1    2    0    0 -0.66140961973E+03 -0.26548172792E+03 -0.95086611600E+03  0.14904213188E+04  0.89959218767E+03 0.  0.
        -24    2    4    4    0    0 -0.92327365822E+02 -0.20469231560E+03 -0.87602639042E+03  0.90779226270E+03  0.79001702207E+02 0.  0.
         24    2    4    4    0    0 -0.56908225391E+03 -0.60789412324E+02 -0.74839725583E+02  0.58262905613E+03  0.79408237334E+02 0.  0.
         13    1    3    3    0    0  0.52127759416E+03  0.20502669646E+03 -0.48431003096E+03  0.74048800295E+03  0.00000000000E+00 0. -1.
        -13    1    3    3    0    0  0.14013202558E+03  0.60455031468E+02 -0.75080237164E+02  0.17008479484E+03  0.00000000000E+00 0.  1.
          2    1    6    6  502    0 -0.15047971273E+03 -0.25471200192E+02 -0.54458098986E+02  0.16204508794E+03  0.00000000000E+00 0. -1.
          3    1    5    5  503    0 -0.31848719695E+01 -0.83818903576E+02 -0.39736638462E+03  0.40612288243E+03  0.00000000000E+00 0. -1.
         -4    1    5    5    0  503 -0.89142493852E+02 -0.12087341202E+03 -0.47866000580E+03  0.50166938026E+03  0.00000000000E+00 0.  1.
         -1    1    6    6    0  502 -0.41860254118E+03 -0.35318212132E+02 -0.20381626597E+02  0.42058396819E+03  0.00000000000E+00 0.  1.
<mgrwt>
<rscale>  0 0.18665204E+04</rscale>
<asrwt>0</asrwt>
<pdfrwt beam="1">  1        2 0.30086542E+00 0.18665204E+04</pdfrwt>
<pdfrwt beam="2">  1       -2 0.68518288E-01 0.18665204E+04</pdfrwt>
<totfact> 0.12934044E+01</totfact>
</mgrwt>
</event>
<event>
12    1  0.1397649E-007  0.2060073E+04  0.7818608E-02  0.8579038E-01
         -2   -1    0    0    0  501 -0.00000000000E+00  0.00000000000E+00  0.28449275462E+03  0.28449275462E+03  0.00000000000E+00 0.  1.
          2   -1    0    0  501    0  0.00000000000E+00 -0.00000000000E+00 -0.37293593176E+04  0.37293593176E+04  0.00000000000E+00 0. -1.
         23    2    1    2    0    0  0.44613029257E+03 -0.11382455587E+03 -0.49377778581E+02  0.47188806304E+03  0.90840032754E+02 0.  0.
        254    2    1    2    0    0 -0.44613029257E+03  0.11382455587E+03 -0.33954887844E+04  0.35419640092E+04  0.89675899205E+03 0.  0.
        -24    2    4    4    0    0 -0.41836657045E+03 -0.23945390116E+03 -0.28150056695E+04  0.28570612883E+04  0.78571797151E+02 0.  0.
         24    2    4    4    0    0 -0.27763722120E+02  0.35327845703E+03 -0.58048311488E+03  0.68490272093E+03  0.80960471869E+02 0.  0.
         13    1    3    3    0    0  0.38218652058E+03 -0.71421512952E+02 -0.63263509462E+02  0.39391603249E+03  0.00000000000E+00 0.  1.
        -13    1    3    3    0    0  0.63943771998E+02 -0.42403042921E+02  0.13885730880E+02  0.77972030552E+02  0.00000000000E+00 0. -1.
          2    1    6    6  502    0 -0.48654655352E+02  0.15026386734E+03 -0.22305912282E+03  0.27331644222E+03  0.00000000000E+00 0. -1.
          1    1    5    5  503    0 -0.22306420443E+03 -0.88219943870E+02 -0.14996253706E+04  0.15186891222E+04  0.00000000000E+00 0. -1.
         -2    1    5    5    0  503 -0.19530236603E+03 -0.15123395729E+03 -0.13153802989E+04  0.13383721660E+04  0.00000000000E+00 0.  1.
         -1    1    6    6    0  502  0.20890933232E+02  0.20301458969E+03 -0.35742399206E+03  0.41158627871E+03  0.00000000000E+00 0.  1.
<mgrwt>
<rscale>  0 0.20600735E+04</rscale>
<asrwt>0</asrwt>
<pdfrwt beam="1">  1        2 0.57374759E+00 0.20600735E+04</pdfrwt>
<pdfrwt beam="2">  1       -2 0.43768116E-01 0.20600735E+04</pdfrwt>
<totfact> 0.25580988E+00</totfact>
</mgrwt>
</event>
<event>
12    1  0.1397649E-007  0.2064087E+04  0.7818608E-02  0.8577230E-01
          2   -1    0    0  501    0  0.00000000000E+00  0.00000000000E+00  0.26996043455E+04  0.26996043455E+04  0.00000000000E+00 0. -1.
         -2   -1    0    0    0  501 -0.00000000000E+00 -0.00000000000E+00 -0.39454452382E+03  0.39454452382E+03  0.00000000000E+00 0.  1.
         23    2    1    2    0    0 -0.71779344378E+03  0.35358288928E+03  0.13006489701E+04  0.15297675776E+04  0.90844980447E+02 0.  0.
        254    2    1    2    0    0  0.71779344378E+03 -0.35358288928E+03  0.10044108516E+04  0.15643812918E+04  0.89342004661E+03 0.  0.
        -24    2    4    4    0    0  0.39898616417E+02 -0.46992962805E+03  0.24883999829E+03  0.53947732363E+03  0.81784369215E+02 0.  0.
         24    2    4    4    0    0  0.67789482736E+03  0.11634673877E+03  0.75557085329E+03  0.10249039681E+04  0.80391970687E+02 0.  0.
         11    1    3    3    0    0 -0.59095936948E+03  0.25814637541E+03  0.10815205318E+04  0.12591898936E+04  0.00000000000E+00 0.  1.
        -11    1    3    3    0    0 -0.12683407430E+03  0.95436513871E+02  0.21912843839E+03  0.27057768403E+03  0.00000000000E+00 0. -1.
          4    1    6    6  502    0  0.59615148353E+03  0.12716147637E+03  0.65290176452E+03  0.89322301051E+03  0.00000000000E+00 0. -1.
          3    1    5    5  503    0  0.57732363903E+02 -0.31318232852E+03  0.19160793190E+03  0.37165817132E+03  0.00000000000E+00 0. -1.
         -4    1    5    5    0  503 -0.17833747486E+02 -0.15674729953E+03  0.57232066390E+02  0.16781915231E+03  0.00000000000E+00 0.  1.
         -1    1    6    6    0  502  0.81743343832E+02 -0.10814737599E+02  0.10266908877E+03  0.13168095762E+03  0.00000000000E+00 0.  1.
<mgrwt>
<rscale>  0 0.20640873E+04</rscale>
<asrwt>0</asrwt>
<pdfrwt beam="1">  1        2 0.41532373E+00 0.20640873E+04</pdfrwt>
<pdfrwt beam="2">  1       -2 0.60699159E-01 0.20640873E+04</pdfrwt>
<totfact> 0.62113162E+00</totfact>
</mgrwt>
</event>
<event>
12    1  0.1397649E-007  0.1879639E+04  0.7818608E-02  0.8665058E-01
          2   -1    0    0  501    0  0.00000000000E+00  0.00000000000E+00  0.81531274321E+03  0.81531274321E+03  0.00000000000E+00 0.  1.
         -2   -1    0    0    0  501 -0.00000000000E+00 -0.00000000000E+00 -0.10833398294E+04  0.10833398294E+04  0.00000000000E+00 0. -1.
         23    2    1    2    0    0  0.20016843903E+03  0.35052913662E+03  0.47693013066E+03  0.63095352965E+03  0.87760625834E+02 0.  0.
        254    2    1    2    0    0 -0.20016843903E+03 -0.35052913662E+03 -0.74495721679E+03  0.12676990429E+04  0.94295361972E+03 0.  0.
        -24    2    4    4    0    0  0.24094399713E+03  0.13255112531E+03 -0.47729983338E+03  0.55661989573E+03  0.79917249735E+02 0.  0.
         24    2    4    4    0    0 -0.44111243615E+03 -0.48308026194E+03 -0.26765738341E+03  0.71107914718E+03  0.77758329850E+02 0.  0.
         13    1    3    3    0    0  0.78124533545E+02  0.14386618623E+03  0.12976549756E+03  0.20890190674E+03  0.00000000000E+00 0.  1.
        -13    1    3    3    0    0  0.12204390548E+03  0.20666295040E+03  0.34716463310E+03  0.42205162291E+03  0.00000000000E+00 0. -1.
          2    1    6    6  502    0 -0.50412793843E+02 -0.90200290848E+02 -0.25722751290E+02  0.10648569005E+03  0.00000000000E+00 0. -1.
          1    1    5    5  503    0  0.70343247214E+01 -0.14843970476E+00  0.17461940909E+01  0.72493415173E+01  0.00000000000E+00 0. -1.
         -2    1    5    5    0  503  0.23390967240E+03  0.13269956502E+03 -0.47904602747E+03  0.54937055421E+03  0.00000000000E+00 0.  1.
         -1    1    6    6    0  502 -0.39069964231E+03 -0.39287997109E+03 -0.24193463212E+03  0.60459345713E+03  0.00000000000E+00 0.  1.
<mgrwt>
<rscale>  0 0.18796391E+04</rscale>
<asrwt>0</asrwt>
<pdfrwt beam="1">  1        2 0.12543273E+00 0.18796391E+04</pdfrwt>
<pdfrwt beam="2">  1       -2 0.16666767E+00 0.18796391E+04</pdfrwt>
<totfact> 0.70907159E+00</totfact>
</mgrwt>
</event>
<event>
12    1  0.1397649E-007  0.1393948E+04  0.7818608E-02  0.8958211E-01
         -2   -1    0    0    0  501 -0.00000000000E+00  0.00000000000E+00  0.42518403147E+03  0.42518403147E+03  0.00000000000E+00 0.  1.
          2   -1    0    0  501    0  0.00000000000E+00 -0.00000000000E+00 -0.11425006172E+04  0.11425006172E+04  0.00000000000E+00 0. -1.
         23    2    1    2    0    0 -0.26027377998E+03  0.23477933480E+03 -0.47646403429E+03  0.59848860108E+03  0.91141939036E+02 0.  0.
        254    2    1    2    0    0  0.26027377998E+03 -0.23477933480E+03 -0.24085255143E+03  0.96919604758E+03  0.87090025291E+03 0.  0.
        -24    2    4    4    0    0 -0.19940496255E+03  0.79617660462E+02 -0.32736119501E+03  0.39978378791E+03  0.80996383448E+02 0.  0.
         24    2    4    4    0    0  0.45967874254E+03 -0.31439699526E+03  0.86508643581E+02  0.56941225967E+03  0.81219203860E+02 0.  0.
         11    1    3    3    0    0 -0.55434514151E+02  0.24721346771E+02 -0.13673772363E+03  0.14960392845E+03  0.00000000000E+00 0. -1.
        -11    1    3    3    0    0 -0.20483926583E+03  0.21005798803E+03 -0.33972631066E+03  0.44888467262E+03  0.00000000000E+00 0.  1.
          4    1    6    6  502    0  0.20536581974E+03 -0.10247511486E+03  0.60507289481E+02  0.23735501083E+03  0.00000000000E+00 0. -1.
          1    1    5    5  503    0 -0.23625109610E+02 -0.12264280040E+02 -0.69785273995E+02  0.74689643429E+02  0.00000000000E+00 0. -1.
         -2    1    5    5    0  503 -0.17577985295E+03  0.91881940501E+02 -0.25757592101E+03  0.32509414448E+03  0.00000000000E+00 0.  1.
         -3    1    6    6    0  502  0.25431292280E+03 -0.21192188040E+03  0.26001354100E+02  0.33205724884E+03  0.00000000000E+00 0.  1.
<mgrwt>
<rscale>  0 0.13939484E+04</rscale>
<asrwt>0</asrwt>
<pdfrwt beam="1">  1        2 0.17576933E+00 0.13939484E+04</pdfrwt>
<pdfrwt beam="2">  1       -2 0.65412928E-01 0.13939484E+04</pdfrwt>
<totfact> 0.43027605E+01</totfact>
</mgrwt>
</event>
<event>
12    1  0.1397649E-007  0.2487036E+04  0.7818608E-02  0.8407618E-01
         -1   -1    0    0    0  501 -0.00000000000E+00  0.00000000000E+00  0.68785725281E+03  0.68785725281E+03  0.00000000000E+00 0.  1.
          1   -1    0    0  501    0  0.00000000000E+00 -0.00000000000E+00 -0.22480500656E+04  0.22480500656E+04  0.00000000000E+00 0. -1.
         23    2    1    2    0    0 -0.10787156695E+04 -0.11485016427E+03 -0.72205945201E+03  0.13058225930E+04  0.83574734260E+02 0.  0.
        254    2    1    2    0    0  0.10787156695E+04  0.11485016427E+03 -0.83813336079E+03  0.16300847255E+04  0.88198108022E+03 0.  0.
        -24    2    4    4    0    0  0.12928888295E+03 -0.17335535126E+03  0.10966270204E+03  0.25558532961E+03  0.80810020609E+02 0.  0.
         24    2    4    4    0    0  0.94942678654E+03  0.28820551552E+03 -0.94779606283E+03  0.13744993958E+04  0.80359008691E+02 0.  0.
         11    1    3    3    0    0 -0.18997369697E+03 -0.47686305870E+02 -0.11023372599E+03  0.22475645408E+03  0.00000000000E+00 0.  1.
        -11    1    3    3    0    0 -0.88874197253E+03 -0.67163858397E+02 -0.61182572602E+03  0.10810661389E+04  0.00000000000E+00 0. -1.
          2    1    6    6  502    0  0.91595828728E+03  0.28405152633E+03 -0.89438065631E+03  0.13113281862E+04  0.00000000000E+00 0. -1.
          1    1    5    5  503    0  0.71463820324E+02 -0.13832174477E+03  0.10505126641E+03  0.18781839971E+03  0.00000000000E+00 0. -1.
         -2    1    5    5    0  503  0.57825062624E+02 -0.35033606482E+02  0.46114356305E+01  0.67766929908E+02  0.00000000000E+00 0.  1.
         -1    1    6    6    0  502  0.33468499265E+02  0.41539891965E+01 -0.53415406526E+02  0.63171209610E+02  0.00000000000E+00 0.  1.
<mgrwt>
<rscale>  0 0.24870364E+04</rscale>
<asrwt>0</asrwt>
<pdfrwt beam="1">  1        1 0.34585386E+00 0.24870364E+04</pdfrwt>
<pdfrwt beam="2">  1       -1 0.10582419E+00 0.24870364E+04</pdfrwt>
<totfact> 0.15014229E+00</totfact>
</mgrwt>
</event>
<event>
12    1  0.1397649E-007  0.1170235E+04  0.7818608E-02  0.9139316E-01
         -1   -1    0    0    0  501 -0.00000000000E+00  0.00000000000E+00  0.28993436538E+03  0.28993436538E+03  0.00000000000E+00 0.  1.
          1   -1    0    0  501    0  0.00000000000E+00 -0.00000000000E+00 -0.11808276462E+04  0.11808276462E+04  0.00000000000E+00 0. -1.
         23    2    1    2    0    0 -0.11370698037E+03 -0.12367698378E+03 -0.39568962855E+00  0.19059584719E+03  0.90007481321E+02 0.  0.
        254    2    1    2    0    0  0.11370698037E+03  0.12367698378E+03 -0.89049759124E+03  0.12801661644E+04  0.90422020263E+03 0.  0.
        -24    2    4    4    0    0 -0.91020252832E+02  0.39256806532E+03 -0.83216344107E+03  0.92799240648E+03  0.79243558111E+02 0.  0.
         24    2    4    4    0    0  0.20472723320E+03 -0.26889108154E+03 -0.58334150172E+02  0.35217375795E+03  0.80048916099E+02 0.  0.
         13    1    3    3    0    0 -0.23337834557E+02  0.19036493164E+00 -0.26225675282E+02  0.35106649009E+02  0.00000000000E+00 0. -1.
        -13    1    3    3    0    0 -0.90369145808E+02 -0.12386734872E+03  0.25829985653E+02  0.15548919818E+03  0.00000000000E+00 0.  1.
          2    1    6    6  502    0  0.56587758994E+02 -0.32324554688E+02  0.68896361516E+01  0.65532575030E+02  0.00000000000E+00 0. -1.
          1    1    5    5  503    0 -0.41808710186E+01  0.25692097079E+02 -0.20820710366E+02  0.33332649384E+02  0.00000000000E+00 0. -1.
         -2    1    5    5    0  503 -0.86839381814E+02  0.36687596824E+03 -0.81134273070E+03  0.89465975710E+03  0.00000000000E+00 0.  1.
         -1    1    6    6    0  502  0.14813947420E+03 -0.23656652685E+03 -0.65223786323E+02  0.28664118292E+03  0.00000000000E+00 0.  1.
<mgrwt>
<rscale>  0 0.11702350E+04</rscale>
<asrwt>0</asrwt>
<pdfrwt beam="1">  1        1 0.18166579E+00 0.11702350E+04</pdfrwt>
<pdfrwt beam="2">  1       -1 0.44605287E-01 0.11702350E+04</pdfrwt>
<totfact> 0.54477138E+01</totfact>
</mgrwt>
</event>
<event>
12    1  0.1397649E-007  0.1316515E+04  0.7818608E-02  0.9016570E-01
         -1   -1    0    0    0  501 -0.00000000000E+00  0.00000000000E+00  0.26203420571E+03  0.26203420571E+03  0.00000000000E+00 0.  1.
          1   -1    0    0  501    0  0.00000000000E+00 -0.00000000000E+00 -0.16536127557E+04  0.16536127557E+04  0.00000000000E+00 0. -1.
         23    2    1    2    0    0 -0.28149578422E+03 -0.18112292426E+03 -0.49062499134E+03  0.60059380522E+03  0.89188825066E+02 0.  0.
        254    2    1    2    0    0  0.28149578422E+03  0.18112292426E+03 -0.90095355870E+03  0.13150531562E+04  0.89755339594E+03 0.  0.
        -24    2    4    4    0    0  0.14971271636E+03 -0.34130085216E+03 -0.54216955358E+03  0.66292863075E+03  0.81402552247E+02 0.  0.
         24    2    4    4    0    0  0.13178306785E+03  0.52242377643E+03 -0.35878400511E+03  0.65212452547E+03  0.79038315079E+02 0.  0.
         13    1    3    3    0    0 -0.49610994835E+02 -0.13903876061E+00 -0.99702981033E+02  0.11136406318E+03  0.00000000000E+00 0.  1.
        -13    1    3    3    0    0 -0.23188478938E+03 -0.18098388550E+03 -0.39092201031E+03  0.48922974205E+03  0.00000000000E+00 0. -1.
          2    1    6    6  502    0  0.39105328166E+02  0.18656913954E+03 -0.83599734002E+02  0.20814943201E+03  0.00000000000E+00 0. -1.
          3    1    5    5  503    0  0.21284103763E+02 -0.35149634669E+02 -0.11363316846E+03  0.12083462610E+03  0.00000000000E+00 0. -1.
         -4    1    5    5    0  503  0.12842861260E+03 -0.30615121750E+03 -0.42853638512E+03  0.54209400466E+03  0.00000000000E+00 0.  1.
         -1    1    6    6    0  502  0.92677739686E+02  0.33585463689E+03 -0.27518427111E+03  0.44397509347E+03  0.00000000000E+00 0.  1.
<mgrwt>
<rscale>  0 0.13165153E+04</rscale>
<asrwt>0</asrwt>
<pdfrwt beam="1">  1        1 0.25440196E+00 0.13165153E+04</pdfrwt>
<pdfrwt beam="2">  1       -1 0.40312955E-01 0.13165153E+04</pdfrwt>
<totfact> 0.30212539E+01</totfact>
</mgrwt>
</event>
<event>
12    1  0.1397649E-007  0.1704623E+04  0.7818608E-02  0.8758732E-01
          2   -1    0    0  501    0  0.00000000000E+00  0.00000000000E+00  0.17830040554E+04  0.17830040554E+04  0.00000000000E+00 0. -1.
         -2   -1    0    0    0  501 -0.00000000000E+00 -0.00000000000E+00 -0.40742197370E+03  0.40742197370E+03  0.00000000000E+00 0.  1.
         23    2    1    2    0    0 -0.48636885324E+03 -0.15898316869E+03  0.92683860945E+03  0.10626644404E+04  0.91627482669E+02 0.  0.
        254    2    1    2    0    0  0.48636885324E+03  0.15898316869E+03  0.44874347225E+03  0.11277615887E+04  0.89924701154E+03 0.  0.
        -24    2    4    4    0    0  0.11651115401E+03  0.48937806828E+03  0.10795887667E+03  0.52059598399E+03  0.79368235266E+02 0.  0.
         24    2    4    4    0    0  0.36985769923E+03 -0.33039489959E+03  0.34078459558E+03  0.60716560473E+03  0.80996442056E+02 0.  0.
         13    1    3    3    0    0 -0.19125804728E+03 -0.53967306388E+02  0.27305086414E+03  0.33771124532E+03  0.00000000000E+00 0.  1.
        -13    1    3    3    0    0 -0.29511080596E+03 -0.10501586230E+03  0.65378774530E+03  0.72495319507E+03  0.00000000000E+00 0. -1.
          2    1    6    6  502    0  0.19408819709E+03 -0.15138294464E+03  0.21354055224E+03  0.32586284174E+03  0.00000000000E+00 0. -1.
          3    1    5    5  503    0  0.56243362255E+02  0.99359976982E+02  0.15068061518E+02  0.11516408859E+03  0.00000000000E+00 0. -1.
         -4    1    5    5    0  503  0.60267791754E+02  0.39001809130E+03  0.92890815157E+02  0.40543189539E+03  0.00000000000E+00 0.  1.
         -1    1    6    6    0  502  0.17576950215E+03 -0.17901195495E+03  0.12724404334E+03  0.28130276299E+03  0.00000000000E+00 0.  1.
<mgrwt>
<rscale>  0 0.17046232E+04</rscale>
<asrwt>0</asrwt>
<pdfrwt beam="1">  1        2 0.27430831E+00 0.17046232E+04</pdfrwt>
<pdfrwt beam="2">  1       -2 0.62680305E-01 0.17046232E+04</pdfrwt>
<totfact> 0.19794631E+01</totfact>
</mgrwt>
</event>
<event>
12    1  0.1397649E-007  0.1922543E+04  0.7818608E-02  0.8643716E-01
          1   -1    0    0  501    0  0.00000000000E+00  0.00000000000E+00  0.17661646400E+04  0.17661646400E+04  0.00000000000E+00 0. -1.
         -1   -1    0    0    0  501 -0.00000000000E+00 -0.00000000000E+00 -0.52319179372E+03  0.52319179372E+03  0.00000000000E+00 0.  1.
         23    2    1    2    0    0  0.60063128268E+03  0.34149418906E+03  0.15250326815E+03  0.71390081292E+03  0.94978444948E+02 0.  0.
        254    2    1    2    0    0 -0.60063128268E+03 -0.34149418906E+03  0.10904695781E+04  0.15754556208E+04  0.90308376874E+03 0.  0.
        -24    2    4    4    0    0 -0.66479041488E+03 -0.42256464569E+03  0.42943585123E+03  0.90161533024E+03  0.89374928818E+02 0.  0.
         24    2    4    4    0    0  0.64159132197E+02  0.81070456633E+02  0.66103372691E+03  0.67384029056E+03  0.80039589492E+02 0.  0.
         11    1    3    3    0    0  0.42925644885E+03  0.28906627469E+03  0.12711480430E+03  0.53289640974E+03  0.00000000000E+00 0.  1.
        -11    1    3    3    0    0  0.17137483383E+03  0.52427914368E+02  0.25388463843E+02  0.18100440318E+03  0.00000000000E+00 0. -1.
          4    1    6    6  502    0  0.31364514496E+02  0.27592451031E+02  0.88319925625E+02  0.97700999922E+02  0.00000000000E+00 0. -1.
          3    1    5    5  503    0 -0.20318536114E+03 -0.91668097638E+02  0.93287662071E+02  0.24164006084E+03  0.00000000000E+00 0. -1.
         -4    1    5    5    0  503 -0.46160505373E+03 -0.33089654805E+03  0.33614818916E+03  0.65997526940E+03  0.00000000000E+00 0.  1.
         -3    1    6    6    0  502  0.32794617701E+02  0.53478005602E+02  0.57271380128E+03  0.57613929063E+03  0.00000000000E+00 0.  1.
<mgrwt>
<rscale>  0 0.19225429E+04</rscale>
<asrwt>0</asrwt>
<pdfrwt beam="1">  1        1 0.27171763E+00 0.19225429E+04</pdfrwt>
<pdfrwt beam="2">  1       -1 0.80491046E-01 0.19225429E+04</pdfrwt>
<totfact> 0.61757719E+00</totfact>
</mgrwt>
</event>
<event>
12    1  0.1397649E-007  0.1261078E+04  0.7818608E-02  0.9061013E-01
          2   -1    0    0  501    0  0.00000000000E+00  0.00000000000E+00  0.11877320929E+04  0.11877320929E+04  0.00000000000E+00 0. -1.
         -2   -1    0    0    0  501 -0.00000000000E+00 -0.00000000000E+00 -0.33473826290E+03  0.33473826290E+03  0.00000000000E+00 0.  1.
         23    2    1    2    0    0  0.22612271873E+03 -0.67056101187E+02 -0.94721301785E+01  0.25317502932E+03  0.91541627635E+02 0.  0.
        254    2    1    2    0    0 -0.22612271873E+03  0.67056101187E+02  0.86246596023E+03  0.12692953265E+04  0.90090792469E+03 0.  0.
        -24    2    4    4    0    0  0.10677599900E+03 -0.14663693397E+03 -0.10245748607E+03  0.22344100060E+03  0.80776481293E+02 0.  0.
         24    2    4    4    0    0 -0.33289871773E+03  0.21369303516E+03  0.96492344629E+03  0.10458543259E+04  0.79042674002E+02 0.  0.
         13    1    3    3    0    0  0.19179228765E+03 -0.23324738419E+02  0.11995608394E+02  0.19357742545E+03  0.00000000000E+00 0. -1.
        -13    1    3    3    0    0  0.34330431083E+02 -0.43731362767E+02 -0.21467738573E+02  0.59597603872E+02  0.00000000000E+00 0.  1.
          2    1    6    6  502    0 -0.75127609309E+02  0.34340322835E+02  0.28847893527E+03  0.30007251049E+03  0.00000000000E+00 0. -1.
          3    1    5    5  503    0 -0.12440409127E+02 -0.14164187921E+02 -0.18589028622E+02  0.26475271175E+02  0.00000000000E+00 0. -1.
         -4    1    5    5    0  503  0.11921640813E+03 -0.13247274605E+03 -0.83868457448E+02  0.19696572942E+03  0.00000000000E+00 0.  1.
         -1    1    6    6    0  502 -0.25777110842E+03  0.17935271232E+03  0.67644451102E+03  0.74578181544E+03  0.00000000000E+00 0.  1.
<mgrwt>
<rscale>  0 0.12610779E+04</rscale>
<asrwt>0</asrwt>
<pdfrwt beam="1">  1        2 0.18272801E+00 0.12610779E+04</pdfrwt>
<pdfrwt beam="2">  1       -2 0.51498195E-01 0.12610779E+04</pdfrwt>
<totfact> 0.67425253E+01</totfact>
</mgrwt>
</event>
<event>
12    1  0.1397649E-007  0.2626853E+04  0.7818608E-02  0.8359137E-01
          2   -1    0    0  501    0  0.00000000000E+00  0.00000000000E+00  0.20937440178E+04  0.20937440178E+04  0.00000000000E+00 0. -1.
         -2   -1    0    0    0  501 -0.00000000000E+00 -0.00000000000E+00 -0.82392552658E+03  0.82392552658E+03  0.00000000000E+00 0.  1.
         23    2    1    2    0    0 -0.21682567955E+03 -0.57745141002E+03  0.16284541103E+04  0.17435133441E+04  0.86674594562E+02 0.  0.
        254    2    1    2    0    0  0.21682567955E+03  0.57745141002E+03 -0.35863561908E+03  0.11741562003E+04  0.93250188696E+03 0.  0.
        -24    2    4    4    0    0  0.75935672951E+02 -0.12264580952E+03  0.20423377394E+03  0.26128562083E+03  0.75832184558E+02 0.  0.
         24    2    4    4    0    0  0.14089000660E+03  0.70009721955E+03 -0.56286939302E+03  0.91287057947E+03  0.80775184840E+02 0.  0.
         13    1    3    3    0    0 -0.13584766751E+03 -0.42478128989E+03  0.12585437688E+04  0.13352251312E+04  0.00000000000E+00 0.  1.
        -13    1    3    3    0    0 -0.80978012041E+02 -0.15267012014E+03  0.36991034145E+03  0.40828821282E+03  0.00000000000E+00 0. -1.
          2    1    6    6  502    0  0.21789511755E+02  0.27498988614E+03 -0.18939975385E+03  0.33461393734E+03  0.00000000000E+00 0. -1.
          1    1    5    5  503    0 -0.46372403536E+01 -0.58487254410E+02  0.58709835003E+02  0.83000648507E+02  0.00000000000E+00 0. -1.
         -2    1    5    5    0  503  0.80572913305E+02 -0.64158555114E+02  0.14552393894E+03  0.17828497232E+03  0.00000000000E+00 0.  1.
         -1    1    6    6    0  502  0.11910049484E+03  0.42510733340E+03 -0.37346963917E+03  0.57825664213E+03  0.00000000000E+00 0.  1.
<mgrwt>
<rscale>  0 0.26268530E+04</rscale>
<asrwt>0</asrwt>
<pdfrwt beam="1">  1        2 0.32211446E+00 0.26268530E+04</pdfrwt>
<pdfrwt beam="2">  1       -2 0.12675777E+00 0.26268530E+04</pdfrwt>
<totfact> 0.24201210E+00</totfact>
</mgrwt>
</event>
<event>
12    1  0.1397649E-007  0.1969875E+04  0.7818608E-02  0.8620836E-01
         -1   -1    0    0    0  501 -0.00000000000E+00  0.00000000000E+00  0.75602544018E+03  0.75602544018E+03  0.00000000000E+00 0.  1.
          1   -1    0    0  501    0  0.00000000000E+00 -0.00000000000E+00 -0.12831599261E+04  0.12831599261E+04  0.00000000000E+00 0. -1.
         23    2    1    2    0    0 -0.12185164039E+03  0.22804905374E+03 -0.10233016987E+04  0.10593262065E+04  0.90396083805E+02 0.  0.
        254    2    1    2    0    0  0.12185164039E+03 -0.22804905374E+03  0.49616721281E+03  0.97985915980E+03  0.80441772531E+03 0.  0.
        -24    2    4    4    0    0 -0.20747111174E+03 -0.29132965499E+03  0.51823780151E+03  0.63444564115E+03  0.77676396491E+02 0.  0.
         24    2    4    4    0    0  0.32932275213E+03  0.63280601249E+02 -0.22070588705E+02  0.34541351865E+03  0.79783948377E+02 0.  0.
         13    1    3    3    0    0 -0.83313673090E+02  0.21243960443E+03 -0.78784613788E+03  0.82022758465E+03  0.00000000000E+00 0. -1.
        -13    1    3    3    0    0 -0.38537967298E+02  0.15609449308E+02 -0.23545556087E+03  0.23909862186E+03  0.00000000000E+00 0.  1.
          2    1    6    6  502    0  0.12235834979E+03  0.52185614491E+02  0.18244249391E+02  0.13426748214E+03  0.00000000000E+00 0. -1.
          1    1    5    5  503    0 -0.18798977143E+03 -0.25713929105E+03  0.40944158077E+03  0.51875155636E+03  0.00000000000E+00 0. -1.
         -2    1    5    5    0  503 -0.19481340314E+02 -0.34190363935E+02  0.10879622074E+03  0.11569408479E+03  0.00000000000E+00 0.  1.
         -1    1    6    6    0  502  0.20696440234E+03  0.11094986758E+02 -0.40314838096E+02  0.21114603652E+03  0.00000000000E+00 0.  1.
<mgrwt>
<rscale>  0 0.19698747E+04</rscale>
<asrwt>0</asrwt>
<pdfrwt beam="1">  1        1 0.19740922E+00 0.19698747E+04</pdfrwt>
<pdfrwt beam="2">  1       -1 0.11631161E+00 0.19698747E+04</pdfrwt>
<totfact> 0.57778972E+00</totfact>
</mgrwt>
</event>
<event>
12    1  0.1397649E-007  0.2036588E+04  0.7818608E-02  0.8589703E-01
         -2   -1    0    0    0  501 -0.00000000000E+00  0.00000000000E+00  0.35113538197E+03  0.35113538197E+03  0.00000000000E+00 0. -1.
          2   -1    0    0  501    0  0.00000000000E+00 -0.00000000000E+00 -0.29530576427E+04  0.29530576427E+04  0.00000000000E+00 0.  1.
         23    2    1    2    0    0  0.63827848032E+03  0.43425074754E+03 -0.61390437437E+03  0.99055632881E+03  0.91379042987E+02 0.  0.
        254    2    1    2    0    0 -0.63827848032E+03 -0.43425074754E+03 -0.19880178863E+04  0.23136366958E+04  0.89706550135E+03 0.  0.
        -24    2    4    4    0    0 -0.22856100832E+03 -0.12651772669E+03 -0.15073482626E+02  0.27363034225E+03  0.79996778862E+02 0.  0.
         24    2    4    4    0    0 -0.40971747199E+03 -0.30773302085E+03 -0.19729444037E+04  0.20400063536E+04  0.80921465185E+02 0.  0.
         13    1    3    3    0    0  0.49852509417E+03  0.32800679754E+03 -0.51966882534E+03  0.79130993724E+03  0.00000000000E+00 0. -1.
        -13    1    3    3    0    0  0.13975338615E+03  0.10624395000E+03 -0.94235549034E+02  0.19924639157E+03  0.00000000000E+00 0.  1.
          2    1    6    6  502    0 -0.30745159175E+02 -0.33312584185E+02 -0.10529630825E+03  0.11463989537E+03  0.00000000000E+00 0. -1.
          3    1    5    5  503    0 -0.29147363416E+02 -0.50896537389E+02 -0.14250459397E+02  0.60358113832E+02  0.00000000000E+00 0. -1.
         -4    1    5    5    0  503 -0.19941364491E+03 -0.75621189298E+02 -0.82302322869E+00  0.21327222842E+03  0.00000000000E+00 0.  1.
         -1    1    6    6    0  502 -0.37897231282E+03 -0.27442043667E+03 -0.18676480955E+04  0.19253664582E+04  0.00000000000E+00 0.  1.
<mgrwt>
<rscale>  0 0.20365883E+04</rscale>
<asrwt>0</asrwt>
<pdfrwt beam="1">  1        2 0.45431656E+00 0.20365883E+04</pdfrwt>
<pdfrwt beam="2">  1       -2 0.54020828E-01 0.20365883E+04</pdfrwt>
<totfact> 0.55794402E+00</totfact>
</mgrwt>
</event>
<event>
12    1  0.1397649E-007  0.2608504E+04  0.7818608E-02  0.8365318E-01
         -1   -1    0    0    0  501 -0.00000000000E+00  0.00000000000E+00  0.12476871895E+04  0.12476871895E+04  0.00000000000E+00 0.  1.
          1   -1    0    0  501    0  0.00000000000E+00 -0.00000000000E+00 -0.13633816520E+04  0.13633816520E+04  0.00000000000E+00 0. -1.
         23    2    1    2    0    0  0.23488404511E+03 -0.83686448271E+03 -0.80135602427E+03  0.11858755190E+04  0.92825599590E+02 0.  0.
        254    2    1    2    0    0 -0.23488404511E+03  0.83686448271E+03  0.68566156179E+03  0.14251933224E+04  0.89751409561E+03 0.  0.
        -24    2    4    4    0    0 -0.48969279547E+03  0.68505277468E+03  0.72818908621E+03  0.11156363781E+04  0.72724445247E+02 0.  0.
         24    2    4    4    0    0  0.25480875036E+03  0.15181170803E+03 -0.42527524421E+02  0.30955694425E+03  0.77734274593E+02 0.  0.
         11    1    3    3    0    0  0.68846043385E+02 -0.30175253915E+03 -0.34295632106E+03  0.46196689354E+03  0.00000000000E+00 0.  1.
        -11    1    3    3    0    0  0.16603800173E+03 -0.53511194356E+03 -0.45839970321E+03  0.72390862549E+03  0.00000000000E+00 0. -1.
          2    1    6    6  502    0  0.21901581263E+03  0.10238310385E+03 -0.13941579949E+02  0.24216645884E+03  0.00000000000E+00 0. -1.
          3    1    5    5  503    0 -0.26612984744E+02  0.44585201896E+02  0.24470018915E+02  0.57400984406E+02  0.00000000000E+00 0. -1.
         -4    1    5    5    0  503 -0.46307981073E+03  0.64046757278E+03  0.70371906730E+03  0.10582353937E+04  0.00000000000E+00 0.  1.
         -1    1    6    6    0  502  0.35792937726E+02  0.49428604179E+02 -0.28585944472E+02  0.67390485408E+02  0.00000000000E+00 0.  1.
<mgrwt>
<rscale>  0 0.26085044E+04</rscale>
<asrwt>0</asrwt>
<pdfrwt beam="1">  1        1 0.20975102E+00 0.26085044E+04</pdfrwt>
<pdfrwt beam="2">  1       -1 0.19195188E+00 0.26085044E+04</pdfrwt>
<totfact> 0.12286970E+00</totfact>
</mgrwt>
</event>
<event>
12    1  0.1397649E-007  0.2354875E+04  0.7818608E-02  0.8456594E-01
         -2   -1    0    0    0  501 -0.00000000000E+00  0.00000000000E+00  0.11424930085E+04  0.11424930085E+04  0.00000000000E+00 0.  1.
          2   -1    0    0  501    0  0.00000000000E+00 -0.00000000000E+00 -0.12134508228E+04  0.12134508228E+04  0.00000000000E+00 0. -1.
         23    2    1    2    0    0 -0.39744465803E+03 -0.46756014821E+03 -0.83417590073E+03  0.10396519267E+04  0.91934471057E+02 0.  0.
        254    2    1    2    0    0  0.39744465803E+03  0.46756014821E+03  0.76321808649E+03  0.13162919046E+04  0.87951565200E+03 0.  0.
        -24    2    4    4    0    0 -0.18275139355E+03  0.41161506157E+03  0.48352045209E+03  0.66524524837E+03  0.77033642878E+02 0.  0.
         24    2    4    4    0    0  0.58019605157E+03  0.55945086646E+02  0.27969763440E+03  0.65104665621E+03  0.76639877923E+02 0.  0.
         13    1    3    3    0    0 -0.24422876584E+03 -0.26864619360E+03 -0.41859963263E+03  0.55411561955E+03  0.00000000000E+00 0.  1.
        -13    1    3    3    0    0 -0.15321589219E+03 -0.19891395461E+03 -0.41557626810E+03  0.48553630716E+03  0.00000000000E+00 0. -1.
          2    1    6    6  502    0  0.33685846869E+02  0.20687269368E+02  0.10991262504E+02  0.41030564761E+02  0.00000000000E+00 0. -1.
          3    1    5    5  503    0 -0.40304956038E+02  0.40684222681E+02  0.40501528192E+02  0.70143205246E+02  0.00000000000E+00 0. -1.
         -4    1    5    5    0  503 -0.14244643751E+03  0.37093083889E+03  0.44301892390E+03  0.59510204312E+03  0.00000000000E+00 0.  1.
         -1    1    6    6    0  502  0.54651020470E+03  0.35257817278E+02  0.26870637190E+03  0.61001609144E+03  0.00000000000E+00 0.  1.
<mgrwt>
<rscale>  0 0.23548750E+04</rscale>
<asrwt>0</asrwt>
<pdfrwt beam="1">  1        2 0.18668474E+00 0.23548750E+04</pdfrwt>
<pdfrwt beam="2">  1       -2 0.17576816E+00 0.23548750E+04</pdfrwt>
<totfact> 0.32566604E+00</totfact>
</mgrwt>
</event>
<event>
12    1  0.1397649E-007  0.1410335E+04  0.7818608E-02  0.8946372E-01
         -1   -1    0    0    0  501 -0.00000000000E+00  0.00000000000E+00  0.35120036312E+03  0.35120036312E+03  0.00000000000E+00 0.  1.
          1   -1    0    0  501    0  0.00000000000E+00 -0.00000000000E+00 -0.14158897332E+04  0.14158897332E+04  0.00000000000E+00 0. -1.
         23    2    1    2    0    0  0.15757336271E+03  0.18945104614E+03 -0.77244780296E+03  0.81590943119E+03  0.91167582409E+02 0.  0.
        254    2    1    2    0    0 -0.15757336271E+03 -0.18945104614E+03 -0.29224156710E+03  0.95118066510E+03  0.87098706110E+03 0.  0.
        -24    2    4    4    0    0 -0.13969362605E+03 -0.36847577373E+03  0.17880513126E+03  0.44009769201E+03  0.80162326343E+02 0.  0.
         24    2    4    4    0    0 -0.17879736664E+02  0.17902472759E+03 -0.47104669836E+03  0.51108297309E+03  0.83374308247E+02 0.  0.
         11    1    3    3    0    0  0.25127590565E+02  0.73459032147E+02 -0.34492881050E+03  0.35355835378E+03  0.00000000000E+00 0.  1.
        -11    1    3    3    0    0  0.13244577214E+03  0.11599201399E+03 -0.42751899246E+03  0.46235107741E+03  0.00000000000E+00 0. -1.
          4    1    6    6  502    0  0.24490938123E+02  0.13291351837E+03 -0.33868313875E+03  0.36465336676E+03  0.00000000000E+00 0. -1.
          1    1    5    5  503    0 -0.91408770866E+02 -0.13943152713E+03  0.56810416409E+02  0.17613670135E+03  0.00000000000E+00 0. -1.
         -2    1    5    5    0  503 -0.48284855179E+02 -0.22904424660E+03  0.12199471485E+03  0.26396099066E+03  0.00000000000E+00 0.  1.
         -3    1    6    6    0  502 -0.42370674787E+02  0.46111209217E+02 -0.13236355962E+03  0.14642960633E+03  0.00000000000E+00 0.  1.
<mgrwt>
<rscale>  0 0.14103347E+04</rscale>
<asrwt>0</asrwt>
<pdfrwt beam="1">  1        1 0.21782919E+00 0.14103347E+04</pdfrwt>
<pdfrwt beam="2">  1       -1 0.54030825E-01 0.14103347E+04</pdfrwt>
<totfact> 0.25227116E+01</totfact>
</mgrwt>
</event>
<event>
12    1  0.1397649E-007  0.2539355E+04  0.7818608E-02  0.8389098E-01
          2   -1    0    0  501    0  0.00000000000E+00  0.00000000000E+00  0.12580579793E+04  0.12580579793E+04  0.00000000000E+00 0. -1.
         -2   -1    0    0    0  501 -0.00000000000E+00 -0.00000000000E+00 -0.12814042373E+04  0.12814042373E+04  0.00000000000E+00 0.  1.
         23    2    1    2    0    0  0.56745666859E+03 -0.85479713143E+03 -0.43006574104E+03  0.11161754978E+04  0.90586939616E+02 0.  0.
        254    2    1    2    0    0 -0.56745666859E+03  0.85479713143E+03  0.40671948300E+03  0.14232867188E+04  0.89868745372E+03 0.  0.
        -24    2    4    4    0    0 -0.47829429655E+03  0.45800392543E+03  0.65926943687E+03  0.93785904293E+03  0.80064750021E+02 0.  0.
         24    2    4    4    0    0 -0.89162372043E+02  0.39679320600E+03 -0.25254995388E+03  0.48542767588E+03  0.80397589477E+02 0.  0.
         13    1    3    3    0    0  0.10785294210E+03 -0.21552274017E+03 -0.74378864128E+02  0.25221919848E+03  0.00000000000E+00 0. -1.
        -13    1    3    3    0    0  0.45960372649E+03 -0.63927439125E+03 -0.35568687692E+03  0.86395629932E+03  0.00000000000E+00 0.  1.
          4    1    6    6  502    0 -0.29820777115E+02  0.11385014380E+03 -0.11762446735E+03  0.16639305668E+03  0.00000000000E+00 0. -1.
          3    1    5    5  503    0 -0.43092575958E+03  0.43768820585E+03  0.59158214481E+03  0.85278215851E+03  0.00000000000E+00 0. -1.
         -4    1    5    5    0  503 -0.47368536968E+02  0.20315719576E+02  0.67687292065E+02  0.85076884425E+02  0.00000000000E+00 0.  1.
         -3    1    6    6    0  502 -0.59341594928E+02  0.28294306221E+03 -0.13492548652E+03  0.31903461921E+03  0.00000000000E+00 0.  1.
<mgrwt>
<rscale>  0 0.25393549E+04</rscale>
<asrwt>0</asrwt>
<pdfrwt beam="1">  1        2 0.19354738E+00 0.25393549E+04</pdfrwt>
<pdfrwt beam="2">  1       -2 0.19713911E+00 0.25393549E+04</pdfrwt>
<totfact> 0.21604232E+00</totfact>
</mgrwt>
</event>
<event>
12    1  0.1397649E-007  0.1426659E+04  0.7818608E-02  0.8934744E-01
         -2   -1    0    0    0  501 -0.00000000000E+00  0.00000000000E+00  0.75039788147E+03  0.75039788147E+03  0.00000000000E+00 0.  1.
          2   -1    0    0  501    0  0.00000000000E+00 -0.00000000000E+00 -0.67809264122E+03  0.67809264122E+03  0.00000000000E+00 0. -1.
         23    2    1    2    0    0  0.15385351526E+03  0.17818194102E+03 -0.32154509524E+03  0.40855870560E+03  0.90051426359E+02 0.  0.
        254    2    1    2    0    0 -0.15385351526E+03 -0.17818194102E+03  0.39385033549E+03  0.10199318171E+04  0.91089138566E+03 0.  0.
        -24    2    4    4    0    0  0.96036227887E+02 -0.68205201483E+02  0.63255155381E+03  0.64801469478E+03  0.76984867664E+02 0.  0.
         24    2    4    4    0    0 -0.24988974315E+03 -0.10997673953E+03 -0.23870121832E+03  0.37191712229E+03  0.82488224972E+02 0.  0.
         11    1    3    3    0    0  0.15596600188E+03  0.14129594837E+03 -0.29773737505E+03  0.36460592874E+03  0.00000000000E+00 0. -1.
        -11    1    3    3    0    0 -0.21124866239E+01  0.36885992652E+02 -0.23807720186E+02  0.43952776864E+02  0.00000000000E+00 0.  1.
          4    1    6    6  502    0 -0.77202184585E+02 -0.60427117480E+02 -0.45465024201E+02  0.10806795204E+03  0.00000000000E+00 0. -1.
          1    1    5    5  503    0  0.52131754065E+02  0.57004973261E+01  0.18535933530E+03  0.19263514382E+03  0.00000000000E+00 0. -1.
         -2    1    5    5    0  503  0.43904473822E+02 -0.73905698809E+02  0.44719221851E+03  0.45537955097E+03  0.00000000000E+00 0.  1.
         -3    1    6    6    0  502 -0.17268755856E+03 -0.49549622054E+02 -0.19323619412E+03  0.26384917026E+03  0.00000000000E+00 0.  1.
<mgrwt>
<rscale>  0 0.14266594E+04</rscale>
<asrwt>0</asrwt>
<pdfrwt beam="1">  1        2 0.10432195E+00 0.14266594E+04</pdfrwt>
<pdfrwt beam="2">  1       -2 0.11544583E+00 0.14266594E+04</pdfrwt>
<totfact> 0.24199106E+01</totfact>
</mgrwt>
</event>
<event>
12    1  0.1397649E-007  0.1670426E+04  0.7818608E-02  0.8778414E-01
          2   -1    0    0  501    0  0.00000000000E+00  0.00000000000E+00  0.99695647778E+03  0.99695647778E+03  0.00000000000E+00 0. -1.
         -2   -1    0    0    0  501 -0.00000000000E+00 -0.00000000000E+00 -0.69971012209E+03  0.69971012209E+03  0.00000000000E+00 0.  1.
         23    2    1    2    0    0  0.36240286922E+03 -0.41726872393E+03 -0.10754560842E+03  0.57049727292E+03  0.91935047351E+02 0.  0.
        254    2    1    2    0    0 -0.36240286922E+03  0.41726872393E+03  0.40479196411E+03  0.11261693270E+04  0.89384103239E+03 0.  0.
        -24    2    4    4    0    0 -0.31331348024E+03  0.51411410706E+03 -0.89454238795E+02  0.61385360379E+03  0.79596068245E+02 0.  0.
         24    2    4    4    0    0 -0.49089388988E+02 -0.96845383127E+02  0.49424620290E+03  0.51231572316E+03  0.79995592220E+02 0.  0.
         11    1    3    3    0    0  0.19954761114E+03 -0.19528391917E+03 -0.94896549880E+02  0.29489051082E+03  0.00000000000E+00 0. -1.
        -11    1    3    3    0    0  0.16285525809E+03 -0.22198480476E+03 -0.12649058535E+02  0.27560676210E+03  0.00000000000E+00 0.  1.
          4    1    6    6  502    0 -0.20297080369E+02 -0.72868626550E+02  0.43958429121E+03  0.44604501711E+03  0.00000000000E+00 0. -1.
          3    1    5    5  503    0 -0.52871806917E+02  0.14435095556E+03 -0.53442962905E+01  0.15382193550E+03  0.00000000000E+00 0. -1.
         -4    1    5    5    0  503 -0.26044167332E+03  0.36976315149E+03 -0.84109942504E+02  0.46003166829E+03  0.00000000000E+00 0.  1.
         -3    1    6    6    0  502 -0.28792308619E+02 -0.23976756577E+02  0.54661911687E+02  0.66270706054E+02  0.00000000000E+00 0.  1.
<mgrwt>
<rscale>  0 0.16704257E+04</rscale>
<asrwt>0</asrwt>
<pdfrwt beam="1">  1        2 0.15337792E+00 0.16704257E+04</pdfrwt>
<pdfrwt beam="2">  1       -2 0.10764771E+00 0.16704257E+04</pdfrwt>
<totfact> 0.16708829E+01</totfact>
</mgrwt>
</event>
<event>
12    1  0.1397649E-007  0.1961777E+04  0.7818608E-02  0.8624703E-01
          1   -1    0    0  501    0  0.00000000000E+00  0.00000000000E+00  0.70318526483E+03  0.70318526483E+03  0.00000000000E+00 0.  1.
         -1   -1    0    0    0  501 -0.00000000000E+00 -0.00000000000E+00 -0.13682627404E+04  0.13682627404E+04  0.00000000000E+00 0. -1.
         23    2    1    2    0    0 -0.44492120402E+02  0.76898540305E+03 -0.31905700304E+03  0.83866349768E+03  0.90779911166E+02 0.  0.
        254    2    1    2    0    0  0.44492120402E+02 -0.76898540305E+03 -0.34602047257E+03  0.12327845076E+04  0.89817001498E+03 0.  0.
        -24    2    4    4    0    0  0.19139025792E+03 -0.18945235450E+03  0.25614547793E+03  0.38043795793E+03  0.81241051903E+02 0.  0.
         24    2    4    4    0    0 -0.14689813752E+03 -0.57953304855E+03 -0.60216595050E+03  0.85234654965E+03  0.80331759485E+02 0.  0.
         13    1    3    3    0    0 -0.54232519458E+02  0.54948719493E+03 -0.26469457517E+03  0.61232390259E+03  0.00000000000E+00 0. -1.
        -13    1    3    3    0    0  0.97403990559E+01  0.21949820812E+03 -0.54362427867E+02  0.22633959509E+03  0.00000000000E+00 0.  1.
          4    1    6    6  502    0 -0.70689793054E+02 -0.41696596506E+03 -0.40264092385E+03  0.58393268141E+03  0.00000000000E+00 0. -1.
          1    1    5    5  503    0  0.19745890943E+03 -0.17380261855E+03  0.24893875787E+03  0.36217105944E+03  0.00000000000E+00 0. -1.
         -2    1    5    5    0  503 -0.60686515034E+01 -0.15649735948E+02  0.72067200663E+01  0.18266898489E+02  0.00000000000E+00 0.  1.
         -3    1    6    6    0  502 -0.76208344468E+02 -0.16256708348E+03 -0.19952502665E+03  0.26841386823E+03  0.00000000000E+00 0.  1.
<mgrwt>
<rscale>  0 0.19617769E+04</rscale>
<asrwt>0</asrwt>
<pdfrwt beam="1">  1        1 0.10818235E+00 0.19617769E+04</pdfrwt>
<pdfrwt beam="2">  1       -1 0.21050196E+00 0.19617769E+04</pdfrwt>
<totfact> 0.32114724E+00</totfact>
</mgrwt>
</event>
<event>
12    1  0.1397649E-007  0.1327393E+04  0.7818608E-02  0.9008120E-01
          2   -1    0    0  501    0  0.00000000000E+00  0.00000000000E+00  0.12725251986E+04  0.12725251986E+04  0.00000000000E+00 0. -1.
         -2   -1    0    0    0  501 -0.00000000000E+00 -0.00000000000E+00 -0.34615650863E+03  0.34615650863E+03  0.00000000000E+00 0.  1.
         23    2    1    2    0    0 -0.98026132786E+02  0.32971844253E+03  0.74034527430E+02  0.36314053028E+03  0.89814026901E+02 0.  0.
        254    2    1    2    0    0  0.98026132786E+02 -0.32971844253E+03  0.85233416253E+03  0.12555411769E+04  0.85532844470E+03 0.  0.
        -24    2    4    4    0    0 -0.37273295888E+02  0.63952991069E+02 -0.13895652216E+03  0.17701285385E+03  0.80903348045E+02 0.  0.
         24    2    4    4    0    0  0.13529942867E+03 -0.39367143359E+03  0.99129068469E+03  0.10785283231E+04  0.85340430720E+02 0.  0.
         13    1    3    3    0    0 -0.11333470414E+03  0.31166804486E+03  0.65941478992E+02  0.33812720091E+03  0.00000000000E+00 0.  1.
        -13    1    3    3    0    0  0.15308571351E+02  0.18050397669E+02  0.80930484383E+01  0.25013329364E+02  0.00000000000E+00 0. -1.
          4    1    6    6  502    0  0.11929954711E+03 -0.27940615509E+03  0.79164803496E+03  0.84794268244E+03  0.00000000000E+00 0. -1.
          3    1    5    5  503    0 -0.36932549167E+02  0.74922413919E+02 -0.14275648203E+03  0.16539889497E+03  0.00000000000E+00 0. -1.
         -4    1    5    5    0  503 -0.34074672107E+00 -0.10969422850E+02  0.37999598677E+01  0.11613958885E+02  0.00000000000E+00 0.  1.
         -3    1    6    6    0  502  0.15999881559E+02 -0.11426527850E+03  0.19964264973E+03  0.23058564064E+03  0.00000000000E+00 0.  1.
<mgrwt>
<rscale>  0 0.13273928E+04</rscale>
<asrwt>0</asrwt>
<pdfrwt beam="1">  1        2 0.19577310E+00 0.13273928E+04</pdfrwt>
<pdfrwt beam="2">  1       -2 0.53254848E-01 0.13273928E+04</pdfrwt>
<totfact> 0.55780447E+01</totfact>
</mgrwt>
</event>
<event>
12    1  0.1397649E-007  0.1343011E+04  0.7818608E-02  0.8996136E-01
          2   -1    0    0  501    0  0.00000000000E+00  0.00000000000E+00  0.56809240555E+03  0.56809240555E+03  0.00000000000E+00 0.  1.
         -2   -1    0    0    0  501 -0.00000000000E+00 -0.00000000000E+00 -0.79374315692E+03  0.79374315692E+03  0.00000000000E+00 0. -1.
         23    2    1    2    0    0  0.14826173286E+03  0.21350877052E+02  0.28607606916E+03  0.33589424033E+03  0.92455513421E+02 0.  0.
        254    2    1    2    0    0 -0.14826173286E+03 -0.21350877052E+02 -0.51172682053E+03  0.10259413221E+04  0.87650091628E+03 0.  0.
        -24    2    4    4    0    0 -0.16009356064E+03  0.23600878074E+02 -0.74907158564E+03  0.77110331197E+03  0.85470039831E+02 0.  0.
         24    2    4    4    0    0  0.11831827774E+02 -0.44951755126E+02  0.23734476512E+03  0.25483801017E+03  0.80307044908E+02 0.  0.
         13    1    3    3    0    0  0.28331066618E+02 -0.12354633322E+01  0.41141595007E+01  0.28654877661E+02  0.00000000000E+00 0. -1.
        -13    1    3    3    0    0  0.11993066624E+03  0.22586340384E+02  0.28196190966E+03  0.30723936267E+03  0.00000000000E+00 0.  1.
          4    1    6    6  502    0  0.10959956775E+02 -0.19862743747E+02  0.22626179422E+03  0.22739623736E+03  0.00000000000E+00 0. -1.
          3    1    5    5  503    0 -0.15583824245E+03  0.33989430057E+02 -0.57623974112E+03  0.59790724900E+03  0.00000000000E+00 0. -1.
         -4    1    5    5    0  503 -0.42553181844E+01 -0.10388551983E+02 -0.17283184452E+03  0.17319606296E+03  0.00000000000E+00 0.  1.
         -3    1    6    6    0  502  0.87187099875E+00 -0.25089011379E+02  0.11082970894E+02  0.27441772808E+02  0.00000000000E+00 0.  1.
<mgrwt>
<rscale>  0 0.13430107E+04</rscale>
<asrwt>0</asrwt>
<pdfrwt beam="1">  1        2 0.87398832E-01 0.13430107E+04</pdfrwt>
<pdfrwt beam="2">  1       -2 0.12211433E+00 0.13430107E+04</pdfrwt>
<totfact> 0.26308182E+01</totfact>
</mgrwt>
</event>
<event>
12    1  0.1397649E-007  0.1603172E+04  0.7818608E-02  0.8818602E-01
         -2   -1    0    0    0  501 -0.00000000000E+00  0.00000000000E+00  0.25436255848E+03  0.25436255848E+03  0.00000000000E+00 0.  1.
          2   -1    0    0  501    0  0.00000000000E+00 -0.00000000000E+00 -0.25260797811E+04  0.25260797811E+04  0.00000000000E+00 0. -1.
         23    2    1    2    0    0 -0.35088295022E+03  0.40772075127E+03 -0.88106112584E+03  0.10361951260E+04  0.89869771707E+02 0.  0.
        254    2    1    2    0    0  0.35088295022E+03 -0.40772075127E+03 -0.13906560968E+04  0.17442472136E+04  0.90505188076E+03 0.  0.
        -24    2    4    4    0    0  0.26441939848E+03  0.25356474365E+03 -0.59292888623E+03  0.70142216718E+03  0.78839678899E+02 0.  0.
         24    2    4    4    0    0  0.86463551742E+02 -0.66128549492E+03 -0.79772721057E+03  0.10428250464E+04  0.79629915393E+02 0.  0.
         11    1    3    3    0    0 -0.83811420196E+02  0.68926605337E+02 -0.24123554890E+03  0.26451809226E+03  0.00000000000E+00 0.  1.
        -11    1    3    3    0    0 -0.26707153003E+03  0.33879414593E+03 -0.63982557694E+03  0.77167703373E+03  0.00000000000E+00 0. -1.
          4    1    6    6  502    0 -0.14950867256E+02 -0.10568310864E+03 -0.11929689970E+03  0.16007560140E+03  0.00000000000E+00 0. -1.
          1    1    5    5  503    0  0.62115189653E+02  0.35776688297E+02 -0.16987447903E+03  0.18437897613E+03  0.00000000000E+00 0. -1.
         -2    1    5    5    0  503  0.20230420883E+03  0.21778805535E+03 -0.42305440720E+03  0.51704319105E+03  0.00000000000E+00 0.  1.
         -3    1    6    6    0  502  0.10141441900E+03 -0.55560238628E+03 -0.67843031087E+03  0.88274944504E+03  0.00000000000E+00 0.  1.
<mgrwt>
<rscale>  0 0.16031720E+04</rscale>
<asrwt>0</asrwt>
<pdfrwt beam="1">  1        2 0.38862766E+00 0.16031720E+04</pdfrwt>
<pdfrwt beam="2">  1       -2 0.39132701E-01 0.16031720E+04</pdfrwt>
<totfact> 0.19942011E+01</totfact>
</mgrwt>
</event>
<event>
12    1  0.1397649E-007  0.2353884E+04  0.7818608E-02  0.8456973E-01
         -1   -1    0    0    0  501 -0.00000000000E+00  0.00000000000E+00  0.10624719459E+04  0.10624719459E+04  0.00000000000E+00 0.  1.
          1   -1    0    0  501    0  0.00000000000E+00 -0.00000000000E+00 -0.13037454593E+04  0.13037454593E+04  0.00000000000E+00 0. -1.
         23    2    1    2    0    0 -0.22602552115E+03 -0.90551668893E+03  0.27907393403E+03  0.97837252487E+03  0.91008387632E+02 0.  0.
        254    2    1    2    0    0  0.22602552115E+03  0.90551668893E+03 -0.52034744750E+03  0.13878448803E+04  0.88560935830E+03 0.  0.
        -24    2    4    4    0    0  0.42439620928E+03  0.16499379834E+03 -0.39294181421E+03  0.60668653789E+03  0.79562490950E+02 0.  0.
         24    2    4    4    0    0 -0.19837068813E+03  0.74052289060E+03 -0.12740563330E+03  0.78115834241E+03  0.79063766184E+02 0.  0.
         11    1    3    3    0    0 -0.45189003154E+01 -0.41562440159E+02 -0.55186796772E+01  0.42170045263E+02  0.00000000000E+00 0.  1.
        -11    1    3    3    0    0 -0.22150662083E+03 -0.86395424877E+03  0.28459261371E+03  0.93620247961E+03  0.00000000000E+00 0. -1.
          2    1    6    6  502    0 -0.39480241658E+02  0.66797176366E+02 -0.15887191291E+01  0.77608480724E+02  0.00000000000E+00 0. -1.
          1    1    5    5  503    0  0.13154611663E+03  0.90806268718E+02 -0.12574625642E+03  0.20337718713E+03  0.00000000000E+00 0. -1.
         -2    1    5    5    0  503  0.29285009264E+03  0.74187529619E+02 -0.26719555778E+03  0.40330935076E+03  0.00000000000E+00 0.  1.
         -1    1    6    6    0  502 -0.15889044647E+03  0.67372571423E+03 -0.12581691417E+03  0.70354986169E+03  0.00000000000E+00 0.  1.
<mgrwt>
<rscale>  0 0.23538844E+04</rscale>
<asrwt>0</asrwt>
<pdfrwt beam="1">  1        1 0.20057622E+00 0.23538844E+04</pdfrwt>
<pdfrwt beam="2">  1       -1 0.16345722E+00 0.23538844E+04</pdfrwt>
<totfact> 0.22261049E+00</totfact>
</mgrwt>
</event>
<event>
12    1  0.1397649E-007  0.1477914E+04  0.7818608E-02  0.8899274E-01
         -2   -1    0    0    0  501 -0.00000000000E+00  0.00000000000E+00  0.14871847190E+03  0.14871847190E+03  0.00000000000E+00 0.  1.
          2   -1    0    0  501    0  0.00000000000E+00 -0.00000000000E+00 -0.36717547630E+04  0.36717547630E+04  0.00000000000E+00 0. -1.
         23    2    1    2    0    0 -0.31041077397E+03 -0.78714938530E+02 -0.26512312947E+03  0.42511982824E+03  0.88801488949E+02 0.  0.
        254    2    1    2    0    0  0.31041077397E+03  0.78714938530E+02 -0.32579131616E+04  0.33953534066E+04  0.90104145146E+03 0.  0.
        -24    2    4    4    0    0  0.30678886588E+03  0.43721732456E+03 -0.24326968719E+04  0.24919578437E+04  0.81002635892E+02 0.  0.
         24    2    4    4    0    0  0.36219080850E+01 -0.35850238603E+03 -0.82521628972E+03  0.90339556297E+03  0.81268317076E+02 0.  0.
         13    1    3    3    0    0 -0.23270184998E+03 -0.23592849207E+02 -0.21387395220E+03  0.31693665131E+03  0.00000000000E+00 0. -1.
        -13    1    3    3    0    0 -0.77708923987E+02 -0.55122089323E+02 -0.51249177275E+02  0.10818317693E+03  0.00000000000E+00 0.  1.
          4    1    6    6  502    0  0.80849115271E+01 -0.52293142894E+02 -0.20463800840E+03  0.21136852431E+03  0.00000000000E+00 0. -1.
          1    1    5    5  503    0  0.10131687885E+03  0.95301294052E+02 -0.53479914113E+03  0.55259168284E+03  0.00000000000E+00 0. -1.
         -2    1    5    5    0  503  0.20547198703E+03  0.34191603051E+03 -0.18978977308E+04  0.19393661608E+04  0.00000000000E+00 0.  1.
         -3    1    6    6    0  502 -0.44630034421E+01 -0.30620924314E+03 -0.62057828132E+03  0.69202703865E+03  0.00000000000E+00 0.  1.
<mgrwt>
<rscale>  0 0.14779144E+04</rscale>
<asrwt>0</asrwt>
<pdfrwt beam="1">  1        2 0.56488538E+00 0.14779144E+04</pdfrwt>
<pdfrwt beam="2">  1       -2 0.22879764E-01 0.14779144E+04</pdfrwt>
<totfact> 0.10155591E+01</totfact>
</mgrwt>
</event>
<event>
12    1  0.1397649E-007  0.1841774E+04  0.7818608E-02  0.8684395E-01
          1   -1    0    0  501    0  0.00000000000E+00  0.00000000000E+00  0.16848339517E+04  0.16848339517E+04  0.00000000000E+00 0. -1.
         -1   -1    0    0    0  501 -0.00000000000E+00 -0.00000000000E+00 -0.50333318164E+03  0.50333318164E+03  0.00000000000E+00 0.  1.
         23    2    1    2    0    0  0.11929567158E+03 -0.55551379563E+03  0.93022902691E+03  0.10938729870E+04  0.91678976815E+02 0.  0.
        254    2    1    2    0    0 -0.11929567158E+03  0.55551379563E+03  0.25127174320E+03  0.10942941464E+04  0.90084135979E+03 0.  0.
        -24    2    4    4    0    0 -0.28594849257E+03 -0.13783738883E+03 -0.20393807321E+02  0.32704051134E+03  0.75986199508E+02 0.  0.
         24    2    4    4    0    0  0.16665282099E+03  0.69335118446E+03  0.27166555052E+03  0.76725363506E+03  0.79793116411E+02 0.  0.
         11    1    3    3    0    0  0.51684510255E+02 -0.33478506872E+03  0.62830639926E+03  0.71380758065E+03  0.00000000000E+00 0. -1.
        -11    1    3    3    0    0  0.67611161327E+02 -0.22072872691E+03  0.30192262764E+03  0.38006540634E+03  0.00000000000E+00 0.  1.
          2    1    6    6  502    0  0.34107908539E+02  0.51171812756E+02  0.29980722647E+02  0.68415989184E+02  0.00000000000E+00 0. -1.
          3    1    5    5  503    0 -0.10079965146E+03 -0.99213166106E+01 -0.30208044427E+01  0.10133176953E+03  0.00000000000E+00 0. -1.
         -4    1    5    5    0  503 -0.18514884111E+03 -0.12791607222E+03 -0.17373002878E+02  0.22570874180E+03  0.00000000000E+00 0.  1.
         -1    1    6    6    0  502  0.13254491245E+03  0.64217937171E+03  0.24168482788E+03  0.69883764587E+03  0.00000000000E+00 0.  1.
<mgrwt>
<rscale>  0 0.18417740E+04</rscale>
<asrwt>0</asrwt>
<pdfrwt beam="1">  1        1 0.25920522E+00 0.18417740E+04</pdfrwt>
<pdfrwt beam="2">  1       -1 0.77435875E-01 0.18417740E+04</pdfrwt>
<totfact> 0.76710374E+00</totfact>
</mgrwt>
</event>
<event>
12    1  0.1397649E-007  0.2370530E+04  0.7818608E-02  0.8450620E-01
         -2   -1    0    0    0  501 -0.00000000000E+00  0.00000000000E+00  0.77127090007E+03  0.77127090007E+03  0.00000000000E+00 0.  1.
          2   -1    0    0  501    0  0.00000000000E+00 -0.00000000000E+00 -0.18214782719E+04  0.18214782719E+04  0.00000000000E+00 0. -1.
         23    2    1    2    0    0 -0.32624324437E+03  0.51053053281E+03  0.43940872878E+03  0.75424151269E+03  0.93403153662E+02 0.  0.
        254    2    1    2    0    0  0.32624324437E+03 -0.51053053281E+03 -0.14896161006E+04  0.18385076592E+04  0.89111065899E+03 0.  0.
        -24    2    4    4    0    0  0.53075576247E+03 -0.55139291240E+03 -0.13984870529E+04  0.15961710888E+04  0.79121958801E+02 0.  0.
         24    2    4    4    0    0 -0.20451251811E+03  0.40862379587E+02 -0.91129047629E+02  0.24233657040E+03  0.83231039298E+02 0.  0.
         11    1    3    3    0    0 -0.97314682709E+02  0.22904089868E+03  0.20342988358E+03  0.32142432744E+03  0.00000000000E+00 0. -1.
        -11    1    3    3    0    0 -0.22892856166E+03  0.28148963413E+03  0.23597884520E+03  0.43281718525E+03  0.00000000000E+00 0.  1.
          2    1    6    6  502    0 -0.15879964178E+03  0.53676535067E+02 -0.98300334413E+02  0.19432306192E+03  0.00000000000E+00 0. -1.
          1    1    5    5  503    0  0.26987443287E+03 -0.32085629430E+03 -0.70639320494E+03  0.82144526969E+03  0.00000000000E+00 0. -1.
         -2    1    5    5    0  503  0.26088132960E+03 -0.23053661810E+03 -0.69209384799E+03  0.77472581915E+03  0.00000000000E+00 0.  1.
         -1    1    6    6    0  502 -0.45712876327E+02 -0.12814155480E+02  0.71712867837E+01  0.48013508483E+02  0.00000000000E+00 0.  1.
<mgrwt>
<rscale>  0 0.23705301E+04</rscale>
<asrwt>0</asrwt>
<pdfrwt beam="1">  1        2 0.28022742E+00 0.23705301E+04</pdfrwt>
<pdfrwt beam="2">  1       -2 0.11865706E+00 0.23705301E+04</pdfrwt>
<totfact> 0.41325253E+00</totfact>
</mgrwt>
</event>
<event>
12    1  0.1397649E-007  0.2782665E+04  0.7818608E-02  0.8308670E-01
         -1   -1    0    0    0  501 -0.00000000000E+00  0.00000000000E+00  0.97049072242E+03  0.97049072242E+03  0.00000000000E+00 0.  1.
          1   -1    0    0  501    0  0.00000000000E+00 -0.00000000000E+00 -0.19946674694E+04  0.19946674694E+04  0.00000000000E+00 0. -1.
         23    2    1    2    0    0  0.47260667788E+03  0.11377261986E+04 -0.61832953727E+03  0.13814721298E+04  0.91410359590E+02 0.  0.
        254    2    1    2    0    0 -0.47260667788E+03 -0.11377261986E+04 -0.40584720968E+03  0.15836860619E+04  0.90860971278E+03 0.  0.
        -24    2    4    4    0    0 -0.11685495705E+03 -0.11403924498E+04 -0.40660340472E+03  0.12189569334E+04  0.79872750748E+02 0.  0.
         24    2    4    4    0    0 -0.35575172083E+03  0.26662511490E+01  0.75619503848E+00  0.36472912852E+03  0.80376424338E+02 0.  0.
         11    1    3    3    0    0  0.76585278936E+02  0.13479215021E+03 -0.52076164018E+02  0.16354251914E+03  0.00000000000E+00 0.  1.
        -11    1    3    3    0    0  0.39602139895E+03  0.10029340484E+04 -0.56625337325E+03  0.12179296107E+04  0.00000000000E+00 0. -1.
          2    1    6    6  502    0 -0.11262495959E+02  0.95249193436E+01 -0.13333867632E+02  0.19883659868E+02  0.00000000000E+00 0. -1.
          3    1    5    5  503    0 -0.25801342414E+02 -0.16932996880E+03 -0.32452356816E+02  0.17433158941E+03  0.00000000000E+00 0. -1.
         -4    1    5    5    0  503 -0.91053614638E+02 -0.97106248098E+03 -0.37415104790E+03  0.10446253440E+04  0.00000000000E+00 0.  1.
         -1    1    6    6    0  502 -0.34448922487E+03 -0.68586681947E+01  0.14090062671E+02  0.34484546865E+03  0.00000000000E+00 0.  1.
<mgrwt>
<rscale>  0 0.27826651E+04</rscale>
<asrwt>0</asrwt>
<pdfrwt beam="1">  1        1 0.30687192E+00 0.27826651E+04</pdfrwt>
<pdfrwt beam="2">  1       -1 0.14930626E+00 0.27826651E+04</pdfrwt>
<totfact> 0.92033978E-01</totfact>
</mgrwt>
</event>
<event>
12    1  0.1397649E-007  0.1886995E+04  0.7818608E-02  0.8661357E-01
         -2   -1    0    0    0  501 -0.00000000000E+00  0.00000000000E+00  0.92566212235E+03  0.92566212235E+03  0.00000000000E+00 0.  1.
          2   -1    0    0  501    0  0.00000000000E+00 -0.00000000000E+00 -0.96167617742E+03  0.96167617742E+03  0.00000000000E+00 0. -1.
         23    2    1    2    0    0  0.52567775663E+03 -0.30148894030E+03 -0.42201197209E+03  0.74393397493E+03  0.90060921215E+02 0.  0.
        254    2    1    2    0    0 -0.52567775663E+03  0.30148894030E+03  0.38599791702E+03  0.11434043248E+04  0.88946409324E+03 0.  0.
        -24    2    4    4    0    0  0.18636790130E+03  0.42934922234E+02 -0.10980898014E+03  0.23447650025E+03  0.79654346205E+02 0.  0.
         24    2    4    4    0    0 -0.71204565793E+03  0.25855401807E+03  0.49580689716E+03  0.90892782458E+03  0.80412137063E+02 0.  0.
         11    1    3    3    0    0  0.15608803103E+03 -0.13385349544E+03 -0.16418892590E+03  0.26313159267E+03  0.00000000000E+00 0. -1.
        -11    1    3    3    0    0  0.36958972560E+03 -0.16763544486E+03 -0.25782304619E+03  0.48080238226E+03  0.00000000000E+00 0.  1.
          4    1    6    6  502    0 -0.15083972319E+03  0.59144719033E+02  0.68452674858E+02  0.17588771582E+03  0.00000000000E+00 0. -1.
          1    1    5    5  503    0  0.99746031897E+02  0.48757632207E+02 -0.95582666109E+02  0.14650127521E+03  0.00000000000E+00 0. -1.
         -2    1    5    5    0  503  0.86621869403E+02 -0.58227099725E+01 -0.14226314027E+02  0.87975225042E+02  0.00000000000E+00 0.  1.
         -3    1    6    6    0  502 -0.56120593474E+03  0.19940929904E+03  0.42735422230E+03  0.73304010876E+03  0.00000000000E+00 0.  1.
<mgrwt>
<rscale>  0 0.18869947E+04</rscale>
<asrwt>0</asrwt>
<pdfrwt beam="1">  1        2 0.14795018E+00 0.18869947E+04</pdfrwt>
<pdfrwt beam="2">  1       -2 0.14240956E+00 0.18869947E+04</pdfrwt>
<totfact> 0.85900763E+00</totfact>
</mgrwt>
</event>
<event>
12    1  0.1397649E-007  0.1704482E+04  0.7818608E-02  0.8758812E-01
         -2   -1    0    0    0  501 -0.00000000000E+00  0.00000000000E+00  0.71745293691E+03  0.71745293691E+03  0.00000000000E+00 0.  1.
          2   -1    0    0  501    0  0.00000000000E+00 -0.00000000000E+00 -0.10123519434E+04  0.10123519434E+04  0.00000000000E+00 0. -1.
         23    2    1    2    0    0  0.33897601411E+03  0.10129442245E+03  0.36998241875E+03  0.52016079962E+03  0.92276590304E+02 0.  0.
        254    2    1    2    0    0 -0.33897601411E+03 -0.10129442245E+03 -0.66488142521E+03  0.12096440807E+04  0.94657603716E+03 0.  0.
        -24    2    4    4    0    0 -0.80891756258E+02 -0.33298389833E+03 -0.76308822725E+03  0.84038780057E+03  0.80785270884E+02 0.  0.
         24    2    4    4    0    0 -0.25808425786E+03  0.23168947588E+03  0.98206802042E+02  0.36925628009E+03  0.80113213866E+02 0.  0.
         11    1    3    3    0    0  0.16628758853E+03  0.15254419019E+02  0.21770251196E+03  0.27436953751E+03  0.00000000000E+00 0.  1.
        -11    1    3    3    0    0  0.17268842558E+03  0.86040003429E+02  0.15227990679E+03  0.24579126211E+03  0.00000000000E+00 0. -1.
          2    1    6    6  502    0 -0.74443702911E+01 -0.59095623379E+01 -0.18730253460E+01  0.96876106447E+01  0.00000000000E+00 0. -1.
          1    1    5    5  503    0  0.86165122095E+01 -0.12456130060E+02 -0.68992907956E+02  0.70635832315E+02  0.00000000000E+00 0. -1.
         -2    1    5    5    0  503 -0.89508268468E+02 -0.32052776827E+03 -0.69409531930E+03  0.76975196825E+03  0.00000000000E+00 0.  1.
         -1    1    6    6    0  502 -0.25063988756E+03  0.23759903822E+03  0.10007982739E+03  0.35956866945E+03  0.00000000000E+00 0.  1.
<mgrwt>
<rscale>  0 0.17044822E+04</rscale>
<asrwt>0</asrwt>
<pdfrwt beam="1">  1        2 0.15574645E+00 0.17044822E+04</pdfrwt>
<pdfrwt beam="2">  1       -2 0.11037738E+00 0.17044822E+04</pdfrwt>
<totfact> 0.15331437E+01</totfact>
</mgrwt>
</event>
<event>
12    1  0.1397649E-007  0.1374806E+04  0.7818608E-02  0.8972260E-01
         -2   -1    0    0    0  501 -0.00000000000E+00  0.00000000000E+00  0.16571490852E+03  0.16571490852E+03  0.00000000000E+00 0.  1.
          2   -1    0    0  501    0  0.00000000000E+00 -0.00000000000E+00 -0.28514188222E+04  0.28514188222E+04  0.00000000000E+00 0. -1.
         23    2    1    2    0    0 -0.23020989496E+03  0.17442288888E+03 -0.21006620587E+03  0.36620174613E+03  0.80968933040E+02 0.  0.
        254    2    1    2    0    0  0.23020989496E+03 -0.17442288888E+03 -0.24756377078E+04  0.26509319846E+04  0.90290552479E+03 0.  0.
        -24    2    4    4    0    0 -0.90301956631E+02  0.13369787160E+03 -0.19463656775E+04  0.19548502521E+04  0.84086820756E+02 0.  0.
         24    2    4    4    0    0  0.32051185159E+03 -0.30812076049E+03 -0.52927203038E+03  0.69608173253E+03  0.82064890057E+02 0.  0.
         11    1    3    3    0    0 -0.83364374240E+02  0.11384133521E+03 -0.97513276654E+02  0.17151765979E+03  0.00000000000E+00 0.  1.
        -11    1    3    3    0    0 -0.14684552072E+03  0.60581553671E+02 -0.11255292922E+03  0.19468408634E+03  0.00000000000E+00 0. -1.
          4    1    6    6  502    0  0.53632144199E+02 -0.26535638010E+02 -0.10737155981E+03  0.12291948109E+03  0.00000000000E+00 0. -1.
          1    1    5    5  503    0  0.56957690162E+01 -0.69975030503E+01 -0.19858862285E+03  0.19879348068E+03  0.00000000000E+00 0. -1.
         -2    1    5    5    0  503 -0.95997725647E+02  0.14069537466E+03 -0.17477770546E+04  0.17560567714E+04  0.00000000000E+00 0.  1.
         -3    1    6    6    0  502  0.26687970739E+03 -0.28158512248E+03 -0.42190047057E+03  0.57316225145E+03  0.00000000000E+00 0.  1.
<mgrwt>
<rscale>  0 0.13748056E+04</rscale>
<asrwt>0</asrwt>
<pdfrwt beam="1">  1        2 0.43867984E+00 0.13748056E+04</pdfrwt>
<pdfrwt beam="2">  1       -2 0.25494600E-01 0.13748056E+04</pdfrwt>
<totfact> 0.29270725E+01</totfact>
</mgrwt>
</event>
<event>
12    1  0.1397649E-007  0.1727766E+04  0.7818608E-02  0.8745685E-01
          1   -1    0    0  501    0  0.00000000000E+00  0.00000000000E+00  0.14592128640E+04  0.14592128640E+04  0.00000000000E+00 0. -1.
         -1   -1    0    0    0  501 -0.00000000000E+00 -0.00000000000E+00 -0.51143597311E+03  0.51143597311E+03  0.00000000000E+00 0.  1.
         23    2    1    2    0    0  0.26812997167E+03 -0.34246856809E+03 -0.16333403288E+03  0.47330287154E+03  0.90328290521E+02 0.  0.
        254    2    1    2    0    0 -0.26812997167E+03  0.34246856809E+03  0.11111109237E+04  0.14973459655E+04  0.90459883585E+03 0.  0.
        -24    2    4    4    0    0 -0.22692262109E+03 -0.26291515864E+03  0.60795205132E+03  0.70472868697E+03  0.80115971684E+02 0.  0.
         24    2    4    4    0    0 -0.41207350577E+02  0.60538372674E+03  0.50315887241E+03  0.79261727857E+03  0.82980702928E+02 0.  0.
         13    1    3    3    0    0  0.17454308378E+03 -0.22792033319E+03 -0.15229854204E+03  0.32497355628E+03  0.00000000000E+00 0. -1.
        -13    1    3    3    0    0  0.93586887894E+02 -0.11454823491E+03 -0.11035490836E+02  0.14832931525E+03  0.00000000000E+00 0.  1.
          4    1    6    6  502    0 -0.30835240279E+02  0.65583732098E+02  0.63219721304E+02  0.96170531457E+02  0.00000000000E+00 0. -1.
          1    1    5    5  503    0 -0.81487726480E+02 -0.15568343051E+03  0.29721678236E+03  0.34527582571E+03  0.00000000000E+00 0. -1.
         -2    1    5    5    0  503 -0.14543489461E+03 -0.10723172813E+03  0.31073526896E+03  0.35945286126E+03  0.00000000000E+00 0.  1.
         -3    1    6    6    0  502 -0.10372110298E+02  0.53979999464E+03  0.43993915111E+03  0.69644674711E+03  0.00000000000E+00 0.  1.
<mgrwt>
<rscale>  0 0.17277661E+04</rscale>
<asrwt>0</asrwt>
<pdfrwt beam="1">  1        1 0.22449429E+00 0.17277661E+04</pdfrwt>
<pdfrwt beam="2">  1       -1 0.78682458E-01 0.17277661E+04</pdfrwt>
<totfact> 0.10713718E+01</totfact>
</mgrwt>
</event>
<event>
12    1  0.1397649E-007  0.1764809E+04  0.7818608E-02  0.8725241E-01
          1   -1    0    0  501    0  0.00000000000E+00  0.00000000000E+00  0.40341239048E+03  0.40341239048E+03  0.00000000000E+00 0. -1.
         -1   -1    0    0    0  501 -0.00000000000E+00 -0.00000000000E+00 -0.19301279495E+04  0.19301279495E+04  0.00000000000E+00 0.  1.
         23    2    1    2    0    0  0.11388483127E+03  0.35233759902E+02 -0.14109363096E+04  0.14189487762E+04  0.91995581916E+02 0.  0.
        254    2    1    2    0    0 -0.11388483127E+03 -0.35233759902E+02 -0.11577924946E+03  0.91459156381E+03  0.89936740066E+03 0.  0.
        -24    2    4    4    0    0 -0.17927747905E+03  0.36140489822E+03  0.13739865404E+03  0.43340899153E+03  0.78810207812E+02 0.  0.
         24    2    4    4    0    0  0.65392647782E+02 -0.39663865812E+03 -0.25317790350E+03  0.48118257228E+03  0.76414616035E+02 0.  0.
         13    1    3    3    0    0  0.12519504195E+03  0.43477477010E+02 -0.11449908209E+04  0.11526352717E+04  0.00000000000E+00 0.  1.
        -13    1    3    3    0    0 -0.11310210678E+02 -0.82437171082E+01 -0.26594548867E+03  0.26631350450E+03  0.00000000000E+00 0. -1.
          2    1    6    6  502    0  0.31082085366E+02 -0.25741512547E+03 -0.12085338007E+03  0.28606674452E+03  0.00000000000E+00 0. -1.
          3    1    5    5  503    0 -0.16365567909E+02  0.36338374060E+02 -0.99588851590E+01  0.41079053494E+02  0.00000000000E+00 0. -1.
         -4    1    5    5    0  503 -0.16291191114E+03  0.32506652416E+03  0.14735753920E+03  0.39232993804E+03  0.00000000000E+00 0.  1.
         -1    1    6    6    0  502  0.34310562415E+02 -0.13922353266E+03 -0.13232452343E+03  0.19511582775E+03  0.00000000000E+00 0.  1.
<mgrwt>
<rscale>  0 0.17648088E+04</rscale>
<asrwt>0</asrwt>
<pdfrwt beam="1">  1        1 0.62063445E-01 0.17648088E+04</pdfrwt>
<pdfrwt beam="2">  1       -1 0.29694276E+00 0.17648088E+04</pdfrwt>
<totfact> 0.19429969E+00</totfact>
</mgrwt>
</event>
<event>
12    1  0.1397649E-007  0.2274602E+04  0.7818608E-02  0.8488003E-01
         -1   -1    0    0    0  501 -0.00000000000E+00  0.00000000000E+00  0.33347829439E+03  0.33347829439E+03  0.00000000000E+00 0.  1.
          1   -1    0    0  501    0  0.00000000000E+00 -0.00000000000E+00 -0.38786743690E+04  0.38786743690E+04  0.00000000000E+00 0. -1.
         23    2    1    2    0    0 -0.46395987389E+03  0.16462349324E+03 -0.30273229244E+04  0.30683671752E+04  0.88506351365E+02 0.  0.
        254    2    1    2    0    0  0.46395987389E+03 -0.16462349324E+03 -0.51787315019E+03  0.11437854882E+04  0.89313659882E+03 0.  0.
        -24    2    4    4    0    0  0.61419036524E+03  0.75653462902E+02 -0.56924428975E+03  0.84484009726E+03  0.82234283210E+02 0.  0.
         24    2    4    4    0    0 -0.15023049135E+03 -0.24027695614E+03  0.51371139559E+02  0.29894539090E+03  0.80169424206E+02 0.  0.
         13    1    3    3    0    0 -0.29003272393E+03  0.14755982826E+03 -0.19822646023E+04  0.20087971121E+04  0.00000000000E+00 0. -1.
        -13    1    3    3    0    0 -0.17392714996E+03  0.17063664981E+02 -0.10450583221E+04  0.10595700631E+04  0.00000000000E+00 0.  1.
          2    1    6    6  502    0 -0.12561123677E+03 -0.22347614045E+03  0.67444364353E+02  0.26508208245E+03  0.00000000000E+00 0. -1.
          3    1    5    5  503    0  0.56650280908E+03  0.52410951429E+02 -0.53935621879E+03  0.78394991630E+03  0.00000000000E+00 0. -1.
         -4    1    5    5    0  503  0.47687556154E+02  0.23242511473E+02 -0.29888070959E+02  0.60890180958E+02  0.00000000000E+00 0.  1.
         -1    1    6    6    0  502 -0.24619254576E+02 -0.16800815690E+02 -0.16073224794E+02  0.33863308447E+02  0.00000000000E+00 0.  1.
<mgrwt>
<rscale>  0 0.22746021E+04</rscale>
<asrwt>0</asrwt>
<pdfrwt beam="1">  1        1 0.59671914E+00 0.22746021E+04</pdfrwt>
<pdfrwt beam="2">  1       -1 0.51304353E-01 0.22746021E+04</pdfrwt>
<totfact> 0.42489719E-01</totfact>
</mgrwt>
</event>
<event>
12    1  0.1397649E-007  0.2864429E+04  0.7818608E-02  0.8283540E-01
         -1   -1    0    0    0  501 -0.00000000000E+00  0.00000000000E+00  0.10503951378E+04  0.10503951378E+04  0.00000000000E+00 0.  1.
          1   -1    0    0  501    0  0.00000000000E+00 -0.00000000000E+00 -0.19528257399E+04  0.19528257399E+04  0.00000000000E+00 0. -1.
         23    2    1    2    0    0 -0.45681132307E+03 -0.25135611910E+03  0.82567943995E+03  0.98065417488E+03  0.89886537721E+02 0.  0.
        254    2    1    2    0    0  0.45681132307E+03  0.25135611910E+03 -0.17281100420E+04  0.20225667029E+04  0.91244466505E+03 0.  0.
        -24    2    4    4    0    0 -0.14448332134E+03 -0.20175474865E+03 -0.68898780837E+03  0.73667797237E+03  0.80061389843E+02 0.  0.
         24    2    4    4    0    0  0.60129464441E+03  0.45311086775E+03 -0.10391222336E+04  0.12858887305E+04  0.82886083966E+02 0.  0.
         13    1    3    3    0    0 -0.39249391929E+03 -0.24878532353E+03  0.72809530165E+03  0.86375250053E+03  0.00000000000E+00 0.  1.
        -13    1    3    3    0    0 -0.64317403784E+02 -0.25707955688E+01  0.97584138296E+02  0.11690167435E+03  0.00000000000E+00 0. -1.
          2    1    6    6  502    0  0.89143537981E+02  0.44110786062E+02 -0.17543668337E+03  0.20166894080E+03  0.00000000000E+00 0. -1.
          1    1    5    5  503    0 -0.58641500351E+02 -0.13031897541E+03 -0.30571490980E+03  0.33746624571E+03  0.00000000000E+00 0. -1.
         -2    1    5    5    0  503 -0.85841820988E+02 -0.71435773241E+02 -0.38327289857E+03  0.39921172666E+03  0.00000000000E+00 0.  1.
         -1    1    6    6    0  502  0.51215110643E+03  0.40900008169E+03 -0.86368555026E+03  0.10842197897E+04  0.00000000000E+00 0.  1.
<mgrwt>
<rscale>  0 0.28644292E+04</rscale>
<asrwt>0</asrwt>
<pdfrwt beam="1">  1        1 0.30043473E+00 0.28644292E+04</pdfrwt>
<pdfrwt beam="2">  1       -1 0.16159925E+00 0.28644292E+04</pdfrwt>
<totfact> 0.78495943E-01</totfact>
</mgrwt>
</event>
<event>
12    1  0.1397649E-007  0.2185359E+04  0.7818608E-02  0.8524547E-01
         -1   -1    0    0    0  501 -0.00000000000E+00  0.00000000000E+00  0.33345585932E+03  0.33345585932E+03  0.00000000000E+00 0.  1.
          1   -1    0    0  501    0  0.00000000000E+00 -0.00000000000E+00 -0.35805288638E+04  0.35805288638E+04  0.00000000000E+00 0. -1.
         23    2    1    2    0    0  0.15182827133E+03 -0.60060835625E+02  0.24530397864E+03  0.30883955636E+03  0.92459189303E+02 0.  0.
        254    2    1    2    0    0 -0.15182827133E+03  0.60060835625E+02 -0.34923769831E+04  0.36051451668E+04  0.87961102381E+03 0.  0.
        -24    2    4    4    0    0  0.30825327505E+03 -0.58578698887E+02 -0.22377882657E+04  0.22612948344E+04  0.85477835588E+02 0.  0.
         24    2    4    4    0    0 -0.46008154638E+03  0.11863953451E+03 -0.12545887174E+04  0.13438503324E+04  0.78679714423E+02 0.  0.
         11    1    3    3    0    0  0.14660776702E+02 -0.25164456067E+02  0.44281689408E+01  0.29458392740E+02  0.00000000000E+00 0. -1.
        -11    1    3    3    0    0  0.13716749463E+03 -0.34896379557E+02  0.24087580970E+03  0.27938116362E+03  0.00000000000E+00 0.  1.
          4    1    6    6  502    0 -0.13582751899E+03  0.72355624932E+02 -0.41756380678E+03  0.44502132994E+03  0.00000000000E+00 0. -1.
          1    1    5    5  503    0 -0.37949389287E+01 -0.83068615339E+01 -0.62476935158E+02  0.63140897497E+02  0.00000000000E+00 0. -1.
         -2    1    5    5    0  503  0.31204821398E+03 -0.50271837353E+02 -0.21753113306E+04  0.21981539369E+04  0.00000000000E+00 0.  1.
         -3    1    6    6    0  502 -0.32425402739E+03  0.46283909579E+02 -0.83702491063E+03  0.89882900241E+03  0.00000000000E+00 0.  1.
<mgrwt>
<rscale>  0 0.21853589E+04</rscale>
<asrwt>0</asrwt>
<pdfrwt beam="1">  1        1 0.55085061E+00 0.21853589E+04</pdfrwt>
<pdfrwt beam="2">  1       -1 0.51300900E-01 0.21853589E+04</pdfrwt>
<totfact> 0.75472687E-01</totfact>
</mgrwt>
</event>
<event>
12    1  0.1397649E-007  0.1489371E+04  0.7818608E-02  0.8891552E-01
          2   -1    0    0  501    0  0.00000000000E+00  0.00000000000E+00  0.65432108125E+03  0.65432108125E+03  0.00000000000E+00 0. -1.
         -2   -1    0    0    0  501 -0.00000000000E+00 -0.00000000000E+00 -0.84752944602E+03  0.84752944602E+03  0.00000000000E+00 0.  1.
         23    2    1    2    0    0  0.32293131577E+03  0.91350966760E+02  0.26947993456E+03  0.44042707001E+03  0.93418065909E+02 0.  0.
        254    2    1    2    0    0 -0.32293131577E+03 -0.91350966760E+02 -0.46268829934E+03  0.10614234573E+04  0.89437668767E+03 0.  0.
        -24    2    4    4    0    0 -0.25977656832E+03 -0.22703275280E+03 -0.69108863816E+03  0.77661095529E+03  0.80581224801E+02 0.  0.
         24    2    4    4    0    0 -0.63154747446E+02  0.13568178604E+03  0.22840033882E+03  0.28481250197E+03  0.80952932700E+02 0.  0.
         13    1    3    3    0    0  0.23131392644E+03  0.47906859227E+02  0.23531964241E+03  0.33343145297E+03  0.00000000000E+00 0. -1.
        -13    1    3    3    0    0  0.91617389327E+02  0.43444107533E+02  0.34160292149E+02  0.10699561704E+03  0.00000000000E+00 0.  1.
          4    1    6    6  502    0 -0.82191390480E+02  0.11597968106E+03  0.18209081295E+03  0.23100600695E+03  0.00000000000E+00 0. -1.
          1    1    5    5  503    0 -0.24527906585E+03 -0.21891069793E+03 -0.68326332387E+03  0.75824302408E+03  0.00000000000E+00 0. -1.
         -2    1    5    5    0  503 -0.14497502480E+02 -0.81220548658E+01 -0.78253142867E+01  0.18367931214E+02  0.00000000000E+00 0.  1.
         -3    1    6    6    0  502  0.19036643034E+02  0.19702104977E+02  0.46309525877E+02  0.53806495012E+02  0.00000000000E+00 0.  1.
<mgrwt>
<rscale>  0 0.14893709E+04</rscale>
<asrwt>0</asrwt>
<pdfrwt beam="1">  1        2 0.10066478E+00 0.14893709E+04</pdfrwt>
<pdfrwt beam="2">  1       -2 0.13038915E+00 0.14893709E+04</pdfrwt>
<totfact> 0.18579567E+01</totfact>
</mgrwt>
</event>
<event>
12    1  0.1397649E-007  0.1622888E+04  0.7818608E-02  0.8806609E-01
          1   -1    0    0  501    0  0.00000000000E+00  0.00000000000E+00  0.57822108061E+03  0.57822108061E+03  0.00000000000E+00 0. -1.
         -1   -1    0    0    0  501 -0.00000000000E+00 -0.00000000000E+00 -0.11387365633E+04  0.11387365633E+04  0.00000000000E+00 0.  1.
         23    2    1    2    0    0 -0.24102730359E+03 -0.16829957595E+02 -0.73438367716E+03  0.77846251916E+03  0.91143293309E+02 0.  0.
        254    2    1    2    0    0  0.24102730359E+03  0.16829957595E+02  0.17386819444E+03  0.93849512478E+03  0.89003682039E+03 0.  0.
        -24    2    4    4    0    0  0.14556919519E+02  0.41674435154E+03 -0.34450971890E+02  0.42644866225E+03  0.82364031127E+02 0.  0.
         24    2    4    4    0    0  0.22647038407E+03 -0.39991439395E+03  0.20831916633E+03  0.51204646253E+03  0.87030726627E+02 0.  0.
         11    1    3    3    0    0 -0.20838830574E+01  0.16400607063E+02 -0.59649697483E+02  0.61898375508E+02  0.00000000000E+00 0. -1.
        -11    1    3    3    0    0 -0.23894342054E+03 -0.33230564658E+02 -0.67473397967E+03  0.71656414366E+03  0.00000000000E+00 0.  1.
          2    1    6    6  502    0  0.15616801237E+03 -0.33072016164E+03  0.18840957768E+03  0.41141517032E+03  0.00000000000E+00 0. -1.
          1    1    5    5  503    0  0.13524094646E+02  0.41968686375E+03 -0.38122245477E+02  0.42163167616E+03  0.00000000000E+00 0. -1.
         -2    1    5    5    0  503  0.10328248724E+01 -0.29425122046E+01  0.36712735873E+01  0.48169860955E+01  0.00000000000E+00 0.  1.
         -1    1    6    6    0  502  0.70302371708E+02 -0.69194232305E+02  0.19909588647E+02  0.10063129221E+03  0.00000000000E+00 0.  1.
<mgrwt>
<rscale>  0 0.16228881E+04</rscale>
<asrwt>0</asrwt>
<pdfrwt beam="1">  1        1 0.88957089E-01 0.16228881E+04</pdfrwt>
<pdfrwt beam="2">  1       -1 0.17519024E+00 0.16228881E+04</pdfrwt>
<totfact> 0.77993212E+00</totfact>
</mgrwt>
</event>
<event>
12    1  0.1397649E-007  0.1485717E+04  0.7818608E-02  0.8894007E-01
         -1   -1    0    0    0  501 -0.00000000000E+00  0.00000000000E+00  0.30510101122E+03  0.30510101122E+03  0.00000000000E+00 0.  1.
          1   -1    0    0  501    0  0.00000000000E+00 -0.00000000000E+00 -0.18087091654E+04  0.18087091654E+04  0.00000000000E+00 0. -1.
         23    2    1    2    0    0  0.73213960409E+01  0.24055183679E+03  0.82104120222E+02  0.27072277157E+03  0.92902871164E+02 0.  0.
        254    2    1    2    0    0 -0.73213960409E+01 -0.24055183679E+03 -0.15857122744E+04  0.18430874051E+04  0.90805780456E+03 0.  0.
        -24    2    4    4    0    0 -0.29948345645E+03 -0.12887923667E+03 -0.14579418104E+04  0.14961654260E+04  0.81341632095E+02 0.  0.
         24    2    4    4    0    0  0.29216206040E+03 -0.11167260012E+03 -0.12777046403E+03  0.34692197907E+03  0.78740897421E+02 0.  0.
         13    1    3    3    0    0  0.32890144525E+01  0.12328147771E+01  0.24215538348E+02  0.24468954736E+02  0.00000000000E+00 0. -1.
        -13    1    3    3    0    0  0.40323815884E+01  0.23931902201E+03  0.57888581873E+02  0.24625381684E+03  0.00000000000E+00 0.  1.
          2    1    6    6  502    0  0.26995650266E+03 -0.11448092162E+03 -0.96965432624E+02  0.30884411904E+03  0.00000000000E+00 0. -1.
          3    1    5    5  503    0 -0.24175605938E+03 -0.11116417206E+03 -0.13026008403E+04  0.13295008140E+04  0.00000000000E+00 0. -1.
         -4    1    5    5    0  503 -0.57727397066E+02 -0.17715064612E+02 -0.15534097011E+03  0.16666461197E+03  0.00000000000E+00 0.  1.
         -1    1    6    6    0  502  0.22205557749E+02  0.28083215008E+01 -0.30805031409E+02  0.38077860033E+02  0.00000000000E+00 0.  1.
<mgrwt>
<rscale>  0 0.14857173E+04</rscale>
<asrwt>0</asrwt>
<pdfrwt beam="1">  1        1 0.27826295E+00 0.14857173E+04</pdfrwt>
<pdfrwt beam="2">  1       -1 0.46938617E-01 0.14857173E+04</pdfrwt>
<totfact> 0.17614349E+01</totfact>
</mgrwt>
</event>
<event>
12    1  0.1397649E-007  0.1827105E+04  0.7818608E-02  0.8692017E-01
          2   -1    0    0  501    0  0.00000000000E+00  0.00000000000E+00  0.13569371485E+04  0.13569371485E+04  0.00000000000E+00 0. -1.
         -2   -1    0    0    0  501 -0.00000000000E+00 -0.00000000000E+00 -0.61504534463E+03  0.61504534463E+03  0.00000000000E+00 0.  1.
         23    2    1    2    0    0 -0.19577121291E+03  0.64721213190E+03  0.58354523025E+03  0.89817206600E+03  0.94752904476E+02 0.  0.
        254    2    1    2    0    0  0.19577121291E+03 -0.64721213190E+03  0.15834657359E+03  0.10738104271E+04  0.81901482558E+03 0.  0.
        -24    2    4    4    0    0  0.16283655558E+03 -0.72926472296E+03  0.36591093865E+03  0.83583745240E+03  0.79941552592E+02 0.  0.
         24    2    4    4    0    0  0.32934657332E+02  0.82052591053E+02 -0.20756436506E+03  0.23797297471E+03  0.75702389002E+02 0.  0.
         11    1    3    3    0    0 -0.12926417178E+03  0.54630321576E+03  0.49348615594E+03  0.74745235016E+03  0.00000000000E+00 0. -1.
        -11    1    3    3    0    0 -0.66507041129E+02  0.10090891615E+03  0.90059074309E+02  0.15071971584E+03  0.00000000000E+00 0.  1.
          4    1    6    6  502    0 -0.12490063689E+02  0.57119757235E+02 -0.14738305048E+03  0.15855734586E+03  0.00000000000E+00 0. -1.
          1    1    5    5  503    0  0.15643233936E+03 -0.70712029188E+03  0.33679157605E+03  0.79869815931E+03  0.00000000000E+00 0. -1.
         -2    1    5    5    0  503  0.64042162169E+01 -0.22144431072E+02  0.29119362598E+02  0.37139293087E+02  0.00000000000E+00 0.  1.
         -3    1    6    6    0  502  0.45424721021E+02  0.24932833818E+02 -0.60181314580E+02  0.79415628856E+02  0.00000000000E+00 0.  1.
<mgrwt>
<rscale>  0 0.18271047E+04</rscale>
<asrwt>0</asrwt>
<pdfrwt beam="1">  1        2 0.20875956E+00 0.18271047E+04</pdfrwt>
<pdfrwt beam="2">  1       -2 0.94622361E-01 0.18271047E+04</pdfrwt>
<totfact> 0.13578028E+01</totfact>
</mgrwt>
</event>
<event>
12    1  0.1397649E-007  0.1537053E+04  0.7818608E-02  0.8860180E-01
          1   -1    0    0  501    0  0.00000000000E+00  0.00000000000E+00  0.14705207981E+04  0.14705207981E+04  0.00000000000E+00 0. -1.
         -1   -1    0    0    0  501 -0.00000000000E+00 -0.00000000000E+00 -0.40164887953E+03  0.40164887953E+03  0.00000000000E+00 0.  1.
         23    2    1    2    0    0  0.21389487898E+03 -0.46018923599E+03  0.44595098160E+03  0.67961257841E+03  0.73998828177E+02 0.  0.
        254    2    1    2    0    0 -0.21389487898E+03  0.46018923599E+03  0.62292093694E+03  0.11925570992E+04  0.88126998642E+03 0.  0.
        -24    2    4    4    0    0  0.12002385274E+03 -0.29437813199E+02  0.57431348722E+03  0.59264789635E+03  0.78251117359E+02 0.  0.
         24    2    4    4    0    0 -0.33391873173E+03  0.48962704919E+03  0.48607449720E+02  0.59990920284E+03  0.79322133032E+02 0.  0.
         13    1    3    3    0    0  0.35653565618E+02 -0.27997692562E+02  0.39295865103E+02  0.59993437510E+02  0.00000000000E+00 0.  1.
        -13    1    3    3    0    0  0.17824131337E+03 -0.43219154343E+03  0.40665511650E+03  0.61961914090E+03  0.00000000000E+00 0. -1.
          4    1    6    6  502    0 -0.45575285724E+01  0.18766651525E+02  0.14735070589E+02  0.24291574289E+02  0.00000000000E+00 0. -1.
          1    1    5    5  503    0  0.12598377986E+02 -0.10236398133E+02  0.12921708352E+02  0.20747855825E+02  0.00000000000E+00 0. -1.
         -2    1    5    5    0  503  0.10742547476E+03 -0.19201415066E+02  0.56139177887E+03  0.57190004053E+03  0.00000000000E+00 0.  1.
         -3    1    6    6    0  502 -0.32936120315E+03  0.47086039766E+03  0.33872379131E+02  0.57561762855E+03  0.00000000000E+00 0.  1.
<mgrwt>
<rscale>  0 0.15370531E+04</rscale>
<asrwt>0</asrwt>
<pdfrwt beam="1">  1        1 0.22623397E+00 0.15370531E+04</pdfrwt>
<pdfrwt beam="2">  1       -1 0.61792136E-01 0.15370531E+04</pdfrwt>
<totfact> 0.17568128E+01</totfact>
</mgrwt>
</event>
<event>
12    1  0.1397649E-007  0.1679594E+04  0.7818608E-02  0.8773089E-01
         -1   -1    0    0    0  501 -0.00000000000E+00  0.00000000000E+00  0.98179482088E+03  0.98179482088E+03  0.00000000000E+00 0.  1.
          1   -1    0    0  501    0  0.00000000000E+00 -0.00000000000E+00 -0.71833671900E+03  0.71833671900E+03  0.00000000000E+00 0. -1.
         23    2    1    2    0    0  0.13317218712E+03  0.13951588650E+03  0.66874967492E+03  0.70191459526E+03  0.90876054717E+02 0.  0.
        254    2    1    2    0    0 -0.13317218712E+03 -0.13951588650E+03 -0.40529157304E+03  0.99821694463E+03  0.89161443200E+03 0.  0.
        -24    2    4    4    0    0  0.31586799944E+03  0.15494061342E+03 -0.22922110747E+03  0.42739023997E+03  0.79629858463E+02 0.  0.
         24    2    4    4    0    0 -0.44904018656E+03 -0.29445649992E+03 -0.17607046557E+03  0.57082670466E+03  0.80626288633E+02 0.  0.
         13    1    3    3    0    0  0.64763791919E+02  0.12814803177E+03  0.46746180221E+03  0.48901615854E+03  0.00000000000E+00 0.  1.
        -13    1    3    3    0    0  0.68408395202E+02  0.11367854729E+02  0.20128787271E+03  0.21289843671E+03  0.00000000000E+00 0. -1.
          4    1    6    6  502    0 -0.23249281691E+03 -0.10833778188E+03 -0.66407631889E+02  0.26495274762E+03  0.00000000000E+00 0. -1.
          1    1    5    5  503    0  0.31577171993E+03  0.14677178593E+03 -0.23237743328E+03  0.41863230614E+03  0.00000000000E+00 0. -1.
         -2    1    5    5    0  503  0.96279509212E-01  0.81688274854E+01  0.31563258123E+01  0.87579338239E+01  0.00000000000E+00 0.  1.
         -3    1    6    6    0  502 -0.21654736965E+03 -0.18611871804E+03 -0.10966283368E+03  0.30587395704E+03  0.00000000000E+00 0.  1.
<mgrwt>
<rscale>  0 0.16795943E+04</rscale>
<asrwt>0</asrwt>
<pdfrwt beam="1">  1        1 0.11051334E+00 0.16795943E+04</pdfrwt>
<pdfrwt beam="2">  1       -1 0.15104536E+00 0.16795943E+04</pdfrwt>
<totfact> 0.85479021E+00</totfact>
</mgrwt>
</event>
<event>
12    1  0.1397649E-007  0.1423218E+04  0.7818608E-02  0.8937181E-01
          2   -1    0    0  501    0  0.00000000000E+00  0.00000000000E+00  0.14795422945E+04  0.14795422945E+04  0.00000000000E+00 0.  1.
         -2   -1    0    0    0  501 -0.00000000000E+00 -0.00000000000E+00 -0.34225970694E+03  0.34225970694E+03  0.00000000000E+00 0. -1.
         23    2    1    2    0    0 -0.72299719281E+02  0.91184198051E+02 -0.17625036757E+03  0.22988099711E+03  0.90770443309E+02 0.  0.
        254    2    1    2    0    0  0.72299719281E+02 -0.91184198051E+02  0.13135329551E+04  0.15919210043E+04  0.89179697938E+03 0.  0.
        -24    2    4    4    0    0  0.69674628992E+02 -0.38533619874E+03  0.21960475965E+03  0.45608381199E+03  0.80297279646E+02 0.  0.
         24    2    4    4    0    0  0.26250902889E+01  0.29415200069E+03  0.10939281955E+04  0.11358371923E+04  0.83156118337E+02 0.  0.
         11    1    3    3    0    0 -0.54221567634E+02  0.54566932007E+02 -0.17249673614E+03  0.18887205310E+03  0.00000000000E+00 0. -1.
        -11    1    3    3    0    0 -0.18078151647E+02  0.36617266043E+02 -0.37536314392E+01  0.41008944006E+02  0.00000000000E+00 0.  1.
          2    1    6    6  502    0 -0.27199319796E+02  0.20837990971E+03  0.66552055343E+03  0.69791088028E+03  0.00000000000E+00 0. -1.
          3    1    5    5  503    0  0.75721845789E+02 -0.20311961631E+03  0.13211170913E+03  0.25385996169E+03  0.00000000000E+00 0. -1.
         -4    1    5    5    0  503 -0.60472167974E+01 -0.18221658242E+03  0.87493050519E+02  0.20222385030E+03  0.00000000000E+00 0.  1.
         -1    1    6    6    0  502  0.29824410085E+02  0.85772090978E+02  0.42840764205E+03  0.43792631206E+03  0.00000000000E+00 0.  1.
<mgrwt>
<rscale>  0 0.14232185E+04</rscale>
<asrwt>0</asrwt>
<pdfrwt beam="1">  1        2 0.22762189E+00 0.14232185E+04</pdfrwt>
<pdfrwt beam="2">  1       -2 0.52655340E-01 0.14232185E+04</pdfrwt>
<totfact> 0.43096224E+01</totfact>
</mgrwt>
</event>
<event>
12    1  0.1397649E-007  0.1908005E+04  0.7818608E-02  0.8650882E-01
          2   -1    0    0  501    0  0.00000000000E+00  0.00000000000E+00  0.20609370878E+04  0.20609370878E+04  0.00000000000E+00 0. -1.
         -2   -1    0    0    0  501 -0.00000000000E+00 -0.00000000000E+00 -0.44160540947E+03  0.44160540947E+03  0.00000000000E+00 0.  1.
         23    2    1    2    0    0 -0.90480325858E+02  0.66868891625E+03  0.10286366273E+04  0.12347756828E+04  0.10604772358E+03 0.  0.
        254    2    1    2    0    0  0.90480325858E+02 -0.66868891625E+03  0.59069505105E+03  0.12677668145E+04  0.89609179025E+03 0.  0.
        -24    2    4    4    0    0 -0.94121711573E+02 -0.56499136712E+03 -0.57459556481E+02  0.58123259340E+03  0.80346658239E+02 0.  0.
         24    2    4    4    0    0  0.18460203743E+03 -0.10369754913E+03  0.64815460754E+03  0.68653422112E+03  0.79960912785E+02 0.  0.
         13    1    3    3    0    0 -0.36876028764E+01  0.16622256575E+03  0.33379741323E+03  0.37291319749E+03  0.00000000000E+00 0.  1.
        -13    1    3    3    0    0 -0.86792722981E+02  0.50246635050E+03  0.69483921407E+03  0.86186248530E+03  0.00000000000E+00 0. -1.
          2    1    6    6  502    0  0.18874100740E+03 -0.90371483127E+02  0.62856169301E+03  0.66248016933E+03  0.00000000000E+00 0. -1.
          1    1    5    5  503    0 -0.10077098158E+03 -0.37971171425E+03 -0.44796856711E+02  0.39540173879E+03  0.00000000000E+00 0. -1.
         -2    1    5    5    0  503  0.66492700094E+01 -0.18527965287E+03 -0.12662699770E+02  0.18583085461E+03  0.00000000000E+00 0.  1.
         -1    1    6    6    0  502 -0.41389699729E+01 -0.13326066005E+02  0.19592914526E+02  0.24054051784E+02  0.00000000000E+00 0.  1.
<mgrwt>
<rscale>  0 0.19080052E+04</rscale>
<asrwt>0</asrwt>
<pdfrwt beam="1">  1        2 0.31706724E+00 0.19080052E+04</pdfrwt>
<pdfrwt beam="2">  1       -2 0.67939295E-01 0.19080052E+04</pdfrwt>
<totfact> 0.11473291E+01</totfact>
</mgrwt>
</event>
<event>
12    1  0.1397649E-007  0.3997153E+04  0.7818608E-02  0.8005121E-01
         -2   -1    0    0    0  501 -0.00000000000E+00  0.00000000000E+00  0.10836588621E+04  0.10836588621E+04  0.00000000000E+00 0.  1.
          2   -1    0    0  501    0  0.00000000000E+00 -0.00000000000E+00 -0.36859464018E+04  0.36859464018E+04  0.00000000000E+00 0. -1.
         23    2    1    2    0    0  0.89465395385E+03 -0.15330686414E+04 -0.43602166288E+03  0.18302107279E+04  0.94081144615E+02 0.  0.
        254    2    1    2    0    0 -0.89465395385E+03  0.15330686414E+04 -0.21662658769E+04  0.29393945359E+04  0.89253976513E+03 0.  0.
        -24    2    4    4    0    0 -0.76637742305E+03  0.15988935517E+04 -0.17539818996E+04  0.24954018714E+04  0.82359282132E+02 0.  0.
         24    2    4    4    0    0 -0.12827653080E+03 -0.65824910310E+02 -0.41228397728E+03  0.44399266457E+03  0.79772307883E+02 0.  0.
         11    1    3    3    0    0  0.21475105221E+03 -0.31116355010E+03 -0.11945137792E+03  0.39649640733E+03  0.00000000000E+00 0.  1.
        -11    1    3    3    0    0  0.67990290163E+03 -0.12219050913E+04 -0.31657028496E+03  0.14337143206E+04  0.00000000000E+00 0. -1.
          2    1    6    6  502    0 -0.10052187905E+03 -0.69554247229E+02 -0.23885474633E+03  0.26831703509E+03  0.00000000000E+00 0. -1.
          3    1    5    5  503    0 -0.60306384458E+03  0.12205334967E+04 -0.13888613252E+04  0.19448197341E+04  0.00000000000E+00 0. -1.
         -4    1    5    5    0  503 -0.16331357847E+03  0.37836005494E+03 -0.36512057434E+03  0.55058213728E+03  0.00000000000E+00 0.  1.
         -1    1    6    6    0  502 -0.27754651747E+02  0.37293369185E+01 -0.17342923094E+03  0.17567562948E+03  0.00000000000E+00 0.  1.
<mgrwt>
<rscale>  0 0.39971532E+04</rscale>
<asrwt>0</asrwt>
<pdfrwt beam="1">  1        2 0.56706867E+00 0.39971532E+04</pdfrwt>
<pdfrwt beam="2">  1       -2 0.16671675E+00 0.39971532E+04</pdfrwt>
<totfact> 0.10587303E-01</totfact>
</mgrwt>
</event>
<event>
12    1  0.1397649E-007  0.2140276E+04  0.7818608E-02  0.8543706E-01
          2   -1    0    0  501    0  0.00000000000E+00  0.00000000000E+00  0.26973681500E+04  0.26973681500E+04  0.00000000000E+00 0. -1.
         -2   -1    0    0    0  501 -0.00000000000E+00 -0.00000000000E+00 -0.42456024651E+03  0.42456024651E+03  0.00000000000E+00 0.  1.
         23    2    1    2    0    0 -0.29876396143E+03  0.82678264037E+03  0.93661728052E+03  0.12877706005E+04  0.90949163794E+02 0.  0.
        254    2    1    2    0    0  0.29876396143E+03 -0.82678264037E+03  0.13361906229E+04  0.18341577959E+04  0.89771933280E+03 0.  0.
        -24    2    4    4    0    0 -0.16489161765E+03 -0.44848688627E+02  0.69186926748E+03  0.71711624471E+03  0.79824649744E+02 0.  0.
         24    2    4    4    0    0  0.46365557909E+03 -0.78193395174E+03  0.64432135547E+03  0.11170415512E+04  0.78959591849E+02 0.  0.
         13    1    3    3    0    0 -0.18383796334E+03  0.56598537298E+03  0.57674954863E+03  0.82871942238E+03  0.00000000000E+00 0. -1.
        -13    1    3    3    0    0 -0.11492599810E+03  0.26079726739E+03  0.35986773189E+03  0.45905117816E+03  0.00000000000E+00 0.  1.
          4    1    6    6  502    0  0.40535074896E+03 -0.67780468934E+03  0.52539895739E+03  0.94856338270E+03  0.00000000000E+00 0. -1.
          1    1    5    5  503    0 -0.13253085238E+03  0.81463894832E+00  0.49728577990E+03  0.51464379658E+03  0.00000000000E+00 0. -1.
         -2    1    5    5    0  503 -0.32360765275E+02 -0.45663327575E+02  0.19458348757E+03  0.20247244813E+03  0.00000000000E+00 0.  1.
         -3    1    6    6    0  502  0.58304830128E+02 -0.10412926240E+03  0.11892239808E+03  0.16847816852E+03  0.00000000000E+00 0.  1.
<mgrwt>
<rscale>  0 0.21402760E+04</rscale>
<asrwt>0</asrwt>
<pdfrwt beam="1">  1        2 0.41497970E+00 0.21402760E+04</pdfrwt>
<pdfrwt beam="2">  1       -2 0.65316963E-01 0.21402760E+04</pdfrwt>
<totfact> 0.52918589E+00</totfact>
</mgrwt>
</event>
<event>
12    1  0.1397649E-007  0.2253221E+04  0.7818608E-02  0.8496597E-01
          1   -1    0    0  501    0  0.00000000000E+00  0.00000000000E+00  0.91402820457E+03  0.91402820457E+03  0.00000000000E+00 0. -1.
         -1   -1    0    0    0  501 -0.00000000000E+00 -0.00000000000E+00 -0.13886348106E+04  0.13886348106E+04  0.00000000000E+00 0.  1.
         23    2    1    2    0    0  0.82930916686E+02 -0.55211093908E+03  0.58054488750E+03  0.81167841140E+03  0.10042634678E+03 0.  0.
        254    2    1    2    0    0 -0.82930916686E+02  0.55211093908E+03 -0.10551514936E+04  0.14909846038E+04  0.89330083869E+03 0.  0.
        -24    2    4    4    0    0 -0.20079008975E+03  0.20315156069E+03  0.69300385212E+02  0.30501823083E+03  0.81525216940E+02 0.  0.
         24    2    4    4    0    0  0.11785917307E+03  0.34895937839E+03 -0.11244518788E+04  0.11859663730E+04  0.80378962913E+02 0.  0.
         13    1    3    3    0    0  0.16945538057E+02 -0.90617425221E+02  0.48084973745E+02  0.10397515912E+03  0.00000000000E+00 0.  1.
        -13    1    3    3    0    0  0.65985378629E+02 -0.46149351386E+03  0.53245991376E+03  0.70770325228E+03  0.00000000000E+00 0. -1.
          2    1    6    6  502    0  0.12289096989E+02  0.15717403328E+03 -0.44339990751E+03  0.47059343028E+03  0.00000000000E+00 0. -1.
          1    1    5    5  503    0 -0.86667982515E+02  0.10756525570E+03  0.72732755636E+02  0.15611430802E+03  0.00000000000E+00 0. -1.
         -2    1    5    5    0  503 -0.11412210724E+03  0.95586304989E+02 -0.34323704240E+01  0.14890392281E+03  0.00000000000E+00 0.  1.
         -1    1    6    6    0  502  0.10557007608E+03  0.19178534512E+03 -0.68105197128E+03  0.71537294270E+03  0.00000000000E+00 0.  1.
<mgrwt>
<rscale>  0 0.22532211E+04</rscale>
<asrwt>0</asrwt>
<pdfrwt beam="1">  1        1 0.14061972E+00 0.22532211E+04</pdfrwt>
<pdfrwt beam="2">  1       -1 0.21363613E+00 0.22532211E+04</pdfrwt>
<totfact> 0.19534020E+00</totfact>
</mgrwt>
</event>
<event>
12    1  0.1397649E-007  0.1703109E+04  0.7818608E-02  0.8759593E-01
         -2   -1    0    0    0  501 -0.00000000000E+00  0.00000000000E+00  0.21657688481E+04  0.21657688481E+04  0.00000000000E+00 0.  1.
          2   -1    0    0  501    0  0.00000000000E+00 -0.00000000000E+00 -0.33482127598E+03  0.33482127598E+03  0.00000000000E+00 0. -1.
         23    2    1    2    0    0 -0.59154526741E+01 -0.15893966409E+03 -0.18864132569E+03  0.26440156466E+03  0.95004359040E+02 0.  0.
        254    2    1    2    0    0  0.59154526741E+01  0.15893966409E+03  0.20195888978E+04  0.22361885594E+04  0.94683850138E+03 0.  0.
        -24    2    4    4    0    0 -0.27403814514E+03 -0.46637268966E+02  0.17871441267E+04  0.18105886179E+04  0.84113458241E+02 0.  0.
         24    2    4    4    0    0  0.27995359781E+03  0.20557693306E+03  0.23244477109E+03  0.42559994149E+03  0.80429138067E+02 0.  0.
         13    1    3    3    0    0  0.25009643316E+02 -0.72730960658E+02 -0.14230647979E+03  0.16176034461E+03  0.00000000000E+00 0. -1.
        -13    1    3    3    0    0 -0.30925095990E+02 -0.86208703435E+02 -0.46334845894E+02  0.10264122005E+03  0.00000000000E+00 0.  1.
          4    1    6    6  502    0  0.14518951371E+03  0.15405571283E+03  0.14976278430E+03  0.25931071923E+03  0.00000000000E+00 0. -1.
          1    1    5    5  503    0 -0.17854462471E+03  0.11857915533E+01  0.94714597908E+03  0.96382835339E+03  0.00000000000E+00 0. -1.
         -2    1    5    5    0  503 -0.95493520432E+02 -0.47823060519E+02  0.83999814763E+03  0.84676026453E+03  0.00000000000E+00 0.  1.
         -3    1    6    6    0  502  0.13476408410E+03  0.51521220228E+02  0.82681986797E+02  0.16628922226E+03  0.00000000000E+00 0.  1.
<mgrwt>
<rscale>  0 0.17031095E+04</rscale>
<asrwt>0</asrwt>
<pdfrwt beam="1">  1        2 0.51510967E-01 0.17031095E+04</pdfrwt>
<pdfrwt beam="2">  1       -2 0.33319520E+00 0.17031095E+04</pdfrwt>
<totfact> 0.18390524E+00</totfact>
</mgrwt>
</event>
<event>
12    1  0.1397649E-007  0.1828171E+04  0.7818608E-02  0.8691460E-01
         -2   -1    0    0    0  501 -0.00000000000E+00  0.00000000000E+00  0.28643679899E+03  0.28643679899E+03  0.00000000000E+00 0.  1.
          2   -1    0    0  501    0  0.00000000000E+00 -0.00000000000E+00 -0.29170569854E+04  0.29170569854E+04  0.00000000000E+00 0. -1.
         23    2    1    2    0    0 -0.97857173501E+02  0.24630559520E+02  0.19323657787E+03  0.23608336196E+03  0.90621674551E+02 0.  0.
        254    2    1    2    0    0  0.97857173501E+02 -0.24630559520E+02 -0.28238567642E+04  0.29674104224E+04  0.90618701112E+03 0.  0.
        -24    2    4    4    0    0 -0.36283449313E+03 -0.92353001420E+02 -0.17829862222E+04  0.18236601529E+04  0.80737466785E+02 0.  0.
         24    2    4    4    0    0  0.46069166663E+03  0.67722441900E+02 -0.10408705421E+04  0.11437502695E+04  0.89050843850E+02 0.  0.
         13    1    3    3    0    0 -0.80068433533E+02 -0.21159208240E+02  0.93487698933E+02  0.12489441939E+03  0.00000000000E+00 0.  1.
        -13    1    3    3    0    0 -0.17788739968E+02  0.45789767761E+02  0.99748878935E+02  0.11118894257E+03  0.00000000000E+00 0. -1.
          4    1    6    6  502    0  0.15229581785E+03  0.45831726319E+02 -0.27259161384E+03  0.31559586691E+03  0.00000000000E+00 0. -1.
          1    1    5    5  503    0 -0.24017748610E+03 -0.86553429508E+02 -0.13326120472E+04  0.13568461922E+04  0.00000000000E+00 0. -1.
         -4    1    5    5    0  503 -0.12265700703E+03 -0.57995719127E+01 -0.45037417499E+03  0.46681396070E+03  0.00000000000E+00 0.  1.
         -3    1    6    6    0  502  0.30839584878E+03  0.21890715581E+02 -0.76827892823E+03  0.82815440260E+03  0.00000000000E+00 0.  1.
<mgrwt>
<rscale>  0 0.18281712E+04</rscale>
<asrwt>0</asrwt>
<pdfrwt beam="1">  1        2 0.44877798E+00 0.18281712E+04</pdfrwt>
<pdfrwt beam="2">  1       -2 0.44067202E-01 0.18281712E+04</pdfrwt>
<totfact> 0.90481510E+00</totfact>
</mgrwt>
</event>
<event>
12    1  0.1397649E-007  0.1257917E+04  0.7818608E-02  0.9063619E-01
         -2   -1    0    0    0  501 -0.00000000000E+00  0.00000000000E+00  0.15042841772E+03  0.15042841772E+03  0.00000000000E+00 0.  1.
          2   -1    0    0  501    0  0.00000000000E+00 -0.00000000000E+00 -0.26297490816E+04  0.26297490816E+04  0.00000000000E+00 0. -1.
         23    2    1    2    0    0 -0.15932012209E+03 -0.15272742143E+03 -0.18218971346E+03  0.30311649082E+03  0.99889682922E+02 0.  0.
        254    2    1    2    0    0  0.15932012209E+03  0.15272742143E+03 -0.22971309504E+04  0.24770610085E+04  0.90017335548E+03 0.  0.
        -24    2    4    4    0    0 -0.32629642826E+03 -0.70782404640E+02 -0.55450011432E+03  0.65244604787E+03  0.82072898743E+02 0.  0.
         24    2    4    4    0    0  0.48561655034E+03  0.22350982607E+03 -0.17426308361E+04  0.18246149606E+04  0.81715649099E+02 0.  0.
         11    1    3    3    0    0 -0.12229342575E+03 -0.90273085575E+02 -0.65130487276E+02  0.16536895819E+03  0.00000000000E+00 0.  1.
        -11    1    3    3    0    0 -0.37026696338E+02 -0.62454335860E+02 -0.11705922618E+03  0.13774753262E+03  0.00000000000E+00 0. -1.
          2    1    6    6  502    0  0.44997529831E+02  0.42021257310E+02 -0.26437694675E+03  0.27145116270E+03  0.00000000000E+00 0. -1.
          3    1    5    5  503    0  0.10664308177E+01 -0.10513765782E+02 -0.12228199390E+02  0.16161850325E+02  0.00000000000E+00 0. -1.
         -4    1    5    5    0  503 -0.32736285907E+03 -0.60268638858E+02 -0.54227191493E+03  0.63628419755E+03  0.00000000000E+00 0.  1.
         -1    1    6    6    0  502  0.44061902051E+03  0.18148856876E+03 -0.14782538893E+04  0.15531637979E+04  0.00000000000E+00 0.  1.
<mgrwt>
<rscale>  0 0.12579173E+04</rscale>
<asrwt>0</asrwt>
<pdfrwt beam="1">  1        2 0.40457680E+00 0.12579173E+04</pdfrwt>
<pdfrwt beam="2">  1       -2 0.23142832E-01 0.12579173E+04</pdfrwt>
<totfact> 0.47714110E+01</totfact>
</mgrwt>
</event>
<event>
12    1  0.1397649E-007  0.1369557E+04  0.7818608E-02  0.8976155E-01
          1   -1    0    0  501    0  0.00000000000E+00  0.00000000000E+00  0.15512967378E+04  0.15512967378E+04  0.00000000000E+00 0.  1.
         -1   -1    0    0    0  501 -0.00000000000E+00 -0.00000000000E+00 -0.30227704210E+03  0.30227704210E+03  0.00000000000E+00 0. -1.
         23    2    1    2    0    0  0.43665733038E+02  0.23031135504E+03 -0.38021294128E+02  0.25481043288E+03  0.92372730798E+02 0.  0.
        254    2    1    2    0    0 -0.43665733038E+02 -0.23031135504E+03  0.12870409899E+04  0.15987633471E+04  0.91903194385E+03 0.  0.
        -24    2    4    4    0    0  0.24395525420E+03  0.74326307690E+02  0.26587088706E+02  0.26772103071E+03  0.77000720330E+02 0.  0.
         24    2    4    4    0    0 -0.28762098724E+03 -0.30463766272E+03  0.12604539011E+04  0.13310423163E+04  0.86021352807E+02 0.  0.
         11    1    3    3    0    0  0.58708230732E+02  0.22949780610E+03 -0.36142143686E+02  0.23962920087E+03  0.00000000000E+00 0. -1.
        -11    1    3    3    0    0 -0.15042497694E+02  0.81354893458E+00 -0.18791504417E+01  0.15181232003E+02  0.00000000000E+00 0.  1.
          2    1    6    6  502    0 -0.28615956271E+03 -0.27987294393E+03  0.11448241095E+04  0.12127812671E+04  0.00000000000E+00 0. -1.
          3    1    5    5  503    0  0.23281439826E+03  0.49292277593E+02  0.30933262528E+02  0.23997737268E+03  0.00000000000E+00 0. -1.
         -4    1    5    5    0  503  0.11140855939E+02  0.25034030096E+02 -0.43461738217E+01  0.27743658028E+02  0.00000000000E+00 0.  1.
         -1    1    6    6    0  502 -0.14614245259E+01 -0.24764718794E+02  0.11562979163E+03  0.11826104926E+03  0.00000000000E+00 0.  1.
<mgrwt>
<rscale>  0 0.13695567E+04</rscale>
<asrwt>0</asrwt>
<pdfrwt beam="1">  1        1 0.23866103E+00 0.13695567E+04</pdfrwt>
<pdfrwt beam="2">  1       -1 0.46504161E-01 0.13695567E+04</pdfrwt>
<totfact> 0.27127056E+01</totfact>
</mgrwt>
</event>
<event>
12    1  0.1397649E-007  0.1885600E+04  0.7818608E-02  0.8662057E-01
          2   -1    0    0  501    0  0.00000000000E+00  0.00000000000E+00  0.24873043149E+04  0.24873043149E+04  0.00000000000E+00 0. -1.
         -2   -1    0    0    0  501 -0.00000000000E+00 -0.00000000000E+00 -0.35736361013E+03  0.35736361013E+03  0.00000000000E+00 0.  1.
         23    2    1    2    0    0 -0.31019654286E+01 -0.13538179889E+03 -0.24615831461E+03  0.29515917060E+03  0.90482962363E+02 0.  0.
        254    2    1    2    0    0  0.31019654286E+01  0.13538179889E+03  0.23760990194E+04  0.25495087544E+04  0.91422671441E+03 0.  0.
        -24    2    4    4    0    0  0.16335337089E+03 -0.21321575229E+03  0.19516305988E+04  0.19717297672E+04  0.81920692626E+02 0.  0.
         24    2    4    4    0    0 -0.16025140547E+03  0.34859755118E+03  0.42446842057E+03  0.57777898722E+03  0.80338984133E+02 0.  0.
         13    1    3    3    0    0  0.14930767671E+01 -0.13005682831E+03 -0.25354484117E+03  0.28495963636E+03  0.00000000000E+00 0.  1.
        -13    1    3    3    0    0 -0.45950421957E+01 -0.53249705747E+01  0.73865265519E+01  0.10199534249E+02  0.00000000000E+00 0. -1.
          2    1    6    6  502    0 -0.87026290617E+02  0.23111177567E+03  0.21928212875E+03  0.33025880775E+03  0.00000000000E+00 0. -1.
          3    1    5    5  503    0  0.10252104566E+03 -0.95566547649E+02  0.12384112829E+04  0.12463169884E+04  0.00000000000E+00 0. -1.
         -4    1    5    5    0  503  0.60832325239E+02 -0.11764920464E+03  0.71321931584E+03  0.72541277879E+03  0.00000000000E+00 0.  1.
         -1    1    6    6    0  502 -0.73225114848E+02  0.11748577551E+03  0.20518629182E+03  0.24752017946E+03  0.00000000000E+00 0.  1.
<mgrwt>
<rscale>  0 0.18856002E+04</rscale>
<asrwt>0</asrwt>
<pdfrwt beam="1">  1        2 0.38266219E+00 0.18856002E+04</pdfrwt>
<pdfrwt beam="2">  1       -2 0.54979019E-01 0.18856002E+04</pdfrwt>
<totfact> 0.10338076E+01</totfact>
</mgrwt>
</event>
<event>
12    1  0.1397649E-007  0.1817855E+04  0.7818608E-02  0.8696862E-01
         -2   -1    0    0    0  501 -0.00000000000E+00  0.00000000000E+00  0.81094158779E+03  0.81094158779E+03  0.00000000000E+00 0. -1.
          2   -1    0    0  501    0  0.00000000000E+00 -0.00000000000E+00 -0.10187529841E+04  0.10187529841E+04  0.00000000000E+00 0.  1.
         23    2    1    2    0    0 -0.22970326235E+03  0.43793336002E+03  0.39395491439E+03  0.63850685979E+03  0.89114077835E+02 0.  0.
        254    2    1    2    0    0  0.22970326235E+03 -0.43793336002E+03 -0.60176631067E+03  0.11911877121E+04  0.90125260398E+03 0.  0.
        -24    2    4    4    0    0 -0.22450558774E+02  0.24178952919E+03 -0.18005549777E+02  0.25662208544E+03  0.81021545874E+02 0.  0.
         24    2    4    4    0    0  0.25215382113E+03 -0.67972288921E+03 -0.58376076089E+03  0.93456562663E+03  0.83854212126E+02 0.  0.
         13    1    3    3    0    0 -0.21539168201E+03  0.43574562414E+03  0.39079192965E+03  0.62368754831E+03  0.00000000000E+00 0. -1.
        -13    1    3    3    0    0 -0.14311580340E+02  0.21877358780E+01  0.31629847384E+01  0.14819311474E+02  0.00000000000E+00 0.  1.
          2    1    6    6  502    0  0.23647548474E+03 -0.55178654985E+03 -0.46578354656E+03  0.75983114159E+03  0.00000000000E+00 0. -1.
          3    1    5    5  503    0 -0.46412854544E+02  0.20074493879E+03 -0.28350739409E+02  0.20798184522E+03  0.00000000000E+00 0. -1.
         -4    1    5    5    0  503  0.23962295770E+02  0.41044590403E+02  0.10345189632E+02  0.48640240218E+02  0.00000000000E+00 0.  1.
         -1    1    6    6    0  502  0.15678336383E+02 -0.12793633937E+03 -0.11797721433E+03  0.17473448504E+03  0.00000000000E+00 0.  1.
<mgrwt>
<rscale>  0 0.18178550E+04</rscale>
<asrwt>0</asrwt>
<pdfrwt beam="1">  1        2 0.15673123E+00 0.18178550E+04</pdfrwt>
<pdfrwt beam="2">  1       -2 0.12476024E+00 0.18178550E+04</pdfrwt>
<totfact> 0.11128991E+01</totfact>
</mgrwt>
</event>
<event>
12    1  0.1397649E-007  0.2013726E+04  0.7818608E-02  0.8600230E-01
         -2   -1    0    0    0  501 -0.00000000000E+00  0.00000000000E+00  0.16063511078E+04  0.16063511078E+04  0.00000000000E+00 0.  1.
          2   -1    0    0  501    0  0.00000000000E+00 -0.00000000000E+00 -0.63110308397E+03  0.63110308397E+03  0.00000000000E+00 0. -1.
         23    2    1    2    0    0 -0.65956838308E+02  0.81834709870E+03  0.32051523921E+03  0.88720870399E+03  0.10181840401E+03 0.  0.
        254    2    1    2    0    0  0.65956838308E+02 -0.81834709870E+03  0.65473278460E+03  0.13502454878E+04  0.84879065706E+03 0.  0.
        -24    2    4    4    0    0 -0.14980613969E+03 -0.74736853946E+03  0.13768774311E+03  0.77873189163E+03  0.80397954994E+02 0.  0.
         24    2    4    4    0    0  0.21576297800E+03 -0.70978559240E+02  0.51704504149E+03  0.57151359614E+03  0.87753046059E+02 0.  0.
         11    1    3    3    0    0 -0.69173031073E+02  0.46609968376E+03  0.22534977038E+03  0.52231823866E+03  0.00000000000E+00 0. -1.
        -11    1    3    3    0    0  0.32161927651E+01  0.35224741494E+03  0.95165468832E+02  0.36489046533E+03  0.00000000000E+00 0.  1.
          2    1    6    6  502    0  0.18627074578E+02 -0.31712614220E+02  0.13368479765E+03  0.13865166039E+03  0.00000000000E+00 0. -1.
          1    1    5    5  503    0 -0.67063850070E+01 -0.39906844072E+01 -0.36660272105E+01  0.86221179190E+01  0.00000000000E+00 0. -1.
         -2    1    5    5    0  503 -0.14309975468E+03 -0.74337785505E+03  0.14135377032E+03  0.77010977371E+03  0.00000000000E+00 0.  1.
         -1    1    6    6    0  502  0.19713590342E+03 -0.39265945020E+02  0.38336024384E+03  0.43286193574E+03  0.00000000000E+00 0.  1.
<mgrwt>
<rscale>  0 0.20137260E+04</rscale>
<asrwt>0</asrwt>
<pdfrwt beam="1">  1        2 0.97092783E-01 0.20137260E+04</pdfrwt>
<pdfrwt beam="2">  1       -2 0.24713094E+00 0.20137260E+04</pdfrwt>
<totfact> 0.28956918E+00</totfact>
</mgrwt>
</event>
<event>
12    1  0.1397649E-007  0.1511881E+04  0.7818608E-02  0.8876590E-01
          1   -1    0    0  501    0  0.00000000000E+00  0.00000000000E+00  0.68207352449E+03  0.68207352449E+03  0.00000000000E+00 0. -1.
         -1   -1    0    0    0  501 -0.00000000000E+00 -0.00000000000E+00 -0.83780726581E+03  0.83780726581E+03  0.00000000000E+00 0.  1.
         23    2    1    2    0    0  0.35521884305E+03  0.31719592828E+03 -0.11741092411E+03  0.49857988065E+03  0.89458867154E+02 0.  0.
        254    2    1    2    0    0 -0.35521884305E+03 -0.31719592828E+03 -0.38322817209E+02  0.10213009097E+04  0.90265897568E+03 0.  0.
        -24    2    4    4    0    0 -0.44473179395E+03 -0.44865782026E+03 -0.30045078585E+03  0.70455098523E+03  0.83911905207E+02 0.  0.
         24    2    4    4    0    0  0.89512950902E+02  0.13146189198E+03  0.26212796864E+03  0.31674992443E+03  0.79527638338E+02 0.  0.
         11    1    3    3    0    0  0.73211702313E+02  0.71395220616E+02 -0.64143410343E+02  0.12071291552E+03  0.00000000000E+00 0.  1.
        -11    1    3    3    0    0  0.28200714073E+03  0.24580070766E+03 -0.53267513768E+02  0.37786696513E+03  0.00000000000E+00 0. -1.
          4    1    6    6  502    0  0.64261220843E+02  0.38912297403E+02  0.15927094404E+03  0.17609913404E+03  0.00000000000E+00 0. -1.
          3    1    5    5  503    0 -0.41202170793E+03 -0.37926492525E+03 -0.25444995226E+03  0.61510043858E+03  0.00000000000E+00 0. -1.
         -4    1    5    5    0  503 -0.32710086020E+02 -0.69392895014E+02 -0.46000833581E+02  0.89450546650E+02  0.00000000000E+00 0.  1.
         -3    1    6    6    0  502  0.25251730060E+02  0.92549594581E+02  0.10285702459E+03  0.14065079039E+03  0.00000000000E+00 0.  1.
<mgrwt>
<rscale>  0 0.15118812E+04</rscale>
<asrwt>0</asrwt>
<pdfrwt beam="1">  1        1 0.10493439E+00 0.15118812E+04</pdfrwt>
<pdfrwt beam="2">  1       -1 0.12889343E+00 0.15118812E+04</pdfrwt>
<totfact> 0.14195284E+01</totfact>
</mgrwt>
</event>
<event>
12    1  0.1397649E-007  0.2246163E+04  0.7818608E-02  0.8499456E-01
          2   -1    0    0  501    0  0.00000000000E+00  0.00000000000E+00  0.15077689196E+04  0.15077689196E+04  0.00000000000E+00 0. -1.
         -2   -1    0    0    0  501 -0.00000000000E+00 -0.00000000000E+00 -0.83654209903E+03  0.83654209903E+03  0.00000000000E+00 0.  1.
         23    2    1    2    0    0  0.56842936916E+03 -0.71458784043E+03  0.30992849040E+02  0.91821436527E+03  0.91702423437E+02 0.  0.
        254    2    1    2    0    0 -0.56842936916E+03  0.71458784043E+03  0.64023397158E+03  0.14260966534E+04  0.88887816774E+03 0.  0.
        -24    2    4    4    0    0  0.22113505073E+03  0.11378751642E+03  0.23475754007E+03  0.35128073372E+03  0.80241770342E+02 0.  0.
         24    2    4    4    0    0 -0.78956441990E+03  0.60080032402E+03  0.40547643151E+03  0.10748159197E+04  0.80281518452E+02 0.  0.
         11    1    3    3    0    0  0.35027495415E+03 -0.41847589412E+03 -0.24408654672E+02  0.54626953044E+03  0.00000000000E+00 0.  1.
        -11    1    3    3    0    0  0.21815441502E+03 -0.29611194631E+03  0.55401503712E+02  0.37194483482E+03  0.00000000000E+00 0. -1.
          2    1    6    6  502    0 -0.56007498332E+03  0.39707465408E+03  0.31120981130E+03  0.75379295201E+03  0.00000000000E+00 0. -1.
          3    1    5    5  503    0  0.21536447470E+03  0.90968890343E+02  0.19221491145E+03  0.30266114412E+03  0.00000000000E+00 0. -1.
         -4    1    5    5    0  503  0.57705760344E+01  0.22818626074E+02  0.42542628614E+02  0.48619589602E+02  0.00000000000E+00 0.  1.
         -1    1    6    6    0  502 -0.22948943658E+03  0.20372566994E+03  0.94266620212E+02  0.32102296768E+03  0.00000000000E+00 0.  1.
<mgrwt>
<rscale>  0 0.22461631E+04</rscale>
<asrwt>0</asrwt>
<pdfrwt beam="1">  1        2 0.23196445E+00 0.22461631E+04</pdfrwt>
<pdfrwt beam="2">  1       -2 0.12869879E+00 0.22461631E+04</pdfrwt>
<totfact> 0.50986793E+00</totfact>
</mgrwt>
</event>
<event>
12    1  0.1397649E-007  0.1908093E+04  0.7818608E-02  0.8650839E-01
         -2   -1    0    0    0  501 -0.00000000000E+00  0.00000000000E+00  0.49930989266E+03  0.49930989266E+03  0.00000000000E+00 0.  1.
          2   -1    0    0  501    0  0.00000000000E+00 -0.00000000000E+00 -0.18229251732E+04  0.18229251732E+04  0.00000000000E+00 0. -1.
         23    2    1    2    0    0 -0.67959255756E+03  0.27824625211E+03 -0.61376990630E+03  0.96161299321E+03  0.93375744889E+02 0.  0.
        254    2    1    2    0    0  0.67959255756E+03 -0.27824625211E+03 -0.70984537420E+03  0.13606220726E+04  0.89896882486E+03 0.  0.
        -24    2    4    4    0    0  0.54863331821E+03  0.18241091936E+03 -0.11848614854E+03  0.59554206257E+03  0.79744087845E+02 0.  0.
         24    2    4    4    0    0  0.13095923935E+03 -0.46065717147E+03 -0.59135922566E+03  0.76508001003E+03  0.79286417308E+02 0.  0.
         11    1    3    3    0    0 -0.41547460982E+03  0.14828907544E+03 -0.31400614572E+03  0.54148745216E+03  0.00000000000E+00 0. -1.
        -11    1    3    3    0    0 -0.26411794774E+03  0.12995717667E+03 -0.29976376058E+03  0.42012554105E+03  0.00000000000E+00 0.  1.
          2    1    6    6  502    0  0.47491374385E+02 -0.86518527154E+02 -0.86919110537E+02  0.13151356568E+03  0.00000000000E+00 0. -1.
          3    1    5    5  503    0  0.34184197228E+03  0.78481788457E+02 -0.91941672892E+02  0.36258598476E+03  0.00000000000E+00 0. -1.
         -4    1    5    5    0  503  0.20679134593E+03  0.10392913090E+03 -0.26544475645E+02  0.23295607781E+03  0.00000000000E+00 0.  1.
         -1    1    6    6    0  502  0.83467864966E+02 -0.37413864431E+03 -0.50444011513E+03  0.63356644435E+03  0.00000000000E+00 0.  1.
<mgrwt>
<rscale>  0 0.19080928E+04</rscale>
<asrwt>0</asrwt>
<pdfrwt beam="1">  1        2 0.28045002E+00 0.19080928E+04</pdfrwt>
<pdfrwt beam="2">  1       -2 0.76816908E-01 0.19080928E+04</pdfrwt>
<totfact> 0.11872949E+01</totfact>
</mgrwt>
</event>
<event>
12    1  0.1397649E-007  0.2016901E+04  0.7818608E-02  0.8598759E-01
          1   -1    0    0  501    0  0.00000000000E+00  0.00000000000E+00  0.12640283010E+04  0.12640283010E+04  0.00000000000E+00 0. -1.
         -1   -1    0    0    0  501 -0.00000000000E+00 -0.00000000000E+00 -0.80454874803E+03  0.80454874803E+03  0.00000000000E+00 0.  1.
         23    2    1    2    0    0  0.65704301989E+03 -0.68268173215E+02  0.65522029233E+03  0.93522419801E+03  0.94681548369E+02 0.  0.
        254    2    1    2    0    0 -0.65704301989E+03  0.68268173215E+02 -0.19574073932E+03  0.11333528511E+04  0.89989342398E+03 0.  0.
        -24    2    4    4    0    0 -0.25412373966E+03 -0.39554598598E+03  0.20826620036E+02  0.47708029740E+03  0.78334921847E+02 0.  0.
         24    2    4    4    0    0 -0.40291928023E+03  0.46381415919E+03 -0.21656735936E+03  0.65627255366E+03  0.79528126490E+02 0.  0.
         11    1    3    3    0    0  0.58098768397E+03 -0.84225548785E+02  0.55027361694E+03  0.80463761129E+03  0.00000000000E+00 0. -1.
        -11    1    3    3    0    0  0.76055335915E+02  0.15957375570E+02  0.10494667539E+03  0.13058658672E+03  0.00000000000E+00 0.  1.
          2    1    6    6  502    0 -0.87776665157E+02  0.10130544867E+03 -0.83182832305E+02  0.15775588885E+03  0.00000000000E+00 0. -1.
          1    1    5    5  503    0 -0.24488207673E+02 -0.37940699969E+02 -0.21455481180E+02  0.49995066775E+02  0.00000000000E+00 0. -1.
         -2    1    5    5    0  503 -0.22963553198E+03 -0.35760528601E+03  0.42282101217E+02  0.42708523062E+03  0.00000000000E+00 0.  1.
         -1    1    6    6    0  502 -0.31514261507E+03  0.36250871052E+03 -0.13338452705E+03  0.49851666481E+03  0.00000000000E+00 0.  1.
<mgrwt>
<rscale>  0 0.20169010E+04</rscale>
<asrwt>0</asrwt>
<pdfrwt beam="1">  1        1 0.19446589E+00 0.20169010E+04</pdfrwt>
<pdfrwt beam="2">  1       -1 0.12377673E+00 0.20169010E+04</pdfrwt>
<totfact> 0.51002470E+00</totfact>
</mgrwt>
</event>
<event>
12    1  0.1397649E-007  0.1747981E+04  0.7818608E-02  0.8734463E-01
          1   -1    0    0  501    0  0.00000000000E+00  0.00000000000E+00  0.10328976589E+04  0.10328976589E+04  0.00000000000E+00 0. -1.
         -1   -1    0    0    0  501 -0.00000000000E+00 -0.00000000000E+00 -0.73953028745E+03  0.73953028745E+03  0.00000000000E+00 0.  1.
         23    2    1    2    0    0  0.46855080940E+03 -0.41514310514E+03  0.19946788743E+03  0.66282069534E+03  0.87522438978E+02 0.  0.
        254    2    1    2    0    0 -0.46855080940E+03  0.41514310514E+03  0.93899484035E+02  0.11096072510E+04  0.91133280404E+03 0.  0.
        -24    2    4    4    0    0 -0.70395727948E+03  0.43367197036E+03  0.17292243023E+03  0.84837428587E+03  0.78800589081E+02 0.  0.
         24    2    4    4    0    0  0.23540647008E+03 -0.18528865220E+02 -0.79022946198E+02  0.26123296517E+03  0.78984245650E+02 0.  0.
         13    1    3    3    0    0  0.31865388820E+03 -0.32844188407E+03  0.12546808708E+03  0.47450670443E+03  0.00000000000E+00 0. -1.
        -13    1    3    3    0    0  0.14989692120E+03 -0.86701221064E+02  0.73999800353E+02  0.18831399090E+03  0.00000000000E+00 0.  1.
          2    1    6    6  502    0  0.36424259071E+01  0.92427826925E+01  0.73343212299E+01  0.12348626089E+02  0.00000000000E+00 0. -1.
          1    1    5    5  503    0 -0.67915033509E+02  0.19215141548E+02  0.25407924392E+02  0.75014905607E+02  0.00000000000E+00 0. -1.
         -2    1    5    5    0  503 -0.63604224597E+03  0.41445682881E+03  0.14751450584E+03  0.77335938026E+03  0.00000000000E+00 0.  1.
         -1    1    6    6    0  502  0.23176404417E+03 -0.27771647912E+02 -0.86357267428E+02  0.24888433908E+03  0.00000000000E+00 0.  1.
<mgrwt>
<rscale>  0 0.17479807E+04</rscale>
<asrwt>0</asrwt>
<pdfrwt beam="1">  1        1 0.15890733E+00 0.17479807E+04</pdfrwt>
<pdfrwt beam="2">  1       -1 0.11377389E+00 0.17479807E+04</pdfrwt>
<totfact> 0.95238901E+00</totfact>
</mgrwt>
</event>
<event>
12    1  0.1397649E-007  0.1849713E+04  0.7818608E-02  0.8680301E-01
          2   -1    0    0  501    0  0.00000000000E+00  0.00000000000E+00  0.98378950972E+03  0.98378950972E+03  0.00000000000E+00 0. -1.
         -2   -1    0    0    0  501 -0.00000000000E+00 -0.00000000000E+00 -0.86945344599E+03  0.86945344599E+03  0.00000000000E+00 0.  1.
         23    2    1    2    0    0  0.66467093180E+03 -0.14335313062E+03  0.26651127568E+02  0.68645234400E+03  0.90382356323E+02 0.  0.
        254    2    1    2    0    0 -0.66467093180E+03  0.14335313062E+03  0.87684936161E+02  0.11667906117E+04  0.94412611229E+03 0.  0.
        -24    2    4    4    0    0 -0.43213997970E+03 -0.37819120409E+03  0.11415542743E+03  0.58973303159E+03  0.70569384516E+02 0.  0.
         24    2    4    4    0    0 -0.23253095210E+03  0.52154433471E+03 -0.26470491265E+02  0.57705758012E+03  0.78839248581E+02 0.  0.
         11    1    3    3    0    0  0.35838610219E+02 -0.10478958975E+02  0.22748539478E+02  0.43723113018E+02  0.00000000000E+00 0.  1.
        -11    1    3    3    0    0  0.62883232158E+03 -0.13287417165E+03  0.39025880898E+01  0.64272923098E+03  0.00000000000E+00 0. -1.
          4    1    6    6  502    0 -0.23534671529E+03  0.50346473223E+03 -0.16022058913E+02  0.55598697769E+03  0.00000000000E+00 0. -1.
          3    1    5    5  503    0 -0.24050232002E+03 -0.25540943752E+03  0.76028046015E+02  0.35896463683E+03  0.00000000000E+00 0. -1.
         -4    1    5    5    0  503 -0.19163765967E+03 -0.12278176657E+03  0.38127381411E+02  0.23076839476E+03  0.00000000000E+00 0.  1.
         -3    1    6    6    0  502  0.28157631809E+01  0.18079602483E+02 -0.10448432352E+02  0.21070602432E+02  0.00000000000E+00 0.  1.
<mgrwt>
<rscale>  0 0.18497126E+04</rscale>
<asrwt>0</asrwt>
<pdfrwt beam="1">  1        2 0.15135223E+00 0.18497126E+04</pdfrwt>
<pdfrwt beam="2">  1       -2 0.13376207E+00 0.18497126E+04</pdfrwt>
<totfact> 0.97999421E+00</totfact>
</mgrwt>
</event>
<event>
12    1  0.1397649E-007  0.1285978E+04  0.7818608E-02  0.9040759E-01
         -1   -1    0    0    0  501 -0.00000000000E+00  0.00000000000E+00  0.71917763397E+03  0.71917763397E+03  0.00000000000E+00 0.  1.
          1   -1    0    0  501    0  0.00000000000E+00 -0.00000000000E+00 -0.57487166664E+03  0.57487166664E+03  0.00000000000E+00 0. -1.
         23    2    1    2    0    0  0.76052714703E+02 -0.13998997898E+03 -0.23816923420E+03  0.30116001722E+03  0.92690680328E+02 0.  0.
        254    2    1    2    0    0 -0.76052714703E+02  0.13998997898E+03  0.38247520153E+03  0.99288928340E+03  0.90230850582E+03 0.  0.
        -24    2    4    4    0    0 -0.22765704151E+03  0.68521742188E+02  0.63317938916E+03  0.68098374308E+03  0.79371038640E+02 0.  0.
         24    2    4    4    0    0  0.15160432681E+03  0.71468236793E+02 -0.25070418763E+03  0.31190554032E+03  0.79629740760E+02 0.  0.
         11    1    3    3    0    0  0.61326077923E+02 -0.14747624603E+03 -0.17978937767E+03  0.24048773628E+03  0.00000000000E+00 0. -1.
        -11    1    3    3    0    0  0.14726636780E+02  0.74862670536E+01 -0.58379856531E+02  0.60672280934E+02  0.00000000000E+00 0.  1.
          2    1    6    6  502    0  0.41112262941E+02  0.16393192976E+02 -0.16652848665E+02  0.47289240941E+02  0.00000000000E+00 0. -1.
          1    1    5    5  503    0 -0.28640634114E+02 -0.17141549681E+02  0.69611417272E+02  0.77200181752E+02  0.00000000000E+00 0. -1.
         -2    1    5    5    0  503 -0.19901640740E+03  0.85663291869E+02  0.56356797189E+03  0.60378356132E+03  0.00000000000E+00 0.  1.
         -1    1    6    6    0  502  0.11049206387E+03  0.55075043817E+02 -0.23405133896E+03  0.26461629938E+03  0.00000000000E+00 0.  1.
<mgrwt>
<rscale>  0 0.12859780E+04</rscale>
<asrwt>0</asrwt>
<pdfrwt beam="1">  1        1 0.88441796E-01 0.12859780E+04</pdfrwt>
<pdfrwt beam="2">  1       -1 0.11064271E+00 0.12859780E+04</pdfrwt>
<totfact> 0.26979048E+01</totfact>
</mgrwt>
</event>
<event>
12    1  0.1397649E-007  0.1848912E+04  0.7818608E-02  0.8680712E-01
          2   -1    0    0  501    0  0.00000000000E+00  0.00000000000E+00  0.31098813996E+04  0.31098813996E+04  0.00000000000E+00 0. -1.
         -2   -1    0    0    0  501 -0.00000000000E+00 -0.00000000000E+00 -0.27480760698E+03  0.27480760698E+03  0.00000000000E+00 0.  1.
         23    2    1    2    0    0 -0.42072076903E+03  0.55644226508E+03  0.12242110767E+04  0.14119856866E+04  0.91525182591E+02 0.  0.
        254    2    1    2    0    0  0.42072076903E+03 -0.55644226508E+03  0.16108627159E+04  0.19727033199E+04  0.90002541029E+03 0.  0.
        -24    2    4    4    0    0 -0.15919416186E+03  0.12764936928E+03  0.47592766452E+03  0.52400778122E+03  0.80248802308E+02 0.  0.
         24    2    4    4    0    0  0.57991493089E+03 -0.68409163435E+03  0.11349350513E+04  0.14486955387E+04  0.79740214431E+02 0.  0.
         11    1    3    3    0    0 -0.63249276050E+02  0.13151556265E+03  0.30398636975E+03  0.33720101888E+03  0.00000000000E+00 0. -1.
        -11    1    3    3    0    0 -0.35747149298E+03  0.42492670243E+03  0.92022470698E+03  0.10747846678E+04  0.00000000000E+00 0.  1.
          2    1    6    6  502    0  0.24945961800E+03 -0.24315130633E+03  0.40705792768E+03  0.53576936761E+03  0.00000000000E+00 0. -1.
          1    1    5    5  503    0 -0.59958149574E+02  0.95912889752E+01  0.18528758850E+03  0.19498323768E+03  0.00000000000E+00 0. -1.
         -2    1    5    5    0  503 -0.99236012286E+02  0.11805808030E+03  0.29064007602E+03  0.32902454354E+03  0.00000000000E+00 0.  1.
         -1    1    6    6    0  502  0.33045531290E+03 -0.44094032802E+03  0.72787712365E+03  0.91292617107E+03  0.00000000000E+00 0.  1.
<mgrwt>
<rscale>  0 0.18489122E+04</rscale>
<asrwt>0</asrwt>
<pdfrwt beam="1">  1        2 0.47844327E+00 0.18489122E+04</pdfrwt>
<pdfrwt beam="2">  1       -2 0.42278096E-01 0.18489122E+04</pdfrwt>
<totfact> 0.74266223E+00</totfact>
</mgrwt>
</event>
<event>
12    1  0.1397649E-007  0.1326195E+04  0.7818608E-02  0.9009047E-01
          2   -1    0    0  501    0  0.00000000000E+00  0.00000000000E+00  0.16880252466E+04  0.16880252466E+04  0.00000000000E+00 0. -1.
         -2   -1    0    0    0  501 -0.00000000000E+00 -0.00000000000E+00 -0.26048079472E+03  0.26048079472E+03  0.00000000000E+00 0.  1.
         23    2    1    2    0    0  0.75139601410E+02 -0.33814657295E+03  0.36361426231E+03  0.51126303372E+03  0.95840979742E+02 0.  0.
        254    2    1    2    0    0 -0.75139601410E+02  0.33814657295E+03  0.10639301896E+04  0.14372430076E+04  0.90207036870E+03 0.  0.
        -24    2    4    4    0    0 -0.98284665587E+02 -0.29122923432E+03  0.47525619437E+03  0.57139082506E+03  0.78388023683E+02 0.  0.
         24    2    4    4    0    0  0.23145064178E+02  0.62937580727E+03  0.58867399519E+03  0.86585218252E+03  0.80705195652E+02 0.  0.
         13    1    3    3    0    0  0.37585470443E+02 -0.24182407094E+03  0.19259446256E+03  0.31142282492E+03  0.00000000000E+00 0.  1.
        -13    1    3    3    0    0  0.37554130967E+02 -0.96322502010E+02  0.17101979975E+03  0.19984020880E+03  0.00000000000E+00 0. -1.
          4    1    6    6  502    0  0.48243947580E+01  0.60191196395E+03  0.55722206877E+03  0.82025466842E+03  0.00000000000E+00 0. -1.
          3    1    5    5  503    0 -0.20603951951E+02 -0.17967364460E+03  0.25674055549E+03  0.31404275861E+03  0.00000000000E+00 0. -1.
         -2    1    5    5    0  503 -0.77680713637E+02 -0.11155558971E+03  0.21851563888E+03  0.25734806644E+03  0.00000000000E+00 0.  1.
         -1    1    6    6    0  502  0.18320669420E+02  0.27463843314E+02  0.31451926412E+02  0.45597514105E+02  0.00000000000E+00 0.  1.
<mgrwt>
<rscale>  0 0.13261948E+04</rscale>
<asrwt>0</asrwt>
<pdfrwt beam="1">  1        2 0.25969618E+00 0.13261948E+04</pdfrwt>
<pdfrwt beam="2">  1       -2 0.40073969E-01 0.13261948E+04</pdfrwt>
<totfact> 0.57408082E+01</totfact>
</mgrwt>
</event>
<event>
12    1  0.1397649E-007  0.1103024E+04  0.7818608E-02  0.9202249E-01
         -2   -1    0    0    0  501 -0.00000000000E+00  0.00000000000E+00  0.57705711898E+03  0.57705711898E+03  0.00000000000E+00 0.  1.
          2   -1    0    0  501    0  0.00000000000E+00 -0.00000000000E+00 -0.52709809994E+03  0.52709809994E+03  0.00000000000E+00 0. -1.
         23    2    1    2    0    0  0.13727978474E+03  0.94278751070E+02 -0.37633432822E+02  0.19311186817E+03  0.90231347983E+02 0.  0.
        254    2    1    2    0    0 -0.13727978474E+03 -0.94278751070E+02  0.87592451863E+02  0.91104335075E+03  0.89139964500E+03 0.  0.
        -24    2    4    4    0    0  0.35230311813E+03 -0.17288291350E+03  0.83260414561E+02  0.40896262312E+03  0.79448987706E+02 0.  0.
         24    2    4    4    0    0 -0.48958290287E+03  0.78604162428E+02  0.43320373016E+01  0.50208072763E+03  0.78716309467E+02 0.  0.
         11    1    3    3    0    0  0.14103587688E+03  0.57431966265E+02 -0.32628571419E+02  0.15573751310E+03  0.00000000000E+00 0. -1.
        -11    1    3    3    0    0 -0.37560921348E+01  0.36846784805E+02 -0.50048614032E+01  0.37374355062E+02  0.00000000000E+00 0.  1.
          2    1    6    6  502    0 -0.50020930807E+02 -0.88684756781E+01  0.17431149869E+02  0.53708364017E+02  0.00000000000E+00 0. -1.
          1    1    5    5  503    0  0.51439737083E+02 -0.26046853141E+01  0.28743683667E+02  0.58983305160E+02  0.00000000000E+00 0. -1.
         -2    1    5    5    0  503  0.30086338105E+03 -0.17027822818E+03  0.54516730894E+02  0.34997931796E+03  0.00000000000E+00 0.  1.
         -3    1    6    6    0  502 -0.43956197207E+03  0.87472638106E+02 -0.13099112567E+02  0.44837236362E+03  0.00000000000E+00 0.  1.
<mgrwt>
<rscale>  0 0.11030244E+04</rscale>
<asrwt>0</asrwt>
<pdfrwt beam="1">  1        2 0.81092016E-01 0.11030244E+04</pdfrwt>
<pdfrwt beam="2">  1       -2 0.88778018E-01 0.11030244E+04</pdfrwt>
<totfact> 0.62708028E+01</totfact>
</mgrwt>
</event>
<event>
12    1  0.1397649E-007  0.2176707E+04  0.7818608E-02  0.8528186E-01
          1   -1    0    0  501    0  0.00000000000E+00  0.00000000000E+00  0.89043139617E+03  0.89043139617E+03  0.00000000000E+00 0. -1.
         -1   -1    0    0    0  501 -0.00000000000E+00 -0.00000000000E+00 -0.13302688209E+04  0.13302688209E+04  0.00000000000E+00 0.  1.
         23    2    1    2    0    0  0.25273364068E+03  0.38117205311E+03 -0.96266694810E+03  0.10694248252E+04  0.88178096236E+02 0.  0.
        254    2    1    2    0    0 -0.25273364068E+03 -0.38117205311E+03  0.52282952335E+03  0.11512753918E+04  0.91810559859E+03 0.  0.
        -24    2    4    4    0    0 -0.85118870495E+01 -0.12228410246E+02  0.67220017403E+03  0.67758393981E+03  0.83934112808E+02 0.  0.
         24    2    4    4    0    0 -0.24422175363E+03 -0.36894364287E+03 -0.14937065067E+03  0.47369145203E+03  0.79424957544E+02 0.  0.
         11    1    3    3    0    0  0.10442767410E+01  0.48380819238E+02 -0.10791097678E+03  0.11826484302E+03  0.00000000000E+00 0. -1.
        -11    1    3    3    0    0  0.25168936394E+03  0.33279123387E+03 -0.85475597131E+03  0.95115998221E+03  0.00000000000E+00 0.  1.
          4    1    6    6  502    0 -0.16483604876E+03 -0.21417063896E+03 -0.55009984128E+02  0.27580080478E+03  0.00000000000E+00 0. -1.
          3    1    5    5  503    0  0.45451135628E+01  0.30635428138E+02  0.13448747100E+03  0.13800749027E+03  0.00000000000E+00 0. -1.
         -4    1    5    5    0  503 -0.13057000612E+02 -0.42863838383E+02  0.53771270303E+03  0.53957644954E+03  0.00000000000E+00 0.  1.
         -3    1    6    6    0  502 -0.79385704871E+02 -0.15477300391E+03 -0.94360666547E+02  0.19789064725E+03  0.00000000000E+00 0.  1.
<mgrwt>
<rscale>  0 0.21767068E+04</rscale>
<asrwt>0</asrwt>
<pdfrwt beam="1">  1        1 0.13698945E+00 0.21767068E+04</pdfrwt>
<pdfrwt beam="2">  1       -1 0.20465674E+00 0.21767068E+04</pdfrwt>
<totfact> 0.23665460E+00</totfact>
</mgrwt>
</event>
<event>
12    1  0.1397649E-007  0.2677599E+04  0.7818608E-02  0.8342310E-01
         -2   -1    0    0    0  501 -0.00000000000E+00  0.00000000000E+00  0.14795736548E+04  0.14795736548E+04  0.00000000000E+00 0.  1.
          2   -1    0    0  501    0  0.00000000000E+00 -0.00000000000E+00 -0.12114193000E+04  0.12114193000E+04  0.00000000000E+00 0. -1.
         23    2    1    2    0    0  0.60576933519E+03  0.69270814414E+03  0.87087351999E+03  0.12701838790E+04  0.90251527050E+02 0.  0.
        254    2    1    2    0    0 -0.60576933519E+03 -0.69270814414E+03 -0.60271916519E+03  0.14208090758E+04  0.89923688615E+03 0.  0.
        -24    2    4    4    0    0 -0.16233882154E+03 -0.45565229286E+03 -0.74476331887E+03  0.89198686554E+03  0.83637684016E+02 0.  0.
         24    2    4    4    0    0 -0.44343051365E+03 -0.23705585129E+03  0.14204415368E+03  0.52882221028E+03  0.81549318966E+02 0.  0.
         11    1    3    3    0    0  0.25050903538E+03  0.27520168569E+03  0.41290983234E+03  0.55586443874E+03  0.00000000000E+00 0. -1.
        -11    1    3    3    0    0  0.35526029981E+03  0.41750645845E+03  0.45796368765E+03  0.71431944022E+03  0.00000000000E+00 0.  1.
          2    1    6    6  502    0 -0.13476108384E+03 -0.81840877752E+02  0.83460221822E+02  0.17839307054E+03  0.00000000000E+00 0. -1.
          1    1    5    5  503    0 -0.82914751638E+02 -0.13400294124E+03 -0.20356575325E+03  0.25743088431E+03  0.00000000000E+00 0. -1.
         -2    1    5    5    0  503 -0.79424069904E+02 -0.32164935162E+03 -0.54119756563E+03  0.63455598123E+03  0.00000000000E+00 0.  1.
         -1    1    6    6    0  502 -0.30866942981E+03 -0.15521497353E+03  0.58583931862E+02  0.35042913974E+03  0.00000000000E+00 0.  1.
<mgrwt>
<rscale>  0 0.26775990E+04</rscale>
<asrwt>0</asrwt>
<pdfrwt beam="1">  1        2 0.18637220E+00 0.26775990E+04</pdfrwt>
<pdfrwt beam="2">  1       -2 0.22762672E+00 0.26775990E+04</pdfrwt>
<totfact> 0.14499234E+00</totfact>
</mgrwt>
</event>
<event>
12    1  0.1397649E-007  0.1537637E+04  0.7818608E-02  0.8859804E-01
         -1   -1    0    0    0  501 -0.00000000000E+00  0.00000000000E+00  0.37939956469E+03  0.37939956469E+03  0.00000000000E+00 0.  1.
          1   -1    0    0  501    0  0.00000000000E+00 -0.00000000000E+00 -0.15579397523E+04  0.15579397523E+04  0.00000000000E+00 0. -1.
         23    2    1    2    0    0  0.15812234494E+03  0.25174199733E+03 -0.92933883211E+03  0.97983181679E+03  0.89571285220E+02 0.  0.
        254    2    1    2    0    0 -0.15812234494E+03 -0.25174199733E+03 -0.24920135546E+03  0.95750750016E+03  0.87540995431E+03 0.  0.
        -24    2    4    4    0    0 -0.30887625028E+03 -0.45164619227E+03  0.54730964083E+02  0.55572103633E+03  0.80259397062E+02 0.  0.
         24    2    4    4    0    0  0.15075390535E+03  0.19990419494E+03 -0.30393231954E+03  0.40178646383E+03  0.79806519303E+02 0.  0.
         13    1    3    3    0    0  0.16922258489E+03  0.23402598570E+03 -0.88211839693E+03  0.92819034224E+03  0.00000000000E+00 0. -1.
        -13    1    3    3    0    0 -0.11100239958E+02  0.17716011632E+02 -0.47220435184E+02  0.51641474555E+02  0.00000000000E+00 0.  1.
          4    1    6    6  502    0  0.50815542656E+02  0.80308311316E+02 -0.60246036121E+02  0.11252212720E+03  0.00000000000E+00 0. -1.
          1    1    5    5  503    0 -0.27036568645E+03 -0.38093854225E+03  0.18683067151E+02  0.46750490305E+03  0.00000000000E+00 0. -1.
         -2    1    5    5    0  503 -0.38510563831E+02 -0.70707650017E+02  0.36047896933E+02  0.88216133279E+02  0.00000000000E+00 0.  1.
         -3    1    6    6    0  502  0.99938362689E+02  0.11959588362E+03 -0.24368628342E+03  0.28926433663E+03  0.00000000000E+00 0.  1.
<mgrwt>
<rscale>  0 0.15376367E+04</rscale>
<asrwt>0</asrwt>
<pdfrwt beam="1">  1        1 0.23968304E+00 0.15376367E+04</pdfrwt>
<pdfrwt beam="2">  1       -1 0.58369164E-01 0.15376367E+04</pdfrwt>
<totfact> 0.17108568E+01</totfact>
</mgrwt>
</event>
<event>
12    1  0.1397649E-007  0.1850301E+04  0.7818608E-02  0.8679998E-01
          2   -1    0    0  501    0  0.00000000000E+00  0.00000000000E+00  0.95201927016E+03  0.95201927016E+03  0.00000000000E+00 0. -1.
         -2   -1    0    0    0  501 -0.00000000000E+00 -0.00000000000E+00 -0.89904026804E+03  0.89904026804E+03  0.00000000000E+00 0.  1.
         23    2    1    2    0    0 -0.37430059015E+03  0.56463120265E+03  0.21366011865E+03  0.71629962834E+03  0.92331925481E+02 0.  0.
        254    2    1    2    0    0  0.37430059015E+03 -0.56463120265E+03 -0.16068111653E+03  0.11347599099E+04  0.89607605984E+03 0.  0.
        -24    2    4    4    0    0  0.62769608043E+03 -0.27800613173E+03 -0.24736301014E+03  0.73404826524E+03  0.79678216909E+02 0.  0.
         24    2    4    4    0    0 -0.25339549028E+03 -0.28662507091E+03  0.86681893613E+02  0.40071164462E+03  0.81809936321E+02 0.  0.
         11    1    3    3    0    0 -0.29536444800E+03  0.38650678938E+03  0.12502217178E+03  0.50225312226E+03  0.00000000000E+00 0. -1.
        -11    1    3    3    0    0 -0.78936142147E+02  0.17812441327E+03  0.88637946872E+02  0.21404650608E+03  0.00000000000E+00 0.  1.
          2    1    6    6  502    0 -0.17072188933E+03 -0.20100012546E+03  0.20469435833E+02  0.26451089153E+03  0.00000000000E+00 0. -1.
          1    1    5    5  503    0  0.52808423499E+03 -0.23940566706E+03 -0.17740259629E+03  0.60634949809E+03  0.00000000000E+00 0. -1.
         -2    1    5    5    0  503  0.99611845437E+02 -0.38600464671E+02 -0.69960413858E+02  0.12769876715E+03  0.00000000000E+00 0.  1.
         -1    1    6    6    0  502 -0.82673600944E+02 -0.85624945456E+02  0.66212457779E+02  0.13620075309E+03  0.00000000000E+00 0.  1.
<mgrwt>
<rscale>  0 0.18503012E+04</rscale>
<asrwt>0</asrwt>
<pdfrwt beam="1">  1        2 0.14646450E+00 0.18503012E+04</pdfrwt>
<pdfrwt beam="2">  1       -2 0.13831389E+00 0.18503012E+04</pdfrwt>
<totfact> 0.94320877E+00</totfact>
</mgrwt>
</event>
<event>
12    1  0.1397649E-007  0.1587067E+04  0.7818608E-02  0.8828533E-01
         -2   -1    0    0    0  501 -0.00000000000E+00  0.00000000000E+00  0.39878163425E+03  0.39878163425E+03  0.00000000000E+00 0.  1.
          2   -1    0    0  501    0  0.00000000000E+00 -0.00000000000E+00 -0.15790484371E+04  0.15790484371E+04  0.00000000000E+00 0. -1.
         23    2    1    2    0    0 -0.26859375981E+03 -0.15617982945E+03  0.13692922533E+03  0.35147469627E+03  0.90830074488E+02 0.  0.
        254    2    1    2    0    0  0.26859375981E+03  0.15617982945E+03 -0.13171960282E+04  0.16263553751E+04  0.90193773758E+03 0.  0.
        -24    2    4    4    0    0 -0.24921144924E+03  0.95449663922E+02 -0.94183954848E+02  0.29447746746E+03  0.81420984516E+02 0.  0.
         24    2    4    4    0    0  0.51780520905E+03  0.60730165525E+02 -0.12230120733E+04  0.13318779076E+04  0.79560302744E+02 0.  0.
         11    1    3    3    0    0 -0.16068840781E+03 -0.53916352844E+02  0.10512092661E+03  0.19944459562E+03  0.00000000000E+00 0.  1.
        -11    1    3    3    0    0 -0.10790535200E+03 -0.10226347660E+03  0.31808298725E+02  0.15203010065E+03  0.00000000000E+00 0. -1.
          4    1    6    6  502    0  0.46994056737E+03  0.73233717674E+02 -0.11401085210E+04  0.12353358871E+04  0.00000000000E+00 0. -1.
          1    1    5    5  503    0 -0.24924948415E+03  0.86072876397E+02 -0.76672305076E+02  0.27461334230E+03  0.00000000000E+00 0. -1.
         -4    1    5    5    0  503  0.38034915675E-01  0.93767875240E+01 -0.17511649772E+02  0.19864125167E+02  0.00000000000E+00 0.  1.
         -3    1    6    6    0  502  0.47864641677E+02 -0.12503552149E+02 -0.82903552278E+02  0.96542020486E+02  0.00000000000E+00 0.  1.
<mgrwt>
<rscale>  0 0.15870671E+04</rscale>
<asrwt>0</asrwt>
<pdfrwt beam="1">  1        2 0.24293053E+00 0.15870671E+04</pdfrwt>
<pdfrwt beam="2">  1       -2 0.61351021E-01 0.15870671E+04</pdfrwt>
<totfact> 0.27165712E+01</totfact>
</mgrwt>
</event>
<event>
12    1  0.1397649E-007  0.1490133E+04  0.7818608E-02  0.8891041E-01
         -2   -1    0    0    0  501 -0.00000000000E+00  0.00000000000E+00  0.19559172948E+03  0.19559172948E+03  0.00000000000E+00 0.  1.
          2   -1    0    0  501    0  0.00000000000E+00 -0.00000000000E+00 -0.28381780630E+04  0.28381780630E+04  0.00000000000E+00 0. -1.
         23    2    1    2    0    0  0.20685063857E+03 -0.14570408387E+03 -0.46460822968E+02  0.27348135847E+03  0.92825527871E+02 0.  0.
        254    2    1    2    0    0 -0.20685063857E+03  0.14570408387E+03 -0.25961255105E+04  0.27602884340E+04  0.90294391056E+03 0.  0.
        -24    2    4    4    0    0  0.34187203817E+03 -0.37764004406E+02 -0.98263604966E+03  0.10443344746E+04  0.82208748304E+02 0.  0.
         24    2    4    4    0    0 -0.54872267675E+03  0.18346808828E+03 -0.16134894609E+04  0.17159539593E+04  0.79953954774E+02 0.  0.
         11    1    3    3    0    0  0.17539454680E+03 -0.15499014250E+03 -0.53119082584E+02  0.24001422511E+03  0.00000000000E+00 0.  1.
        -11    1    3    3    0    0  0.31456091772E+02  0.92860586264E+01  0.66582596160E+01  0.33467133363E+02  0.00000000000E+00 0. -1.
          2    1    6    6  502    0 -0.19572638178E+03  0.25808604165E+02 -0.53429247877E+03  0.56959929200E+03  0.00000000000E+00 0. -1.
          1    1    5    5  503    0 -0.13075485434E+01 -0.88737578012E+01 -0.19132077018E+02  0.21130301269E+02  0.00000000000E+00 0. -1.
         -2    1    5    5    0  503  0.34317958671E+03 -0.28890246605E+02 -0.96350397265E+03  0.10232041734E+04  0.00000000000E+00 0.  1.
         -1    1    6    6    0  502 -0.35299629496E+03  0.15765948412E+03 -0.10791969821E+04  0.11463546673E+04  0.00000000000E+00 0.  1.
<mgrwt>
<rscale>  0 0.14901331E+04</rscale>
<asrwt>0</asrwt>
<pdfrwt beam="1">  1        2 0.43664278E+00 0.14901331E+04</pdfrwt>
<pdfrwt beam="2">  1       -2 0.30091035E-01 0.14901331E+04</pdfrwt>
<totfact> 0.21737698E+01</totfact>
</mgrwt>
</event>
<event>
12    1  0.1397649E-007  0.1749215E+04  0.7818608E-02  0.8733782E-01
         -1   -1    0    0    0  501 -0.00000000000E+00  0.00000000000E+00  0.11453829083E+04  0.11453829083E+04  0.00000000000E+00 0.  1.
          1   -1    0    0  501    0  0.00000000000E+00 -0.00000000000E+00 -0.66784534454E+03  0.66784534454E+03  0.00000000000E+00 0. -1.
         23    2    1    2    0    0  0.17308756323E+03  0.61540691407E+03  0.17091880184E+03  0.66812855617E+03  0.92182190832E+02 0.  0.
        254    2    1    2    0    0 -0.17308756323E+03 -0.61540691407E+03  0.30661876193E+03  0.11450996967E+04  0.89919590509E+03 0.  0.
        -24    2    4    4    0    0 -0.22428581857E+03  0.18147664935E+03  0.61698198876E+02  0.30597033365E+03  0.81075734076E+02 0.  0.
         24    2    4    4    0    0  0.51198255345E+02 -0.79688356342E+03  0.24492056306E+03  0.83912936304E+03  0.80668027734E+02 0.  0.
         11    1    3    3    0    0  0.17467995332E+03  0.51461848313E+03  0.12655979179E+03  0.55799879047E+03  0.00000000000E+00 0. -1.
        -11    1    3    3    0    0 -0.15923900969E+01  0.10078843094E+03  0.44359010055E+02  0.11012976569E+03  0.00000000000E+00 0.  1.
          2    1    6    6  502    0  0.11253597535E+02 -0.39207036926E+02  0.29729408828E+02  0.50474478217E+02  0.00000000000E+00 0. -1.
          1    1    5    5  503    0  0.18226946884E+01  0.18951800910E+02  0.13576143146E+02  0.23383854181E+02  0.00000000000E+00 0. -1.
         -2    1    5    5    0  503 -0.22610851326E+03  0.16252484844E+03  0.48122055730E+02  0.28258647947E+03  0.00000000000E+00 0.  1.
         -1    1    6    6    0  502  0.39944657811E+02 -0.75767652650E+03  0.21519115423E+03  0.78865488482E+03  0.00000000000E+00 0.  1.
<mgrwt>
<rscale>  0 0.17492154E+04</rscale>
<asrwt>0</asrwt>
<pdfrwt beam="1">  1        1 0.10274544E+00 0.17492154E+04</pdfrwt>
<pdfrwt beam="2">  1       -1 0.17621276E+00 0.17492154E+04</pdfrwt>
<totfact> 0.61433675E+00</totfact>
</mgrwt>
</event>
<event>
12    1  0.1397649E-007  0.1611274E+04  0.7818608E-02  0.8813652E-01
          2   -1    0    0  501    0  0.00000000000E+00  0.00000000000E+00  0.12811390414E+04  0.12811390414E+04  0.00000000000E+00 0. -1.
         -2   -1    0    0    0  501 -0.00000000000E+00 -0.00000000000E+00 -0.50662027483E+03  0.50662027483E+03  0.00000000000E+00 0.  1.
         23    2    1    2    0    0  0.33040089940E+03  0.43610809382E+03  0.35047760357E+03  0.65611174254E+03  0.91066153313E+02 0.  0.
        254    2    1    2    0    0 -0.33040089940E+03 -0.43610809382E+03  0.42404116296E+03  0.11316475736E+04  0.89524315090E+03 0.  0.
        -24    2    4    4    0    0 -0.51447190996E+03 -0.35111993211E+02  0.99158863753E+01  0.52128251803E+03  0.75650119566E+02 0.  0.
         24    2    4    4    0    0  0.18407101056E+03 -0.40099610061E+03  0.41412527658E+03  0.61036505562E+03  0.79785630194E+02 0.  0.
         13    1    3    3    0    0  0.26292358756E+03  0.36706185504E+03  0.24726577703E+03  0.51478498698E+03  0.00000000000E+00 0.  1.
        -13    1    3    3    0    0  0.67477311839E+02  0.69046238777E+02  0.10321182654E+03  0.14132675557E+03  0.00000000000E+00 0. -1.
          2    1    6    6  502    0  0.10142577551E+03 -0.13895055684E+03  0.13485520563E+03  0.21858721753E+03  0.00000000000E+00 0. -1.
          3    1    5    5  503    0 -0.50231996434E+02 -0.20308703636E+02  0.16892272100E+02  0.56754257689E+02  0.00000000000E+00 0. -1.
         -4    1    5    5    0  503 -0.46423991353E+03 -0.14803289576E+02 -0.69763857243E+01  0.46452826034E+03  0.00000000000E+00 0.  1.
         -1    1    6    6    0  502  0.82645235054E+02 -0.26204554377E+03  0.27927007095E+03  0.39177783809E+03  0.00000000000E+00 0.  1.
<mgrwt>
<rscale>  0 0.16112740E+04</rscale>
<asrwt>0</asrwt>
<pdfrwt beam="1">  1        2 0.19709831E+00 0.16112740E+04</pdfrwt>
<pdfrwt beam="2">  1       -2 0.77941581E-01 0.16112740E+04</pdfrwt>
<totfact> 0.23812610E+01</totfact>
</mgrwt>
</event>
<event>
12    1  0.1397649E-007  0.2279748E+04  0.7818608E-02  0.8485949E-01
          1   -1    0    0  501    0  0.00000000000E+00  0.00000000000E+00  0.25606461325E+04  0.25606461325E+04  0.00000000000E+00 0. -1.
         -1   -1    0    0    0  501 -0.00000000000E+00 -0.00000000000E+00 -0.50741577208E+03  0.50741577208E+03  0.00000000000E+00 0.  1.
         23    2    1    2    0    0  0.59845013223E+03 -0.71740268008E+03  0.71082747939E+03  0.11776925087E+04  0.94206015893E+02 0.  0.
        254    2    1    2    0    0 -0.59845013223E+03  0.71740268008E+03  0.13424028810E+04  0.18903693959E+04  0.94796718916E+03 0.  0.
        -24    2    4    4    0    0  0.13140555995E+03  0.49824803034E+03  0.31730693676E+03  0.61050443913E+03  0.80705992042E+02 0.  0.
         24    2    4    4    0    0 -0.72985569217E+03  0.21915464974E+03  0.10250959443E+04  0.12798649567E+04  0.80712580614E+02 0.  0.
         13    1    3    3    0    0  0.76320336156E+01  0.14967268236E+01  0.22620395583E+01  0.80996883433E+01  0.00000000000E+00 0.  1.
        -13    1    3    3    0    0  0.59081809861E+03 -0.71889940690E+03  0.70856543983E+03  0.11695928203E+04  0.00000000000E+00 0. -1.
          4    1    6    6  502    0 -0.34450898424E+03  0.13847806845E+03  0.53499104769E+03  0.65121274310E+03  0.00000000000E+00 0. -1.
          1    1    5    5  503    0  0.64710386158E+02  0.20999175166E+03  0.90239716416E+02  0.23754405120E+03  0.00000000000E+00 0. -1.
         -2    1    5    5    0  503  0.66695173789E+02  0.28825627868E+03  0.22706722034E+03  0.37296038792E+03  0.00000000000E+00 0.  1.
         -3    1    6    6    0  502 -0.38534670793E+03  0.80676581283E+02  0.49010489656E+03  0.62865221364E+03  0.00000000000E+00 0.  1.
<mgrwt>
<rscale>  0 0.22797476E+04</rscale>
<asrwt>0</asrwt>
<pdfrwt beam="1">  1        1 0.39394555E+00 0.22797476E+04</pdfrwt>
<pdfrwt beam="2">  1       -1 0.78063966E-01 0.22797476E+04</pdfrwt>
<totfact> 0.18290047E+00</totfact>
</mgrwt>
</event>
<event>
12    1  0.1397649E-007  0.1583571E+04  0.7818608E-02  0.8830705E-01
         -2   -1    0    0    0  501 -0.00000000000E+00  0.00000000000E+00  0.22444294100E+03  0.22444294100E+03  0.00000000000E+00 0.  1.
          2   -1    0    0  501    0  0.00000000000E+00 -0.00000000000E+00 -0.27932451754E+04  0.27932451754E+04  0.00000000000E+00 0. -1.
         23    2    1    2    0    0 -0.25503734877E+03  0.13134851497E+03 -0.17235897713E+04  0.17490356153E+04  0.77893531745E+02 0.  0.
        254    2    1    2    0    0  0.25503734877E+03 -0.13134851497E+03 -0.84521246305E+03  0.12686525010E+04  0.90155342549E+03 0.  0.
        -24    2    4    4    0    0 -0.31489420036E+03  0.38321259505E+02 -0.42346546410E+03  0.53519961541E+03  0.80552794520E+02 0.  0.
         24    2    4    4    0    0  0.56993154914E+03 -0.16966977447E+03 -0.42174699896E+03  0.73345288561E+03  0.80453720968E+02 0.  0.
         13    1    3    3    0    0 -0.21792079725E+03  0.11861038422E+03 -0.16064743226E+04  0.16255207308E+04  0.00000000000E+00 0. -1.
        -13    1    3    3    0    0 -0.37116551529E+02  0.12738130752E+02 -0.11711544869E+03  0.12351488450E+03  0.00000000000E+00 0.  1.
          4    1    6    6  502    0  0.20835004850E+03 -0.10234835693E+03 -0.15543118738E+03  0.27936317382E+03  0.00000000000E+00 0. -1.
          1    1    5    5  503    0 -0.73772000763E+02  0.16393162081E+01 -0.49951468824E+02  0.89107489539E+02  0.00000000000E+00 0. -1.
         -2    1    5    5    0  503 -0.24112219960E+03  0.36681943296E+02 -0.37351399527E+03  0.44609212587E+03  0.00000000000E+00 0.  1.
         -3    1    6    6    0  502  0.36158150063E+03 -0.67321417539E+02 -0.26631581158E+03  0.45408971179E+03  0.00000000000E+00 0.  1.
<mgrwt>
<rscale>  0 0.15835709E+04</rscale>
<asrwt>0</asrwt>
<pdfrwt beam="1">  1        2 0.42973001E+00 0.15835709E+04</pdfrwt>
<pdfrwt beam="2">  1       -2 0.34529684E-01 0.15835709E+04</pdfrwt>
<totfact> 0.17695949E+01</totfact>
</mgrwt>
</event>
<event>
12    1  0.1397649E-007  0.1976263E+04  0.7818608E-02  0.8617800E-01
         -4   -1    0    0    0  501 -0.00000000000E+00  0.00000000000E+00  0.44155531129E+03  0.44155531129E+03  0.00000000000E+00 0.  1.
          4   -1    0    0  501    0  0.00000000000E+00 -0.00000000000E+00 -0.22112824659E+04  0.22112824659E+04  0.00000000000E+00 0. -1.
         23    2    1    2    0    0 -0.70612499964E+03 -0.13728631985E+03 -0.29811199587E+03  0.78409762561E+03  0.92077552505E+02 0.  0.
        254    2    1    2    0    0  0.70612499964E+03  0.13728631985E+03 -0.14716151587E+04  0.18687401516E+04  0.89948792653E+03 0.  0.
        -24    2    4    4    0    0  0.30649176691E+03  0.76550098731E+01 -0.13999610065E+04  0.14353094629E+04  0.78909013128E+02 0.  0.
         24    2    4    4    0    0  0.39963323273E+03  0.12963130998E+03 -0.71654152214E+02  0.43343068861E+03  0.78846985183E+02 0.  0.
         11    1    3    3    0    0 -0.45531991691E+03 -0.55600223957E+02 -0.15616438253E+03  0.48455642190E+03  0.00000000000E+00 0.  1.
        -11    1    3    3    0    0 -0.25080508273E+03 -0.81686095895E+02 -0.14194761334E+03  0.29954120371E+03  0.00000000000E+00 0. -1.
          2    1    6    6  502    0  0.37980237888E+03  0.12058227238E+03 -0.48163788752E+02  0.40138470569E+03  0.00000000000E+00 0. -1.
          3    1    5    5  503    0  0.28107551224E+03 -0.12313692802E+02 -0.11855621942E+04  0.12184879100E+04  0.00000000000E+00 0. -1.
         -4    1    5    5    0  503  0.25416254668E+02  0.19968702675E+02 -0.21439881230E+03  0.21682155290E+03  0.00000000000E+00 0.  1.
         -1    1    6    6    0  502  0.19830853852E+02  0.90490376009E+01 -0.23490363462E+02  0.32045982924E+02  0.00000000000E+00 0.  1.
<mgrwt>
<rscale>  0 0.19762627E+04</rscale>
<asrwt>0</asrwt>
<pdfrwt beam="1">  1        4 0.34019730E+00 0.19762627E+04</pdfrwt>
<pdfrwt beam="2">  1       -4 0.67931586E-01 0.19762627E+04</pdfrwt>
<totfact> 0.64173855E-02</totfact>
</mgrwt>
</event>
<event>
12    1  0.1397649E-007  0.1949484E+04  0.7818608E-02  0.8630610E-01
          2   -1    0    0  501    0  0.00000000000E+00  0.00000000000E+00  0.78731880340E+03  0.78731880340E+03  0.00000000000E+00 0.  1.
         -2   -1    0    0    0  501 -0.00000000000E+00 -0.00000000000E+00 -0.12067817022E+04  0.12067817022E+04  0.00000000000E+00 0. -1.
         23    2    1    2    0    0  0.47339481473E+03 -0.52177193158E+03 -0.46649469840E+03  0.85129520015E+03  0.10362246363E+03 0.  0.
        254    2    1    2    0    0 -0.47339481473E+03  0.52177193158E+03  0.47031799615E+02  0.11428053054E+04  0.89857853121E+03 0.  0.
        -24    2    4    4    0    0  0.15155920943E+03  0.18054313045E+03 -0.26310212277E+03  0.36204472684E+03  0.79294648672E+02 0.  0.
         24    2    4    4    0    0 -0.62495402416E+03  0.34122880113E+03  0.31013392239E+03  0.78076057859E+03  0.79996276401E+02 0.  0.
         11    1    3    3    0    0  0.41719697728E+03 -0.43334871537E+03 -0.35581260932E+03  0.69888986250E+03  0.00000000000E+00 0. -1.
        -11    1    3    3    0    0  0.56197837448E+02 -0.88423216214E+02 -0.11068208909E+03  0.15240533765E+03  0.00000000000E+00 0.  1.
          2    1    6    6  502    0 -0.87218363467E+02  0.59806019571E+02  0.18328875477E+02  0.10733010099E+03  0.00000000000E+00 0. -1.
          1    1    5    5  503    0  0.11165865454E+03  0.96475493933E+02 -0.11478092461E+03  0.18694875426E+03  0.00000000000E+00 0. -1.
         -2    1    5    5    0  503  0.39900554888E+02  0.84067636517E+02 -0.14832119816E+03  0.17509597258E+03  0.00000000000E+00 0.  1.
         -1    1    6    6    0  502 -0.53773566069E+03  0.28142278156E+03  0.29180504691E+03  0.67343047760E+03  0.00000000000E+00 0.  1.
<mgrwt>
<rscale>  0 0.19494840E+04</rscale>
<asrwt>0</asrwt>
<pdfrwt beam="1">  1        2 0.12112597E+00 0.19494840E+04</pdfrwt>
<pdfrwt beam="2">  1       -2 0.18565872E+00 0.19494840E+04</pdfrwt>
<totfact> 0.54400684E+00</totfact>
</mgrwt>
</event>
<event>
12    1  0.1397649E-007  0.2829524E+04  0.7818608E-02  0.8294161E-01
          2   -1    0    0  501    0  0.00000000000E+00  0.00000000000E+00  0.26788912977E+04  0.26788912977E+04  0.00000000000E+00 0. -1.
         -2   -1    0    0    0  501 -0.00000000000E+00 -0.00000000000E+00 -0.74715648444E+03  0.74715648444E+03  0.00000000000E+00 0.  1.
         23    2    1    2    0    0  0.50962861319E+03  0.83609598278E+03 -0.11009549723E+03  0.98963918737E+03  0.92124301139E+02 0.  0.
        254    2    1    2    0    0 -0.50962861319E+03 -0.83609598278E+03  0.20418303105E+04  0.24364085948E+04  0.89902058267E+03 0.  0.
        -24    2    4    4    0    0 -0.15278345101E+03 -0.65486823819E+03  0.18788038741E+04  0.19970569990E+04  0.78341991642E+02 0.  0.
         24    2    4    4    0    0 -0.35684516219E+03 -0.18122774458E+03  0.16302643635E+03  0.43935159574E+03  0.79184850477E+02 0.  0.
         11    1    3    3    0    0  0.21661861898E+02  0.85675680455E+02 -0.10607495698E+02  0.89006052869E+02  0.00000000000E+00 0. -1.
        -11    1    3    3    0    0  0.48796675129E+03  0.75042030232E+03 -0.99488001532E+02  0.90063313450E+03  0.00000000000E+00 0.  1.
          4    1    6    6  502    0 -0.95397507778E+02 -0.75715172542E+02  0.78962516411E+02  0.14515009763E+03  0.00000000000E+00 0. -1.
          3    1    5    5  503    0 -0.39045419007E+01 -0.22837639874E+02  0.32605745966E+02  0.39999223898E+02  0.00000000000E+00 0. -1.
         -4    1    5    5    0  503 -0.14887890911E+03 -0.63203059832E+03  0.18461981281E+04  0.19570577751E+04  0.00000000000E+00 0.  1.
         -3    1    6    6    0  502 -0.26144765441E+03 -0.10551257204E+03  0.84063919941E+02  0.29420149811E+03  0.00000000000E+00 0.  1.
<mgrwt>
<rscale>  0 0.28295236E+04</rscale>
<asrwt>0</asrwt>
<pdfrwt beam="1">  1        2 0.41213712E+00 0.28295236E+04</pdfrwt>
<pdfrwt beam="2">  1       -2 0.11494715E+00 0.28295236E+04</pdfrwt>
<totfact> 0.14002264E+00</totfact>
</mgrwt>
</event>
<event>
12    1  0.1397649E-007  0.2710021E+04  0.7818608E-02  0.8331761E-01
         -1   -1    0    0    0  501 -0.00000000000E+00  0.00000000000E+00  0.74060531577E+03  0.74060531577E+03  0.00000000000E+00 0.  1.
          1   -1    0    0  501    0  0.00000000000E+00 -0.00000000000E+00 -0.24791247261E+04  0.24791247261E+04  0.00000000000E+00 0. -1.
         23    2    1    2    0    0 -0.83451356169E+03  0.86448720298E+03 -0.88611892572E+03  0.14958679363E+04  0.93075901478E+02 0.  0.
        254    2    1    2    0    0  0.83451356169E+03 -0.86448720298E+03 -0.85240048463E+03  0.17238621056E+04  0.89518878695E+03 0.  0.
        -24    2    4    4    0    0  0.48081597028E+03 -0.56947481949E+03 -0.98538710391E+03  0.12380300119E+04  0.79025302223E+02 0.  0.
         24    2    4    4    0    0  0.35369759140E+03 -0.29501238349E+03  0.13298661928E+03  0.48583209378E+03  0.78823155616E+02 0.  0.
         11    1    3    3    0    0 -0.14019454308E+03  0.10086204087E+03 -0.14017910242E+03  0.22243615253E+03  0.00000000000E+00 0. -1.
        -11    1    3    3    0    0 -0.69431901861E+03  0.76362516211E+03 -0.74593982330E+03  0.12734317837E+04  0.00000000000E+00 0.  1.
          4    1    6    6  502    0  0.11665842866E+03 -0.10020719556E+03  0.83675377159E+02  0.17507781059E+03  0.00000000000E+00 0. -1.
          1    1    5    5  503    0  0.59577066114E+02 -0.10906596852E+03 -0.19050968413E+03  0.22746153970E+03  0.00000000000E+00 0. -1.
         -2    1    5    5    0  503  0.42123890417E+03 -0.46040885098E+03 -0.79487741978E+03  0.10105684722E+04  0.00000000000E+00 0.  1.
         -3    1    6    6    0  502  0.23703916275E+03 -0.19480518793E+03  0.49311242117E+02  0.31075428318E+03  0.00000000000E+00 0.  1.
<mgrwt>
<rscale>  0 0.27100206E+04</rscale>
<asrwt>0</asrwt>
<pdfrwt beam="1">  1        1 0.38140381E+00 0.27100206E+04</pdfrwt>
<pdfrwt beam="2">  1       -1 0.11393928E+00 0.27100206E+04</pdfrwt>
<totfact> 0.85724875E-01</totfact>
</mgrwt>
</event>
<event>
12    1  0.1397649E-007  0.1301569E+04  0.7818608E-02  0.9028321E-01
          1   -1    0    0  501    0  0.00000000000E+00  0.00000000000E+00  0.52613605147E+03  0.52613605147E+03  0.00000000000E+00 0. -1.
         -1   -1    0    0    0  501 -0.00000000000E+00 -0.00000000000E+00 -0.80496439822E+03  0.80496439822E+03  0.00000000000E+00 0.  1.
         23    2    1    2    0    0 -0.31441652059E+03  0.66083642459E+02  0.17646443737E+02  0.33457137094E+03  0.91661382572E+02 0.  0.
        254    2    1    2    0    0  0.31441652059E+03 -0.66083642459E+02 -0.29647479048E+03  0.99652907875E+03  0.89551555385E+03 0.  0.
        -24    2    4    4    0    0  0.44084868195E+03  0.19147895803E+03 -0.44845889038E+03  0.66219344202E+03  0.79831237992E+02 0.  0.
         24    2    4    4    0    0 -0.12643216136E+03 -0.25756260049E+03  0.15198409990E+03  0.33433563672E+03  0.79734351236E+02 0.  0.
         11    1    3    3    0    0 -0.61592278662E+02 -0.94841271724E+01 -0.25235201490E+02  0.67233718128E+02  0.00000000000E+00 0. -1.
        -11    1    3    3    0    0 -0.25282424193E+03  0.75567769631E+02  0.42881645227E+02  0.26733765281E+03  0.00000000000E+00 0.  1.
          2    1    6    6  502    0 -0.25837674181E+01 -0.21280303840E+02 -0.84444174994E+01  0.23039864854E+02  0.00000000000E+00 0. -1.
          3    1    5    5  503    0  0.18434360039E+03  0.67749009195E+02 -0.23514471234E+03  0.30637481455E+03  0.00000000000E+00 0. -1.
         -4    1    5    5    0  503  0.25650508156E+03  0.12372994884E+03 -0.21331417804E+03  0.35581862747E+03  0.00000000000E+00 0.  1.
         -1    1    6    6    0  502 -0.12384839394E+03 -0.23628229665E+03  0.16042851740E+03  0.31129577187E+03  0.00000000000E+00 0.  1.
<mgrwt>
<rscale>  0 0.13015695E+04</rscale>
<asrwt>0</asrwt>
<pdfrwt beam="1">  1        1 0.80944008E-01 0.13015695E+04</pdfrwt>
<pdfrwt beam="2">  1       -1 0.12384068E+00 0.13015695E+04</pdfrwt>
<totfact> 0.23240707E+01</totfact>
</mgrwt>
</event>
<event>
12    1  0.1397649E-007  0.1618118E+04  0.7818608E-02  0.8809494E-01
         -2   -1    0    0    0  501 -0.00000000000E+00  0.00000000000E+00  0.33009790862E+03  0.33009790862E+03  0.00000000000E+00 0.  1.
          2   -1    0    0  501    0  0.00000000000E+00 -0.00000000000E+00 -0.19829769475E+04  0.19829769475E+04  0.00000000000E+00 0. -1.
         23    2    1    2    0    0 -0.20079448943E+03 -0.43102047259E+03 -0.38202533850E+03  0.61664320440E+03  0.90600262196E+02 0.  0.
        254    2    1    2    0    0  0.20079448943E+03  0.43102047259E+03 -0.12708537004E+04  0.16964316517E+04  0.10181916060E+04 0.  0.
        -24    2    4    4    0    0 -0.29930901426E+03  0.18879362018E+03 -0.68308209329E+02  0.36931386830E+03  0.80608962383E+02 0.  0.
         24    2    4    4    0    0  0.50010350369E+03  0.24222685240E+03 -0.12025454911E+04  0.13271177834E+04  0.79678043412E+02 0.  0.
         11    1    3    3    0    0 -0.17701656742E+03 -0.39554109689E+03 -0.37557323466E+03  0.57344823573E+03  0.00000000000E+00 0.  1.
        -11    1    3    3    0    0 -0.23777922007E+02 -0.35479375693E+02 -0.64521038386E+01  0.43194968671E+02  0.00000000000E+00 0. -1.
          4    1    6    6  502    0  0.32347994510E+03  0.19393305494E+03 -0.76985785347E+03  0.85728082869E+03  0.00000000000E+00 0. -1.
          3    1    5    5  503    0 -0.20204484851E+03  0.89380034627E+02 -0.64605017363E+02  0.23018409951E+03  0.00000000000E+00 0. -1.
         -4    1    5    5    0  503 -0.97264165756E+02  0.99413585557E+02 -0.37031919667E+01  0.13912976879E+03  0.00000000000E+00 0.  1.
         -3    1    6    6    0  502  0.17662355859E+03  0.48293797465E+02 -0.43268763760E+03  0.46983695476E+03  0.00000000000E+00 0.  1.
<mgrwt>
<rscale>  0 0.16181181E+04</rscale>
<asrwt>0</asrwt>
<pdfrwt beam="1">  1        2 0.30507338E+00 0.16181181E+04</pdfrwt>
<pdfrwt beam="2">  1       -2 0.50784294E-01 0.16181181E+04</pdfrwt>
<totfact> 0.23973785E+01</totfact>
</mgrwt>
</event>
<event>
12    1  0.1397649E-007  0.1909218E+04  0.7818608E-02  0.8650282E-01
         -2   -1    0    0    0  501 -0.00000000000E+00  0.00000000000E+00  0.71548698683E+03  0.71548698683E+03  0.00000000000E+00 0.  1.
          2   -1    0    0  501    0  0.00000000000E+00 -0.00000000000E+00 -0.12736470536E+04  0.12736470536E+04  0.00000000000E+00 0. -1.
         23    2    1    2    0    0 -0.35149348630E+03 -0.50845399541E+03 -0.61756964969E+03  0.87906148415E+03  0.96351877728E+02 0.  0.
        254    2    1    2    0    0  0.35149348630E+03  0.50845399541E+03  0.59409582885E+02  0.11100725563E+04  0.92014044872E+03 0.  0.
        -24    2    4    4    0    0  0.24394648367E+03 -0.16867443082E+03  0.24797569397E+03  0.39495183083E+03  0.80833491614E+02 0.  0.
         24    2    4    4    0    0  0.10754700263E+03  0.67712842623E+03 -0.18856611109E+03  0.71512072549E+03  0.75968482812E+02 0.  0.
         11    1    3    3    0    0 -0.20911787644E+03 -0.36278117060E+03 -0.37299853567E+03  0.56077479579E+03  0.00000000000E+00 0.  1.
        -11    1    3    3    0    0 -0.14237560986E+03 -0.14567282481E+03 -0.24457111403E+03  0.31828668836E+03  0.00000000000E+00 0. -1.
          4    1    6    6  502    0  0.21861777858E+01  0.79586255994E+02  0.39710513730E+00  0.79617267028E+02  0.00000000000E+00 0. -1.
          3    1    5    5  503    0  0.27042906934E+02 -0.54329489428E+02  0.65594876873E+02  0.89362744524E+02  0.00000000000E+00 0. -1.
         -4    1    5    5    0  503  0.21690357673E+03 -0.11434494139E+03  0.18238081710E+03  0.30558908630E+03  0.00000000000E+00 0.  1.
         -3    1    6    6    0  502  0.10536082484E+03  0.59754217024E+03 -0.18896321623E+03  0.63550345846E+03  0.00000000000E+00 0.  1.
<mgrwt>
<rscale>  0 0.19092175E+04</rscale>
<asrwt>0</asrwt>
<pdfrwt beam="1">  1        2 0.19594570E+00 0.19092175E+04</pdfrwt>
<pdfrwt beam="2">  1       -2 0.11007492E+00 0.19092175E+04</pdfrwt>
<totfact> 0.10517149E+01</totfact>
</mgrwt>
</event>
<event>
12    1  0.1397649E-007  0.1549656E+04  0.7818608E-02  0.8852087E-01
          2   -1    0    0  501    0  0.00000000000E+00  0.00000000000E+00  0.75292846023E+03  0.75292846023E+03  0.00000000000E+00 0. -1.
         -2   -1    0    0    0  501 -0.00000000000E+00 -0.00000000000E+00 -0.79736458895E+03  0.79736458895E+03  0.00000000000E+00 0.  1.
         23    2    1    2    0    0  0.15366311571E+03 -0.12117162377E+03  0.48421012402E+03  0.52977973838E+03  0.88950612473E+02 0.  0.
        254    2    1    2    0    0 -0.15366311571E+03  0.12117162377E+03 -0.52864625274E+03  0.10205133108E+04  0.85069715026E+03 0.  0.
        -24    2    4    4    0    0  0.17373372495E+03  0.35118988714E+03 -0.45697303809E+03  0.60811248688E+03  0.86363737491E+02 0.  0.
         24    2    4    4    0    0 -0.32739684065E+03 -0.23001826337E+03 -0.71673214656E+02  0.41240082392E+03  0.69572243858E+02 0.  0.
         11    1    3    3    0    0  0.13016143015E+02  0.14071452128E+02  0.32553141563E+02  0.37777410838E+02  0.00000000000E+00 0.  1.
        -11    1    3    3    0    0  0.14064697269E+03 -0.13524307589E+03  0.45165698245E+03  0.49200232754E+03  0.00000000000E+00 0. -1.
          4    1    6    6  502    0 -0.31580357171E+03 -0.22489200518E+03 -0.55186320908E+02  0.39160418781E+03  0.00000000000E+00 0. -1.
          1    1    5    5  503    0  0.17771625736E+03  0.32084423464E+03 -0.39519663498E+03  0.53917016918E+03  0.00000000000E+00 0. -1.
         -2    1    5    5    0  503 -0.39825324125E+01  0.30345652496E+02 -0.61776403100E+02  0.68942317700E+02  0.00000000000E+00 0.  1.
         -3    1    6    6    0  502 -0.11593268947E+02 -0.51262581934E+01 -0.16486893748E+02  0.20796636107E+02  0.00000000000E+00 0.  1.
<mgrwt>
<rscale>  0 0.15496561E+04</rscale>
<asrwt>0</asrwt>
<pdfrwt beam="1">  1        2 0.11583515E+00 0.15496561E+04</pdfrwt>
<pdfrwt beam="2">  1       -2 0.12267147E+00 0.15496561E+04</pdfrwt>
<totfact> 0.18049329E+01</totfact>
</mgrwt>
</event>
<event>
12    1  0.1397649E-007  0.1771830E+04  0.7818608E-02  0.8721425E-01
          2   -1    0    0  501    0  0.00000000000E+00  0.00000000000E+00  0.96545787067E+03  0.96545787067E+03  0.00000000000E+00 0. -1.
         -2   -1    0    0    0  501 -0.00000000000E+00 -0.00000000000E+00 -0.81292579302E+03  0.81292579302E+03  0.00000000000E+00 0.  1.
         23    2    1    2    0    0 -0.38239139338E+03 -0.39566152856E+03  0.41560220807E+03  0.69557069476E+03  0.91225945575E+02 0.  0.
        254    2    1    2    0    0  0.38239139338E+03  0.39566152856E+03 -0.26307013043E+03  0.10828129689E+04  0.89471046112E+03 0.  0.
        -24    2    4    4    0    0 -0.18628949837E+03  0.37419966088E+03 -0.27717485377E+03  0.50806182000E+03  0.81066330664E+02 0.  0.
         24    2    4    4    0    0  0.56868089175E+03  0.21461867672E+02  0.14104723343E+02  0.57475114893E+03  0.79255104345E+02 0.  0.
         13    1    3    3    0    0 -0.20950216453E+02 -0.63467041513E+02  0.48342802755E+02  0.82486383762E+02  0.00000000000E+00 0.  1.
        -13    1    3    3    0    0 -0.36144117693E+03 -0.33219448704E+03  0.36725940532E+03  0.61308431100E+03  0.00000000000E+00 0. -1.
          4    1    6    6  502    0  0.46222007559E+03  0.48286949978E+02  0.14513213640E+02  0.46496199972E+03  0.00000000000E+00 0. -1.
          1    1    5    5  503    0 -0.10775865318E+03  0.17439630752E+03 -0.17835046974E+03  0.27172576151E+03  0.00000000000E+00 0. -1.
         -2    1    5    5    0  503 -0.78530845186E+02  0.19980335336E+03 -0.98824384028E+02  0.23633605848E+03  0.00000000000E+00 0.  1.
         -3    1    6    6    0  502  0.10646081617E+03 -0.26825082306E+02 -0.40849029698E+00  0.10978914921E+03  0.00000000000E+00 0.  1.
<mgrwt>
<rscale>  0 0.17718302E+04</rscale>
<asrwt>0</asrwt>
<pdfrwt beam="1">  1        2 0.14853198E+00 0.17718302E+04</pdfrwt>
<pdfrwt beam="2">  1       -2 0.12506551E+00 0.17718302E+04</pdfrwt>
<totfact> 0.12016967E+01</totfact>
</mgrwt>
</event>
<event>
12    1  0.1397649E-007  0.1159195E+04  0.7818608E-02  0.9149342E-01
         -2   -1    0    0    0  501 -0.00000000000E+00  0.00000000000E+00  0.29868681750E+03  0.29868681750E+03  0.00000000000E+00 0.  1.
          2   -1    0    0  501    0  0.00000000000E+00 -0.00000000000E+00 -0.11247014866E+04  0.11247014866E+04  0.00000000000E+00 0. -1.
         23    2    1    2    0    0 -0.20538059204E+03  0.43566130696E+02 -0.21227807365E+03  0.31222269865E+03  0.91333661221E+02 0.  0.
        254    2    1    2    0    0  0.20538059204E+03 -0.43566130696E+02 -0.61373659550E+03  0.11111656055E+04  0.90218468111E+03 0.  0.
        -24    2    4    4    0    0  0.42200677664E+03 -0.36079764083E+02  0.25651711547E+02  0.43148839216E+03  0.78311897917E+02 0.  0.
         24    2    4    4    0    0 -0.21662618461E+03 -0.74863666134E+01 -0.63938830705E+03  0.67967721333E+03  0.78490493587E+02 0.  0.
         13    1    3    3    0    0  0.50528091688E+01 -0.84803174870E+01 -0.17181763095E+01  0.10019919910E+02  0.00000000000E+00 0.  1.
        -13    1    3    3    0    0 -0.21043340121E+03  0.52046448183E+02 -0.21055989734E+03  0.30220277874E+03  0.00000000000E+00 0. -1.
          4    1    6    6  502    0 -0.21410205389E+03 -0.86273696182E+01 -0.55029759392E+03  0.59054344706E+03  0.00000000000E+00 0. -1.
          3    1    5    5  503    0  0.41548776875E+03 -0.23060524276E+02  0.25816716483E+02  0.41692730375E+03  0.00000000000E+00 0. -1.
         -4    1    5    5    0  503  0.65190078891E+01 -0.13019239807E+02 -0.16500493671E+00  0.14561088409E+02  0.00000000000E+00 0.  1.
         -3    1    6    6    0  502 -0.25241307123E+01  0.11410030048E+01 -0.89090713128E+02  0.89133766270E+02  0.00000000000E+00 0.  1.
<mgrwt>
<rscale>  0 0.11591954E+04</rscale>
<asrwt>0</asrwt>
<pdfrwt beam="1">  1        2 0.17303100E+00 0.11591954E+04</pdfrwt>
<pdfrwt beam="2">  1       -2 0.45951818E-01 0.11591954E+04</pdfrwt>
<totfact> 0.93416245E+01</totfact>
</mgrwt>
</event>
<event>
12    1  0.1397649E-007  0.1467131E+04  0.7818608E-02  0.8906609E-01
         -2   -1    0    0    0  501 -0.00000000000E+00  0.00000000000E+00  0.10666516338E+04  0.10666516338E+04  0.00000000000E+00 0.  1.
          2   -1    0    0  501    0  0.00000000000E+00 -0.00000000000E+00 -0.50449322804E+03  0.50449322804E+03  0.00000000000E+00 0. -1.
         23    2    1    2    0    0 -0.62731525543E+02  0.25220266221E+03 -0.21443373107E+03  0.34921593613E+03  0.91806959967E+02 0.  0.
        254    2    1    2    0    0  0.62731525543E+02 -0.25220266221E+03  0.77659213683E+03  0.12219289257E+04  0.90690326131E+03 0.  0.
        -24    2    4    4    0    0 -0.14413647282E+03 -0.52472144453E+03  0.29001246410E+03  0.62191214857E+03  0.80991197388E+02 0.  0.
         24    2    4    4    0    0  0.20686799836E+03  0.27251878232E+03  0.48657967273E+03  0.60001677714E+03  0.78736900334E+02 0.  0.
         13    1    3    3    0    0 -0.18790184951E+02  0.19610254749E+03 -0.19050163015E+03  0.27404406812E+03  0.00000000000E+00 0. -1.
        -13    1    3    3    0    0 -0.43941340592E+02  0.56100114725E+02 -0.23932100926E+02  0.75171868009E+02  0.00000000000E+00 0.  1.
          4    1    6    6  502    0  0.32064614317E+01  0.17711424007E+02  0.62230676727E+02  0.64781425279E+02  0.00000000000E+00 0. -1.
          3    1    5    5  503    0 -0.29138936958E+02 -0.58649054175E+02  0.63073161605E+02  0.90923115419E+02  0.00000000000E+00 0. -1.
         -4    1    5    5    0  503 -0.11499753586E+03 -0.46607239036E+03  0.22693930250E+03  0.53098903315E+03  0.00000000000E+00 0.  1.
         -3    1    6    6    0  502  0.20366153693E+03  0.25480735831E+03  0.42434899600E+03  0.53523535186E+03  0.00000000000E+00 0.  1.
<mgrwt>
<rscale>  0 0.14671312E+04</rscale>
<asrwt>0</asrwt>
<pdfrwt beam="1">  1        2 0.77614343E-01 0.14671312E+04</pdfrwt>
<pdfrwt beam="2">  1       -2 0.16410025E+00 0.14671312E+04</pdfrwt>
<totfact> 0.13858283E+01</totfact>
</mgrwt>
</event>
<event>
12    1  0.1397649E-007  0.2367128E+04  0.7818608E-02  0.8451914E-01
          2   -1    0    0  501    0  0.00000000000E+00  0.00000000000E+00  0.36996486423E+04  0.36996486423E+04  0.00000000000E+00 0.  1.
         -2   -1    0    0    0  501 -0.00000000000E+00 -0.00000000000E+00 -0.37863705785E+03  0.37863705785E+03  0.00000000000E+00 0. -1.
         23    2    1    2    0    0  0.41710732416E+03  0.91733387380E+03  0.13141235323E+04  0.16585817313E+04  0.92156092038E+02 0.  0.
        254    2    1    2    0    0 -0.41710732416E+03 -0.91733387380E+03  0.20068880522E+04  0.24197039689E+04  0.90104810484E+03 0.  0.
        -24    2    4    4    0    0 -0.36172940034E+00 -0.12846875861E+03 -0.63201284834E+02  0.16405230463E+03  0.80089971042E+02 0.  0.
         24    2    4    4    0    0 -0.41674559476E+03 -0.78886511519E+03  0.20700893370E+04  0.22556516643E+04  0.81911577988E+02 0.  0.
         13    1    3    3    0    0  0.27120830135E+03  0.53867221545E+03  0.72194357589E+03  0.94070411139E+03  0.00000000000E+00 0.  1.
        -13    1    3    3    0    0  0.14589902280E+03  0.37866165836E+03  0.59217995644E+03  0.71787761991E+03  0.00000000000E+00 0. -1.
          4    1    6    6  502    0 -0.12106053792E+03 -0.28521571854E+03  0.64630376743E+03  0.71673720410E+03  0.00000000000E+00 0. -1.
          3    1    5    5  503    0 -0.35587613761E+02 -0.54172436754E+02 -0.86807740651E+01  0.65394854503E+02  0.00000000000E+00 0. -1.
         -4    1    5    5    0  503  0.35225884361E+02 -0.74296321856E+02 -0.54520510768E+02  0.98657450123E+02  0.00000000000E+00 0.  1.
         -3    1    6    6    0  502 -0.29568505683E+03 -0.50364939665E+03  0.14237855696E+04  0.15389144602E+04  0.00000000000E+00 0.  1.
<mgrwt>
<rscale>  0 0.23671283E+04</rscale>
<asrwt>0</asrwt>
<pdfrwt beam="1">  1        2 0.56917669E+00 0.23671283E+04</pdfrwt>
<pdfrwt beam="2">  1       -2 0.58251858E-01 0.23671283E+04</pdfrwt>
<totfact> 0.14563308E+00</totfact>
</mgrwt>
</event>
<event>
12    1  0.1397649E-007  0.2873194E+04  0.7818608E-02  0.8280898E-01
         -2   -1    0    0    0  501 -0.00000000000E+00  0.00000000000E+00  0.14666971282E+04  0.14666971282E+04  0.00000000000E+00 0.  1.
          2   -1    0    0  501    0  0.00000000000E+00 -0.00000000000E+00 -0.14071146586E+04  0.14071146586E+04  0.00000000000E+00 0. -1.
         23    2    1    2    0    0 -0.10503467970E+04  0.74480478453E+03  0.14551678600E+03  0.12989990848E+04  0.90889637302E+02 0.  0.
        254    2    1    2    0    0  0.10503467970E+04 -0.74480478453E+03 -0.85934316438E+02  0.15748127020E+04  0.90260056420E+03 0.  0.
        -24    2    4    4    0    0  0.27868945113E+03  0.19409548926E+03  0.34447494338E+02  0.35090333354E+03  0.81275153060E+02 0.  0.
         24    2    4    4    0    0  0.77165734591E+03 -0.93890027379E+03 -0.12038181078E+03  0.12239093684E+04  0.80458549524E+02 0.  0.
         11    1    3    3    0    0 -0.75748403199E+02  0.47994073003E+02  0.33387689004E+02  0.95686934362E+02  0.00000000000E+00 0. -1.
        -11    1    3    3    0    0 -0.97459839383E+03  0.69681071152E+03  0.11212909699E+03  0.12033121504E+04  0.00000000000E+00 0.  1.
          4    1    6    6  502    0  0.27485073600E+03 -0.36812555194E+03 -0.12746201671E+02  0.45958874522E+03  0.00000000000E+00 0. -1.
          3    1    5    5  503    0  0.17087438457E+03  0.13396592319E+03 -0.15614984881E+02  0.21768957630E+03  0.00000000000E+00 0. -1.
         -4    1    5    5    0  503  0.10781506655E+03  0.60129566073E+02  0.50062479220E+02  0.13321375724E+03  0.00000000000E+00 0.  1.
         -3    1    6    6    0  502  0.49680660991E+03 -0.57077472184E+03 -0.10763560911E+03  0.76432062323E+03  0.00000000000E+00 0.  1.
<mgrwt>
<rscale>  0 0.28731941E+04</rscale>
<asrwt>0</asrwt>
<pdfrwt beam="1">  1        2 0.21647918E+00 0.28731941E+04</pdfrwt>
<pdfrwt beam="2">  1       -2 0.22564571E+00 0.28731941E+04</pdfrwt>
<totfact> 0.11290214E+00</totfact>
</mgrwt>
</event>
<event>
12    1  0.1422522E-007  0.1837424E+04  0.7818608E-02  0.8686647E-01
         -1   -1    0    0    0  501 -0.00000000000E+00  0.00000000000E+00  0.93589453724E+03  0.93589453724E+03  0.00000000000E+00 0.  1.
          1   -1    0    0  501    0  0.00000000000E+00 -0.00000000000E+00 -0.90184493850E+03  0.90184493850E+03  0.00000000000E+00 0. -1.
         23    2    1    2    0    0  0.53129377125E+03  0.45881836308E+03  0.97315104715E+02  0.71430746986E+03  0.89317244847E+02 0.  0.
        254    2    1    2    0    0 -0.53129377125E+03 -0.45881836308E+03 -0.63265505973E+02  0.11234320059E+04  0.87481974481E+03 0.  0.
        -24    2    4    4    0    0 -0.61167407045E+03 -0.64464610382E+03  0.11340583033E+02  0.89230996672E+03  0.79841719964E+02 0.  0.
         24    2    4    4    0    0  0.80380299203E+02  0.18582774074E+03 -0.74606089006E+02  0.23112203916E+03  0.82815377419E+02 0.  0.
         13    1    3    3    0    0  0.45824369966E+03  0.37649129765E+03  0.11108843810E+03  0.60338513950E+03  0.00000000000E+00 0.  1.
        -13    1    3    3    0    0  0.73050071582E+02  0.82327065424E+02 -0.13773333383E+02  0.11092233036E+03  0.00000000000E+00 0. -1.
          2    1    6    6  502    0  0.18497776023E+02  0.90123764349E+01  0.12977894183E+02  0.24327276548E+02  0.00000000000E+00 0. -1.
          3    1    5    5  503    0 -0.19200571069E+01  0.20630106084E+01 -0.18554499454E+01  0.33742149553E+01  0.00000000000E+00 0. -1.
         -4    1    5    5    0  503 -0.60975401334E+03 -0.64670911443E+03  0.13196032978E+02  0.88893575176E+03  0.00000000000E+00 0.  1.
         -1    1    6    6    0  502  0.61882523180E+02  0.17681536431E+03 -0.87583983190E+02  0.20679476261E+03  0.00000000000E+00 0.  1.
<mgrwt>
<rscale>  0 0.18374240E+04</rscale>
<asrwt>0</asrwt>
<pdfrwt beam="1">  1        1 0.13874538E+00 0.18374240E+04</pdfrwt>
<pdfrwt beam="2">  1       -1 0.14398378E+00 0.18374240E+04</pdfrwt>
<totfact> 0.66404020E+00</totfact>
</mgrwt>
</event>
<event>
12    1  0.1397649E-007  0.1898140E+04  0.7818608E-02  0.8655783E-01
         -2   -1    0    0    0  501 -0.00000000000E+00  0.00000000000E+00  0.78344782921E+03  0.78344782921E+03  0.00000000000E+00 0.  1.
          2   -1    0    0  501    0  0.00000000000E+00 -0.00000000000E+00 -0.11497049968E+04  0.11497049968E+04  0.00000000000E+00 0. -1.
         23    2    1    2    0    0 -0.20881992706E+03  0.40373536968E+03 -0.72795007270E+03  0.86310842972E+03  0.91852286033E+02 0.  0.
        254    2    1    2    0    0  0.20881992706E+03 -0.40373536968E+03  0.36169290513E+03  0.10700443963E+04  0.89864633850E+03 0.  0.
        -24    2    4    4    0    0 -0.11228284781E+03 -0.47484435045E+03 -0.93272801331E+02  0.50303499476E+03  0.79118868871E+02 0.  0.
         24    2    4    4    0    0  0.32110277486E+03  0.71108980776E+02  0.45496570646E+03  0.56700940151E+03  0.79639112119E+02 0.  0.
         13    1    3    3    0    0 -0.13248430562E+03  0.24525014155E+03 -0.52593789991E+03  0.59523978171E+03  0.00000000000E+00 0. -1.
        -13    1    3    3    0    0 -0.76335621431E+02  0.15848522812E+03 -0.20201217280E+03  0.26786864802E+03  0.00000000000E+00 0.  1.
          2    1    6    6  502    0  0.11930104461E+03  0.47750169612E+02  0.23319813137E+03  0.26625962221E+03  0.00000000000E+00 0. -1.
          3    1    5    5  503    0 -0.11942794615E+03 -0.43429853993E+03 -0.99816672091E+02  0.46134761745E+03  0.00000000000E+00 0. -1.
         -4    1    5    5    0  503  0.71450983441E+01 -0.40545810528E+02  0.65438707608E+01  0.41687377302E+02  0.00000000000E+00 0.  1.
         -1    1    6    6    0  502  0.20180173025E+03  0.23358811163E+02  0.22176757509E+03  0.30074977930E+03  0.00000000000E+00 0.  1.
<mgrwt>
<rscale>  0 0.18981400E+04</rscale>
<asrwt>0</asrwt>
<pdfrwt beam="1">  1        2 0.17687769E+00 0.18981400E+04</pdfrwt>
<pdfrwt beam="2">  1       -2 0.12053044E+00 0.18981400E+04</pdfrwt>
<totfact> 0.99935120E+00</totfact>
</mgrwt>
</event>
<event>
12    1  0.2957422E-007  0.1741061E+04  0.7818608E-02  0.8738286E-01
          2   -1    0    0  501    0  0.00000000000E+00  0.00000000000E+00  0.17911592259E+04  0.17911592259E+04  0.00000000000E+00 0. -1.
         -2   -1    0    0    0  501 -0.00000000000E+00 -0.00000000000E+00 -0.42309089912E+03  0.42309089912E+03  0.00000000000E+00 0.  1.
         23    2    1    2    0    0 -0.47884383241E+03 -0.10904925444E+03 -0.10512501489E+02  0.49972850954E+03  0.91841792360E+02 0.  0.
        254    2    1    2    0    0  0.47884383241E+03  0.10904925444E+03  0.13785808283E+04  0.17145216155E+04  0.89326150381E+03 0.  0.
        -24    2    4    4    0    0  0.80123147382E+02  0.22362363462E+03  0.12474370255E+04  0.12723773081E+04  0.80110128772E+02 0.  0.
         24    2    4    4    0    0  0.39872068503E+03 -0.11457438018E+03  0.13114380277E+03  0.44214430745E+03  0.78660144524E+02 0.  0.
         13    1    3    3    0    0 -0.44826009272E+03 -0.11732560421E+03 -0.26739981934E+02  0.46413083798E+03  0.00000000000E+00 0.  1.
        -13    1    3    3    0    0 -0.30583739694E+02  0.82763497629E+01  0.16227480446E+02  0.35597671563E+02  0.00000000000E+00 0. -1.
          4    1    6    6  502    0  0.10688759506E+03 -0.55529790871E+02  0.10581178392E+02  0.12091516443E+03  0.00000000000E+00 0. -1.
          3    1    5    5  503    0  0.33425066389E+02  0.39931310837E+02  0.15221668324E+03  0.16087778996E+03  0.00000000000E+00 0. -1.
         -4    1    5    5    0  503  0.46698080994E+02  0.18369232379E+03  0.10952203423E+04  0.11114995181E+04  0.00000000000E+00 0.  1.
         -3    1    6    6    0  502  0.29183308997E+03 -0.59044589310E+02  0.12056262438E+03  0.32122914302E+03  0.00000000000E+00 0.  1.
<mgrwt>
<rscale>  0 0.17410608E+04</rscale>
<asrwt>0</asrwt>
<pdfrwt beam="1">  1        2 0.27556295E+00 0.17410608E+04</pdfrwt>
<pdfrwt beam="2">  1       -2 0.65090908E-01 0.17410608E+04</pdfrwt>
<totfact> 0.18014610E+01</totfact>
</mgrwt>
</event>
<event>
12    1  0.1397649E-007  0.3301617E+04  0.7818608E-02  0.8162484E-01
          2   -1    0    0  501    0  0.00000000000E+00  0.00000000000E+00  0.50361754715E+04  0.50361754715E+04  0.00000000000E+00 0. -1.
         -2   -1    0    0    0  501 -0.00000000000E+00 -0.00000000000E+00 -0.54111877054E+03  0.54111877054E+03  0.00000000000E+00 0.  1.
         23    2    1    2    0    0  0.14079264019E+03  0.25665856805E+03 -0.45055887749E+03  0.54502874250E+03  0.91415753440E+02 0.  0.
        254    2    1    2    0    0 -0.14079264019E+03 -0.25665856805E+03  0.49456155784E+04  0.50322654995E+04  0.88254542092E+03 0.  0.
        -24    2    4    4    0    0  0.14357155400E+03  0.27162853771E+03  0.14217135122E+04  0.14567512778E+04  0.80374877218E+02 0.  0.
         24    2    4    4    0    0 -0.28436419419E+03 -0.52828710576E+03  0.35239020662E+04  0.35755142217E+04  0.80410923064E+02 0.  0.
         13    1    3    3    0    0  0.79609974494E+02  0.11615570689E+03 -0.13923131748E+03  0.19802842233E+03  0.00000000000E+00 0. -1.
        -13    1    3    3    0    0  0.61182665696E+02  0.14050286116E+03 -0.31132756001E+03  0.34700032017E+03  0.00000000000E+00 0.  1.
          4    1    6    6  502    0 -0.94106007266E+02 -0.10782014255E+03  0.90944465845E+03  0.92063603587E+03  0.00000000000E+00 0. -1.
          3    1    5    5  503    0 -0.18527975612E+01 -0.48152317188E+01  0.26822953855E+02  0.27314651175E+02  0.00000000000E+00 0. -1.
         -4    1    5    5    0  503  0.14542435156E+03  0.27644376943E+03  0.13948905583E+04  0.14294366266E+04  0.00000000000E+00 0.  1.
         -3    1    6    6    0  502 -0.19025818693E+03 -0.42046696321E+03  0.26144574078E+04  0.26548781859E+04  0.00000000000E+00 0.  1.
<mgrwt>
<rscale>  0 0.33016172E+04</rscale>
<asrwt>0</asrwt>
<pdfrwt beam="1">  1        2 0.77479619E+00 0.33016172E+04</pdfrwt>
<pdfrwt beam="2">  1       -2 0.83249045E-01 0.33016172E+04</pdfrwt>
<totfact> 0.32388628E-02</totfact>
</mgrwt>
</event>
<event>
12    1  0.1397649E-007  0.2994351E+04  0.7818608E-02  0.8245346E-01
          2   -1    0    0  501    0  0.00000000000E+00  0.00000000000E+00  0.23937728116E+04  0.23937728116E+04  0.00000000000E+00 0. -1.
         -2   -1    0    0    0  501 -0.00000000000E+00 -0.00000000000E+00 -0.93640216408E+03  0.93640216408E+03  0.00000000000E+00 0.  1.
         23    2    1    2    0    0  0.12881292176E+04 -0.42009230329E+03  0.60027111155E+03  0.14847431795E+04  0.91555870036E+02 0.  0.
        254    2    1    2    0    0 -0.12881292176E+04  0.42009230329E+03  0.85709953597E+03  0.18454317962E+04  0.91391710526E+03 0.  0.
        -24    2    4    4    0    0 -0.13820669669E+04  0.43893527416E+03  0.90496401641E+03  0.17113448129E+04  0.83474079114E+02 0.  0.
         24    2    4    4    0    0  0.93937749297E+02 -0.18842970870E+02 -0.47864480447E+02  0.13408698324E+03  0.80678078144E+02 0.  0.
         11    1    3    3    0    0  0.11291433677E+04 -0.39517332429E+03  0.54497139594E+03  0.13145799798E+04  0.00000000000E+00 0. -1.
        -11    1    3    3    0    0  0.15898584988E+03 -0.24918979000E+02  0.55299715609E+02  0.17016319968E+03  0.00000000000E+00 0.  1.
          2    1    6    6  502    0  0.61530230300E+02 -0.39282571015E+02 -0.59355704291E+02  0.94086073668E+02  0.00000000000E+00 0. -1.
          1    1    5    5  503    0 -0.13218620736E+04  0.43707610211E+03  0.86887701691E+03  0.16411283104E+04  0.00000000000E+00 0. -1.
         -2    1    5    5    0  503 -0.60204893218E+02  0.18591720567E+01  0.36086999502E+02  0.70216502485E+02  0.00000000000E+00 0.  1.
         -1    1    6    6    0  502  0.32407518996E+02  0.20439600145E+02  0.11491223843E+02  0.40000909577E+02  0.00000000000E+00 0.  1.
<mgrwt>
<rscale>  0 0.29943507E+04</rscale>
<asrwt>0</asrwt>
<pdfrwt beam="1">  1        2 0.36827274E+00 0.29943507E+04</pdfrwt>
<pdfrwt beam="2">  1       -2 0.14406187E+00 0.29943507E+04</pdfrwt>
<totfact> 0.11440109E+00</totfact>
</mgrwt>
</event>
<event>
12    1  0.1397649E-007  0.2061825E+04  0.7818608E-02  0.8578249E-01
         -2   -1    0    0    0  501 -0.00000000000E+00  0.00000000000E+00  0.89025089939E+03  0.89025089939E+03  0.00000000000E+00 0.  1.
          2   -1    0    0  501    0  0.00000000000E+00 -0.00000000000E+00 -0.11937994524E+04  0.11937994524E+04  0.00000000000E+00 0. -1.
         23    2    1    2    0    0  0.18937145722E+03 -0.76065527756E+03 -0.41858109269E+03  0.89351803089E+03  0.93307771838E+02 0.  0.
        254    2    1    2    0    0 -0.18937145722E+03  0.76065527756E+03  0.11503253970E+03  0.11905323209E+04  0.88863756490E+03 0.  0.
        -24    2    4    4    0    0  0.15652059031E+03  0.39798027238E+03  0.41457759508E+03  0.60111822717E+03  0.81126742238E+02 0.  0.
         24    2    4    4    0    0 -0.34589204753E+03  0.36267500518E+03 -0.29954505538E+03  0.58941409370E+03  0.80667625001E+02 0.  0.
         13    1    3    3    0    0  0.43068864668E+02 -0.19974701384E+03 -0.64586022364E+02  0.21430154206E+03  0.00000000000E+00 0. -1.
        -13    1    3    3    0    0  0.14630259255E+03 -0.56090826372E+03 -0.35399507032E+03  0.67921648883E+03  0.00000000000E+00 0.  1.
          4    1    6    6  502    0 -0.32195833072E+03  0.36000054081E+03 -0.27902402011E+03  0.55777411190E+03  0.00000000000E+00 0. -1.
          1    1    5    5  503    0  0.10674022318E+03  0.23087643007E+03  0.29591618932E+03  0.39020993364E+03  0.00000000000E+00 0. -1.
         -2    1    5    5    0  503  0.49780367132E+02  0.16710384231E+03  0.11866140575E+03  0.21090829354E+03  0.00000000000E+00 0.  1.
         -3    1    6    6    0  502 -0.23933716802E+02  0.26744643678E+01 -0.20521035271E+02  0.31639981799E+02  0.00000000000E+00 0.  1.
<mgrwt>
<rscale>  0 0.20618254E+04</rscale>
<asrwt>0</asrwt>
<pdfrwt beam="1">  1        2 0.18366145E+00 0.20618254E+04</pdfrwt>
<pdfrwt beam="2">  1       -2 0.13696168E+00 0.20618254E+04</pdfrwt>
<totfact> 0.67146969E+00</totfact>
</mgrwt>
</event>
<event>
12    1  0.1397649E-007  0.1737529E+04  0.7818608E-02  0.8740245E-01
         -1   -1    0    0    0  501 -0.00000000000E+00  0.00000000000E+00  0.75567747117E+03  0.75567747117E+03  0.00000000000E+00 0.  1.
          1   -1    0    0  501    0  0.00000000000E+00 -0.00000000000E+00 -0.99877446356E+03  0.99877446356E+03  0.00000000000E+00 0. -1.
         23    2    1    2    0    0 -0.52050289695E+03  0.31370087581E+02  0.27143984528E+03  0.59490019837E+03  0.91210242243E+02 0.  0.
        254    2    1    2    0    0  0.52050289695E+03 -0.31370087581E+02 -0.51453683767E+03  0.11595517364E+04  0.89883520396E+03 0.  0.
        -24    2    4    4    0    0  0.49819196837E+03 -0.37044716400E+03 -0.12786745859E+03  0.63877958792E+03  0.79138715577E+02 0.  0.
         24    2    4    4    0    0  0.22310928571E+02  0.33907707642E+03 -0.38666937908E+03  0.52077214845E+03  0.78863049624E+02 0.  0.
         11    1    3    3    0    0 -0.40176475344E+03  0.59903568203E+02  0.19268742158E+03  0.44959069945E+03  0.00000000000E+00 0.  1.
        -11    1    3    3    0    0 -0.11873814350E+03 -0.28533480621E+02  0.78752423699E+02  0.14530949892E+03  0.00000000000E+00 0. -1.
          4    1    6    6  502    0  0.10231816961E+02  0.10005884719E+03 -0.17214374466E+03  0.19937384935E+03  0.00000000000E+00 0. -1.
          3    1    5    5  503    0  0.50027379567E+03 -0.36400238560E+03 -0.12402997234E+03  0.63099527843E+03  0.00000000000E+00 0. -1.
         -4    1    5    5    0  503 -0.20818272989E+01 -0.64447783976E+01 -0.38374862423E+01  0.77843094849E+01  0.00000000000E+00 0.  1.
         -1    1    6    6    0  502  0.12079111609E+02  0.23901822923E+03 -0.21452563443E+03  0.32139829910E+03  0.00000000000E+00 0.  1.
<mgrwt>
<rscale>  0 0.17375285E+04</rscale>
<asrwt>0</asrwt>
<pdfrwt beam="1">  1        1 0.15365761E+00 0.17375285E+04</pdfrwt>
<pdfrwt beam="2">  1       -1 0.11625807E+00 0.17375285E+04</pdfrwt>
<totfact> 0.96206739E+00</totfact>
</mgrwt>
</event>
<event>
12    1  0.1397649E-007  0.2051685E+04  0.7818608E-02  0.8582830E-01
          2   -1    0    0  501    0  0.00000000000E+00  0.00000000000E+00  0.93659764413E+03  0.93659764413E+03  0.00000000000E+00 0. -1.
         -2   -1    0    0    0  501 -0.00000000000E+00 -0.00000000000E+00 -0.11235910943E+04  0.11235910943E+04  0.00000000000E+00 0.  1.
         23    2    1    2    0    0 -0.65748154549E+03  0.31983891289E+02 -0.57706107543E+03  0.88032011606E+03  0.93054123984E+02 0.  0.
        254    2    1    2    0    0  0.65748154549E+03 -0.31983891289E+02  0.39006762526E+03  0.11798686224E+04  0.89812708558E+03 0.  0.
        -24    2    4    4    0    0  0.37742037031E+03 -0.58437444930E+00  0.67109517218E+03  0.77385802989E+03  0.77724146128E+02 0.  0.
         24    2    4    4    0    0  0.28006117518E+03 -0.31399516840E+02 -0.28102754692E+03  0.40601059249E+03  0.80298988684E+02 0.  0.
         11    1    3    3    0    0 -0.58783541923E+03  0.56973242234E+02 -0.50553245591E+03  0.77740561769E+03  0.00000000000E+00 0.  1.
        -11    1    3    3    0    0 -0.69646126258E+02 -0.24989350945E+02 -0.71528619527E+02  0.10291449837E+03  0.00000000000E+00 0. -1.
          4    1    6    6  502    0  0.27451530250E+02 -0.14617297423E+02 -0.69369025270E+02  0.76021796637E+02  0.00000000000E+00 0. -1.
          1    1    5    5  503    0  0.23246313508E+03  0.37480928801E+02  0.40844889101E+03  0.47145988776E+03  0.00000000000E+00 0. -1.
         -2    1    5    5    0  503  0.14495723523E+03 -0.38065303250E+02  0.26264628117E+03  0.30239814214E+03  0.00000000000E+00 0.  1.
         -3    1    6    6    0  502  0.25260964493E+03 -0.16782219417E+02 -0.21165852165E+03  0.32998879585E+03  0.00000000000E+00 0.  1.
<mgrwt>
<rscale>  0 0.20516849E+04</rscale>
<asrwt>0</asrwt>
<pdfrwt beam="1">  1        2 0.14409195E+00 0.20516849E+04</pdfrwt>
<pdfrwt beam="2">  1       -2 0.17286017E+00 0.20516849E+04</pdfrwt>
<totfact> 0.52134762E+00</totfact>
</mgrwt>
</event>
<event>
12    1  0.1397649E-007  0.1347259E+04  0.7818608E-02  0.8992905E-01
          2   -1    0    0  501    0  0.00000000000E+00  0.00000000000E+00  0.17611279988E+04  0.17611279988E+04  0.00000000000E+00 0. -1.
         -2   -1    0    0    0  501 -0.00000000000E+00 -0.00000000000E+00 -0.25766269846E+03  0.25766269846E+03  0.00000000000E+00 0.  1.
         23    2    1    2    0    0 -0.44457188382E+02 -0.66369516854E+02 -0.90398688449E+02  0.15093826223E+03  0.90714286451E+02 0.  0.
        254    2    1    2    0    0  0.44457188382E+02  0.66369516854E+02  0.15938639888E+04  0.18678524350E+04  0.97061266729E+03 0.  0.
        -24    2    4    4    0    0 -0.22548227702E+03  0.43698752471E+03  0.95374768648E+03  0.10758468249E+04  0.77533136593E+02 0.  0.
         24    2    4    4    0    0  0.26993946540E+03 -0.37061800786E+03  0.64011630230E+03  0.79200561008E+03  0.85434086782E+02 0.  0.
         11    1    3    3    0    0 -0.68577008480E+02 -0.38685468824E+02 -0.39254919147E+02  0.87979089944E+02  0.00000000000E+00 0. -1.
        -11    1    3    3    0    0  0.24119820098E+02 -0.27684048030E+02 -0.51143769302E+02  0.62959172288E+02  0.00000000000E+00 0.  1.
          2    1    6    6  502    0  0.42795673345E+02 -0.49409591143E+02  0.47942532402E+02  0.81063331828E+02  0.00000000000E+00 0. -1.
          1    1    5    5  503    0 -0.64317714607E+02  0.19540768914E+03  0.43956091591E+03  0.48531920649E+03  0.00000000000E+00 0. -1.
         -2    1    5    5    0  503 -0.16116456241E+03  0.24157983557E+03  0.51418677057E+03  0.59052761845E+03  0.00000000000E+00 0.  1.
         -1    1    6    6    0  502  0.22714379206E+03 -0.32120841672E+03  0.59217376990E+03  0.71094227825E+03  0.00000000000E+00 0.  1.
<mgrwt>
<rscale>  0 0.13472594E+04</rscale>
<asrwt>0</asrwt>
<pdfrwt beam="1">  1        2 0.27094276E+00 0.13472594E+04</pdfrwt>
<pdfrwt beam="2">  1       -2 0.39640416E-01 0.13472594E+04</pdfrwt>
<totfact> 0.53332287E+01</totfact>
</mgrwt>
</event>
<event>
12    1  0.1397649E-007  0.1144825E+04  0.7818608E-02  0.9162571E-01
         -1   -1    0    0    0  501 -0.00000000000E+00  0.00000000000E+00  0.77099677423E+03  0.77099677423E+03  0.00000000000E+00 0.  1.
          1   -1    0    0  501    0  0.00000000000E+00 -0.00000000000E+00 -0.42497750212E+03  0.42497750212E+03  0.00000000000E+00 0. -1.
         23    2    1    2    0    0  0.18871809025E+03  0.66685686844E+02  0.46671279602E+02  0.22519494889E+03  0.92049216426E+02 0.  0.
        254    2    1    2    0    0 -0.18871809025E+03 -0.66685686844E+02  0.29934799251E+03  0.97077932747E+03  0.90152192630E+03 0.  0.
        -24    2    4    4    0    0  0.26759944893E+03  0.19966695027E+03  0.26765006023E+03  0.43535634822E+03  0.80138873792E+02 0.  0.
         24    2    4    4    0    0 -0.45631753919E+03 -0.26635263711E+03  0.31697932285E+02  0.53542297925E+03  0.80644801033E+02 0.  0.
         11    1    3    3    0    0  0.46258494001E+02  0.18811905072E+02  0.55485297930E+02  0.74648203770E+02  0.00000000000E+00 0.  1.
        -11    1    3    3    0    0  0.14245959625E+03  0.47873781772E+02 -0.88140183283E+01  0.15054674512E+03  0.00000000000E+00 0. -1.
          2    1    6    6  502    0 -0.31378050068E+03 -0.22251210355E+03  0.10629778798E+02  0.38481532068E+03  0.00000000000E+00 0. -1.
          1    1    5    5  503    0  0.13846596220E+03  0.12764868812E+03  0.19323698158E+03  0.26982872589E+03  0.00000000000E+00 0. -1.
         -2    1    5    5    0  503  0.12913348673E+03  0.72018262153E+02  0.74413078653E+02  0.16552762233E+03  0.00000000000E+00 0.  1.
         -1    1    6    6    0  502 -0.14253703851E+03 -0.43840533567E+02  0.21068153486E+02  0.15060765858E+03  0.00000000000E+00 0.  1.
<mgrwt>
<rscale>  0 0.11448254E+04</rscale>
<asrwt>0</asrwt>
<pdfrwt beam="1">  1        1 0.65381154E-01 0.11448254E+04</pdfrwt>
<pdfrwt beam="2">  1       -1 0.11861489E+00 0.11448254E+04</pdfrwt>
<totfact> 0.35020127E+01</totfact>
</mgrwt>
</event>
<event>
12    1  0.1397649E-007  0.3141602E+04  0.7818608E-02  0.8204413E-01
          2   -1    0    0  501    0  0.00000000000E+00  0.00000000000E+00  0.24546147180E+04  0.24546147180E+04  0.00000000000E+00 0. -1.
         -2   -1    0    0    0  501 -0.00000000000E+00 -0.00000000000E+00 -0.10052150214E+04  0.10052150214E+04  0.00000000000E+00 0.  1.
         23    2    1    2    0    0 -0.97212385618E+03 -0.46943169950E+03 -0.38607752377E+03  0.11491907390E+04  0.78692998684E+02 0.  0.
        254    2    1    2    0    0  0.97212385618E+03  0.46943169950E+03  0.18354772204E+04  0.23106390003E+04  0.89704239084E+03 0.  0.
        -24    2    4    4    0    0  0.72018309951E+03  0.73242221426E+03  0.13683777837E+04  0.17128809487E+04  0.79983676852E+02 0.  0.
         24    2    4    4    0    0  0.25194075668E+03 -0.26299051475E+03  0.46709943663E+03  0.59775805162E+03  0.80589384279E+02 0.  0.
         11    1    3    3    0    0 -0.56361967809E+03 -0.24754614676E+03 -0.25388489315E+03  0.66588570736E+03  0.00000000000E+00 0.  1.
        -11    1    3    3    0    0 -0.40850417810E+03 -0.22188555275E+03 -0.13219263062E+03  0.48330503167E+03  0.00000000000E+00 0. -1.
          2    1    6    6  502    0  0.33334380942E+02 -0.21927136264E+02  0.19625687533E+02  0.44465130931E+02  0.00000000000E+00 0. -1.
          1    1    5    5  503    0  0.23714043754E+03  0.27787862590E+03  0.53374886285E+03  0.64679205812E+03  0.00000000000E+00 0. -1.
         -2    1    5    5    0  503  0.48304266196E+03  0.45454358836E+03  0.83462892090E+03  0.10660888906E+04  0.00000000000E+00 0.  1.
         -1    1    6    6    0  502  0.21860637573E+03 -0.24106337849E+03  0.44747374909E+03  0.55329292069E+03  0.00000000000E+00 0.  1.
<mgrwt>
<rscale>  0 0.31416019E+04</rscale>
<asrwt>0</asrwt>
<pdfrwt beam="1">  1        2 0.37763303E+00 0.31416019E+04</pdfrwt>
<pdfrwt beam="2">  1       -2 0.15464847E+00 0.31416019E+04</pdfrwt>
<totfact> 0.86409303E-01</totfact>
</mgrwt>
</event>
<event>
12    1  0.1397649E-007  0.3153769E+04  0.7818608E-02  0.8201135E-01
         -1   -1    0    0    0  501 -0.00000000000E+00  0.00000000000E+00  0.10524918435E+04  0.10524918435E+04  0.00000000000E+00 0.  1.
          1   -1    0    0  501    0  0.00000000000E+00 -0.00000000000E+00 -0.23625495439E+04  0.23625495439E+04  0.00000000000E+00 0. -1.
         23    2    1    2    0    0 -0.12164722571E+04 -0.76149249213E+03 -0.83807634848E+03  0.16648158167E+04  0.97796573529E+02 0.  0.
        254    2    1    2    0    0  0.12164722571E+04  0.76149249213E+03 -0.47198135192E+03  0.17502255707E+04  0.88365580630E+03 0.  0.
        -24    2    4    4    0    0  0.38257934401E+03  0.10079369635E+03  0.23781861900E+03  0.46888879119E+03  0.82296289519E+02 0.  0.
         24    2    4    4    0    0  0.83389291308E+03  0.66069879578E+03 -0.70979997092E+03  0.12813367795E+04  0.78151485334E+02 0.  0.
         13    1    3    3    0    0 -0.47414966431E+03 -0.34068776050E+03 -0.37579460653E+03  0.69433971557E+03  0.00000000000E+00 0.  1.
        -13    1    3    3    0    0 -0.74232259278E+03 -0.42080473163E+03 -0.46228174195E+03  0.97047610113E+03  0.00000000000E+00 0. -1.
          4    1    6    6  502    0  0.44804373378E+03  0.34340751250E+03 -0.33089360920E+03  0.65434126236E+03  0.00000000000E+00 0. -1.
          1    1    5    5  503    0  0.24516356267E+03  0.78491986488E+02  0.19594804922E+03  0.32351476380E+03  0.00000000000E+00 0. -1.
         -2    1    5    5    0  503  0.13741578134E+03  0.22301709864E+02  0.41870569780E+02  0.14537402739E+03  0.00000000000E+00 0.  1.
         -3    1    6    6    0  502  0.38584917930E+03  0.31729128328E+03 -0.37890636171E+03  0.62699551717E+03  0.00000000000E+00 0.  1.
<mgrwt>
<rscale>  0 0.31537686E+04</rscale>
<asrwt>0</asrwt>
<pdfrwt beam="1">  1        1 0.36346915E+00 0.31537686E+04</pdfrwt>
<pdfrwt beam="2">  1       -1 0.16192182E+00 0.31537686E+04</pdfrwt>
<totfact> 0.40013327E-01</totfact>
</mgrwt>
</event>
<event>
12    1  0.1397649E-007  0.1224999E+04  0.7818608E-02  0.9091252E-01
         -2   -1    0    0    0  501 -0.00000000000E+00  0.00000000000E+00  0.13597488980E+03  0.13597488980E+03  0.00000000000E+00 0. -1.
          2   -1    0    0  501    0  0.00000000000E+00 -0.00000000000E+00 -0.27590050807E+04  0.27590050807E+04  0.00000000000E+00 0.  1.
         23    2    1    2    0    0  0.16749490231E+03  0.29966397373E+02 -0.11037459948E+03  0.22197163017E+03  0.90201580461E+02 0.  0.
        254    2    1    2    0    0 -0.16749490231E+03 -0.29966397373E+02 -0.25126555914E+04  0.26730083403E+04  0.89586993425E+03 0.  0.
        -24    2    4    4    0    0  0.36481216241E+02 -0.32920867318E+03 -0.38877127888E+03  0.51703180360E+03  0.80433506793E+02 0.  0.
         24    2    4    4    0    0 -0.20397611855E+03  0.29924227580E+03 -0.21238843125E+04  0.21559765367E+04  0.78727741734E+02 0.  0.
         11    1    3    3    0    0  0.13248229378E+03  0.51283899457E+02 -0.11206905250E+03  0.18094493371E+03  0.00000000000E+00 0. -1.
        -11    1    3    3    0    0  0.35012608530E+02 -0.21317502084E+02  0.16944530129E+01  0.41026696458E+02  0.00000000000E+00 0.  1.
          4    1    6    6  502    0 -0.13412221466E+03  0.18335084645E+03 -0.11019335178E+04  0.11251061190E+04  0.00000000000E+00 0. -1.
          3    1    5    5  503    0 -0.60337747476E+01 -0.13067713893E+03 -0.10310374626E+03  0.16656321194E+03  0.00000000000E+00 0. -1.
         -2    1    5    5    0  503  0.42514990989E+02 -0.19853153424E+03 -0.28566753262E+03  0.35046859166E+03  0.00000000000E+00 0.  1.
         -3    1    6    6    0  502 -0.69853903890E+02  0.11589142936E+03 -0.10219507947E+04  0.10308704177E+04  0.00000000000E+00 0.  1.
<mgrwt>
<rscale>  0 0.12249986E+04</rscale>
<asrwt>0</asrwt>
<pdfrwt beam="1">  1        2 0.42446233E+00 0.12249986E+04</pdfrwt>
<pdfrwt beam="2">  1       -2 0.20919213E-01 0.12249986E+04</pdfrwt>
<totfact> 0.48076401E+01</totfact>
</mgrwt>
</event>
<event>
12    1  0.1397649E-007  0.1330898E+04  0.7818608E-02  0.9005415E-01
          2   -1    0    0  501    0  0.00000000000E+00  0.00000000000E+00  0.14995626651E+04  0.14995626651E+04  0.00000000000E+00 0. -1.
         -2   -1    0    0    0  501 -0.00000000000E+00 -0.00000000000E+00 -0.29530107516E+03  0.29530107516E+03  0.00000000000E+00 0.  1.
         23    2    1    2    0    0  0.13108336997E+03  0.17111554288E+03  0.69436341839E+03  0.73284175164E+03  0.91940726826E+02 0.  0.
        254    2    1    2    0    0 -0.13108336997E+03 -0.17111554288E+03  0.50989817158E+03  0.10620219887E+04  0.90632840632E+03 0.  0.
        -24    2    4    4    0    0 -0.39011946795E+01 -0.19576498816E+03  0.74918935739E+03  0.77837106083E+03  0.78978890861E+02 0.  0.
         24    2    4    4    0    0 -0.12718217529E+03  0.24649445274E+02 -0.23929118581E+03  0.28365092782E+03  0.80091674874E+02 0.  0.
         13    1    3    3    0    0  0.10404794324E+03  0.99684522835E+02  0.56047054383E+03  0.57869699246E+03  0.00000000000E+00 0. -1.
        -13    1    3    3    0    0  0.27035426737E+02  0.71431020049E+02  0.13389287456E+03  0.15414475918E+03  0.00000000000E+00 0.  1.
          2    1    6    6  502    0 -0.98551081437E+02  0.49608224710E+02 -0.20337769780E+03  0.23137800149E+03  0.00000000000E+00 0. -1.
          3    1    5    5  503    0 -0.20502758478E+02 -0.13135323322E+03  0.60706204223E+03  0.62144859650E+03  0.00000000000E+00 0. -1.
         -4    1    5    5    0  503  0.16601563798E+02 -0.64411754940E+02  0.14212731517E+03  0.15692246433E+03  0.00000000000E+00 0.  1.
         -1    1    6    6    0  502 -0.28631093857E+02 -0.24958779437E+02 -0.35913488011E+02  0.52272926334E+02  0.00000000000E+00 0.  1.
<mgrwt>
<rscale>  0 0.13308981E+04</rscale>
<asrwt>0</asrwt>
<pdfrwt beam="1">  1        2 0.23070194E+00 0.13308981E+04</pdfrwt>
<pdfrwt beam="2">  1       -2 0.45430936E-01 0.13308981E+04</pdfrwt>
<totfact> 0.57058387E+01</totfact>
</mgrwt>
</event>
<event>
12    1  0.1397649E-007  0.1333538E+04  0.7818608E-02  0.9003384E-01
          2   -1    0    0  501    0  0.00000000000E+00  0.00000000000E+00  0.24306629064E+04  0.24306629064E+04  0.00000000000E+00 0. -1.
         -2   -1    0    0    0  501 -0.00000000000E+00 -0.00000000000E+00 -0.18290517200E+03  0.18290517200E+03  0.00000000000E+00 0.  1.
         23    2    1    2    0    0  0.48220761042E+02  0.31086394986E+03  0.29344653836E+03  0.43949116564E+03  0.89888690510E+02 0.  0.
        254    2    1    2    0    0 -0.48220761042E+02 -0.31086394986E+03  0.19543111961E+04  0.21740769128E+04  0.89906425496E+03 0.  0.
        -24    2    4    4    0    0  0.27884037179E+01  0.14503015863E+03  0.91598200685E+00  0.16593321442E+03  0.80569662513E+02 0.  0.
         24    2    4    4    0    0 -0.51009164760E+02 -0.45589410850E+03  0.19533952141E+04  0.20081436984E+04  0.80292452524E+02 0.  0.
         13    1    3    3    0    0  0.15621236619E+02  0.26525557116E+03  0.26970589900E+03  0.37861037098E+03  0.00000000000E+00 0.  1.
        -13    1    3    3    0    0  0.32599524422E+02  0.45608378708E+02  0.23740639366E+02  0.60880794660E+02  0.00000000000E+00 0. -1.
          4    1    6    6  502    0  0.20090409740E+02 -0.80998683171E+02  0.31066229189E+03  0.32167603398E+03  0.00000000000E+00 0. -1.
          1    1    5    5  503    0  0.13523663001E+02 -0.46013424379E+01 -0.65849545921E+01  0.15729699303E+02  0.00000000000E+00 0. -1.
         -2    1    5    5    0  503 -0.10735259283E+02  0.14963150107E+03  0.75009365989E+01  0.15020351512E+03  0.00000000000E+00 0.  1.
         -3    1    6    6    0  502 -0.71099574499E+02 -0.37489542533E+03  0.16427329222E+04  0.16864676644E+04  0.00000000000E+00 0.  1.
<mgrwt>
<rscale>  0 0.13335379E+04</rscale>
<asrwt>0</asrwt>
<pdfrwt beam="1">  1        2 0.37394812E+00 0.13335379E+04</pdfrwt>
<pdfrwt beam="2">  1       -2 0.28139259E-01 0.13335379E+04</pdfrwt>
<totfact> 0.43280699E+01</totfact>
</mgrwt>
</event>
<event>
12    1  0.1397649E-007  0.3162503E+04  0.7818608E-02  0.8198791E-01
         -1   -1    0    0    0  501 -0.00000000000E+00  0.00000000000E+00  0.10142151023E+04  0.10142151023E+04  0.00000000000E+00 0.  1.
          1   -1    0    0  501    0  0.00000000000E+00 -0.00000000000E+00 -0.24653110215E+04  0.24653110215E+04  0.00000000000E+00 0. -1.
         23    2    1    2    0    0  0.74853622925E+03 -0.12126788220E+04 -0.95193075516E+03  0.17162680417E+04  0.92235656244E+02 0.  0.
        254    2    1    2    0    0 -0.74853622925E+03  0.12126788220E+04 -0.49916516408E+03  0.17632580821E+04  0.91050359206E+03 0.  0.
        -24    2    4    4    0    0 -0.43571900231E+03  0.89467105905E+03 -0.74670432778E+03  0.12467135895E+04  0.80250035577E+02 0.  0.
         24    2    4    4    0    0 -0.31281722694E+03  0.31800776298E+03  0.24753916370E+03  0.51654449261E+03  0.80987779901E+02 0.  0.
         13    1    3    3    0    0  0.50967285083E+03 -0.90206942233E+03 -0.70164261141E+03  0.12513185093E+04  0.00000000000E+00 0. -1.
        -13    1    3    3    0    0  0.23886337842E+03 -0.31060939970E+03 -0.25028814376E+03  0.46494953236E+03  0.00000000000E+00 0.  1.
          4    1    6    6  502    0 -0.17085643713E+03  0.14656074110E+03  0.83720701933E+02  0.24016895901E+03  0.00000000000E+00 0. -1.
          3    1    5    5  503    0 -0.91829148684E+02  0.27090126909E+03 -0.20917704288E+03  0.35436580733E+03  0.00000000000E+00 0. -1.
         -4    1    5    5    0  503 -0.34388985363E+03  0.62376978996E+03 -0.53752728490E+03  0.89234778215E+03  0.00000000000E+00 0.  1.
         -3    1    6    6    0  502 -0.14196078981E+03  0.17144702188E+03  0.16381846177E+03  0.27637553360E+03  0.00000000000E+00 0.  1.
<mgrwt>
<rscale>  0 0.31625026E+04</rscale>
<asrwt>0</asrwt>
<pdfrwt beam="1">  1        1 0.37927861E+00 0.31625026E+04</pdfrwt>
<pdfrwt beam="2">  1       -1 0.15603309E+00 0.31625026E+04</pdfrwt>
<totfact> 0.37646965E-01</totfact>
</mgrwt>
</event>
<event>
12    1  0.1397649E-007  0.1324047E+04  0.7818608E-02  0.9010710E-01
         -2   -1    0    0    0  501 -0.00000000000E+00  0.00000000000E+00  0.16098990608E+03  0.16098990608E+03  0.00000000000E+00 0.  1.
          2   -1    0    0  501    0  0.00000000000E+00 -0.00000000000E+00 -0.27223778575E+04  0.27223778575E+04  0.00000000000E+00 0. -1.
         23    2    1    2    0    0 -0.25746873098E+03 -0.23378635631E+03 -0.69571494561E+03  0.78313660164E+03  0.91309602188E+02 0.  0.
        254    2    1    2    0    0  0.25746873098E+03  0.23378635631E+03 -0.18656730059E+04  0.21002311620E+04  0.89960489170E+03 0.  0.
        -24    2    4    4    0    0 -0.18259142587E+03  0.14705104573E+03 -0.85363016449E+02  0.26248146427E+03  0.81523221556E+02 0.  0.
         24    2    4    4    0    0  0.44006015686E+03  0.86735310579E+02 -0.17803099894E+04  0.18377496977E+04  0.81512804670E+02 0.  0.
         13    1    3    3    0    0 -0.23395045475E+02 -0.26961767273E+02 -0.26002684251E+02  0.44163385689E+02  0.00000000000E+00 0. -1.
        -13    1    3    3    0    0 -0.23407368551E+03 -0.20682458904E+03 -0.66971226136E+03  0.73897321595E+03  0.00000000000E+00 0.  1.
          4    1    6    6  502    0  0.35853861119E+03  0.40202794130E+02 -0.13554842387E+04  0.14026773406E+04  0.00000000000E+00 0. -1.
          1    1    5    5  503    0 -0.16477905056E+03  0.15717930747E+03 -0.78264001286E+02  0.24079602177E+03  0.00000000000E+00 0. -1.
         -2    1    5    5    0  503 -0.17812375313E+02 -0.10128261740E+02 -0.70990151628E+01  0.21685442501E+02  0.00000000000E+00 0.  1.
         -3    1    6    6    0  502  0.81521545669E+02  0.46532516449E+02 -0.42482575070E+03  0.43507235714E+03  0.00000000000E+00 0.  1.
<mgrwt>
<rscale>  0 0.13240474E+04</rscale>
<asrwt>0</asrwt>
<pdfrwt beam="1">  1        2 0.41882738E+00 0.13240474E+04</pdfrwt>
<pdfrwt beam="2">  1       -2 0.24767677E-01 0.13240474E+04</pdfrwt>
<totfact> 0.37024401E+01</totfact>
</mgrwt>
</event>
<event>
12    1  0.1397649E-007  0.1364449E+04  0.7818608E-02  0.8979962E-01
         -2   -1    0    0    0  501 -0.00000000000E+00  0.00000000000E+00  0.33694808123E+03  0.33694808123E+03  0.00000000000E+00 0.  1.
          2   -1    0    0  501    0  0.00000000000E+00 -0.00000000000E+00 -0.13813106142E+04  0.13813106142E+04  0.00000000000E+00 0. -1.
         23    2    1    2    0    0 -0.22046118983E+03  0.68780806908E+02  0.79319969815E+02  0.26011516565E+03  0.89634291264E+02 0.  0.
        254    2    1    2    0    0  0.22046118983E+03 -0.68780806908E+02 -0.11236825028E+04  0.14581435298E+04  0.90010346671E+03 0.  0.
        -24    2    4    4    0    0 -0.28977037927E+03 -0.38510079388E+02 -0.77907900617E+03  0.83654937100E+03  0.86028212496E+02 0.  0.
         24    2    4    4    0    0  0.51023156909E+03 -0.30270727520E+02 -0.34460349663E+03  0.62159415880E+03  0.79844582283E+02 0.  0.
         13    1    3    3    0    0 -0.22133695830E+03  0.75468829699E+02  0.62596185783E+02  0.24208237408E+03  0.00000000000E+00 0.  1.
        -13    1    3    3    0    0  0.87576847681E+00 -0.66880227916E+01  0.16723784033E+02  0.18032791566E+02  0.00000000000E+00 0. -1.
          4    1    6    6  502    0  0.42434317895E+03 -0.49837121694E+02 -0.30534105104E+03  0.52515143499E+03  0.00000000000E+00 0. -1.
          1    1    5    5  503    0 -0.16525609330E+03 -0.22155454655E+02 -0.32299968430E+03  0.36349585500E+03  0.00000000000E+00 0. -1.
         -2    1    5    5    0  503 -0.12451428597E+03 -0.16354624733E+02 -0.45607932186E+03  0.47305351599E+03  0.00000000000E+00 0.  1.
         -3    1    6    6    0  502  0.85888390146E+02  0.19566394175E+02 -0.39262445591E+02  0.96442723814E+02  0.00000000000E+00 0.  1.
<mgrwt>
<rscale>  0 0.13644485E+04</rscale>
<asrwt>0</asrwt>
<pdfrwt beam="1">  1        2 0.21250933E+00 0.13644485E+04</pdfrwt>
<pdfrwt beam="2">  1       -2 0.51838166E-01 0.13644485E+04</pdfrwt>
<totfact> 0.50851330E+01</totfact>
</mgrwt>
</event>
<event>
12    1  0.1397649E-007  0.1908987E+04  0.7818608E-02  0.8650396E-01
          2   -1    0    0  501    0  0.00000000000E+00  0.00000000000E+00  0.22120368858E+04  0.22120368858E+04  0.00000000000E+00 0.  1.
         -2   -1    0    0    0  501 -0.00000000000E+00 -0.00000000000E+00 -0.41186385673E+03  0.41186385673E+03  0.00000000000E+00 0. -1.
         23    2    1    2    0    0 -0.33013862850E+03 -0.44822524311E+03  0.31550551921E+02  0.56465730230E+03  0.89135005055E+02 0.  0.
        254    2    1    2    0    0  0.33013862850E+03  0.44822524311E+03  0.17686224772E+04  0.20592434403E+04  0.89585752042E+03 0.  0.
        -24    2    4    4    0    0 -0.24406340429E+03  0.39145066965E+03  0.69947410723E+03  0.84160946603E+03  0.79005661447E+02 0.  0.
         24    2    4    4    0    0  0.57420203279E+03  0.56774573465E+02  0.10691483700E+04  0.12176339742E+04  0.81381395875E+02 0.  0.
         13    1    3    3    0    0 -0.70552566662E+02 -0.98084598742E+02  0.44062297349E+02  0.12860691747E+03  0.00000000000E+00 0.  1.
        -13    1    3    3    0    0 -0.25958606183E+03 -0.35014064437E+03 -0.12511745428E+02  0.43605038483E+03  0.00000000000E+00 0. -1.
          4    1    6    6  502    0  0.13134770069E+03 -0.53735992153E+01  0.30724923502E+03  0.33419034466E+03  0.00000000000E+00 0. -1.
          3    1    5    5  503    0 -0.39205533937E+02  0.41913755593E+02  0.13589522370E+03  0.14751728245E+03  0.00000000000E+00 0. -1.
         -4    1    5    5    0  503 -0.20485787036E+03  0.34953691406E+03  0.56357888353E+03  0.69409218357E+03  0.00000000000E+00 0.  1.
         -3    1    6    6    0  502  0.44285433210E+03  0.62148172680E+02  0.76189913494E+03  0.88344362958E+03  0.00000000000E+00 0.  1.
<mgrwt>
<rscale>  0 0.19089872E+04</rscale>
<asrwt>0</asrwt>
<pdfrwt beam="1">  1        2 0.34031336E+00 0.19089872E+04</pdfrwt>
<pdfrwt beam="2">  1       -2 0.63363671E-01 0.19089872E+04</pdfrwt>
<totfact> 0.10973194E+01</totfact>
</mgrwt>
</event>
<event>
12    1  0.1919354E-007  0.1216900E+04  0.7818608E-02  0.9098191E-01
          2   -1    0    0  501    0  0.00000000000E+00  0.00000000000E+00  0.19078153719E+04  0.19078153719E+04  0.00000000000E+00 0. -1.
         -2   -1    0    0    0  501 -0.00000000000E+00 -0.00000000000E+00 -0.19404987841E+03  0.19404987841E+03  0.00000000000E+00 0.  1.
         23    2    1    2    0    0 -0.11310714959E+03 -0.13310933653E+03  0.72858391139E+03  0.75507628255E+03  0.93778215858E+02 0.  0.
        254    2    1    2    0    0  0.11310714959E+03  0.13310933653E+03  0.98518158209E+03  0.13467889677E+04  0.90152451502E+03 0.  0.
        -24    2    4    4    0    0  0.39492604456E+03  0.20521815636E+03  0.17936732533E+03  0.48629832194E+03  0.78945222461E+02 0.  0.
         24    2    4    4    0    0 -0.28181889497E+03 -0.72108819828E+02  0.80581425676E+03  0.86049064581E+03  0.80535480785E+02 0.  0.
         13    1    3    3    0    0  0.10219294289E+02 -0.21609758103E+02  0.39081136422E+02  0.45812125525E+02  0.00000000000E+00 0.  1.
        -13    1    3    3    0    0 -0.12332644388E+03 -0.11149957843E+03  0.68950277497E+03  0.70926415703E+03  0.00000000000E+00 0. -1.
          4    1    6    6  502    0 -0.23661723462E+02  0.14162850054E+01  0.23381398020E+02  0.33295236803E+02  0.00000000000E+00 0. -1.
          1    1    5    5  503    0  0.23888881312E+02  0.14585735667E+02  0.35139318723E+02  0.44924314748E+02  0.00000000000E+00 0. -1.
         -2    1    5    5    0  503  0.37103716325E+03  0.19063242070E+03  0.14422800660E+03  0.44137400719E+03  0.00000000000E+00 0.  1.
         -3    1    6    6    0  502 -0.25815717150E+03 -0.73525104834E+02  0.78243285874E+03  0.82719540900E+03  0.00000000000E+00 0.  1.
<mgrwt>
<rscale>  0 0.12168999E+04</rscale>
<asrwt>0</asrwt>
<pdfrwt beam="1">  1        2 0.29351004E+00 0.12168999E+04</pdfrwt>
<pdfrwt beam="2">  1       -2 0.29853829E-01 0.12168999E+04</pdfrwt>
<totfact> 0.76737911E+01</totfact>
</mgrwt>
</event>
<event>
12    1  0.1397649E-007  0.1152005E+04  0.7818608E-02  0.9155935E-01
         -2   -1    0    0    0  501 -0.00000000000E+00  0.00000000000E+00  0.10013764481E+03  0.10013764481E+03  0.00000000000E+00 0.  1.
          2   -1    0    0  501    0  0.00000000000E+00 -0.00000000000E+00 -0.33132307456E+04  0.33132307456E+04  0.00000000000E+00 0. -1.
         23    2    1    2    0    0  0.47181159446E+02 -0.20380369321E+03 -0.46378909703E+03  0.51614906538E+03  0.86876487008E+02 0.  0.
        254    2    1    2    0    0 -0.47181159446E+02  0.20380369321E+03 -0.27493040038E+04  0.28972193251E+04  0.88963211780E+03 0.  0.
        -24    2    4    4    0    0 -0.38447943895E+03  0.36059336475E+03 -0.16276929457E+04  0.17128729324E+04  0.81837298882E+02 0.  0.
         24    2    4    4    0    0  0.33729827951E+03 -0.15678967154E+03 -0.11216110581E+04  0.11843463926E+04  0.79447351294E+02 0.  0.
         11    1    3    3    0    0 -0.25568113356E+01 -0.12668764366E+03 -0.19908030904E+03  0.23598573217E+03  0.00000000000E+00 0.  1.
        -11    1    3    3    0    0  0.49737970782E+02 -0.77116049551E+02 -0.26470878799E+03  0.28016333321E+03  0.00000000000E+00 0. -1.
          2    1    6    6  502    0  0.11623661215E+03 -0.44391226297E+02 -0.26865013980E+03  0.29606490604E+03  0.00000000000E+00 0. -1.
          1    1    5    5  503    0 -0.13519245712E+03  0.78642802849E+02 -0.43936707159E+03  0.46637443594E+03  0.00000000000E+00 0. -1.
         -2    1    5    5    0  503 -0.24928698184E+03  0.28195056190E+03 -0.11883258741E+04  0.12464984965E+04  0.00000000000E+00 0.  1.
         -1    1    6    6    0  502  0.22106166736E+03 -0.11239844524E+03 -0.85296091829E+03  0.88828148658E+03  0.00000000000E+00 0.  1.
<mgrwt>
<rscale>  0 0.11520054E+04</rscale>
<asrwt>0</asrwt>
<pdfrwt beam="1">  1        2 0.50972775E+00 0.11520054E+04</pdfrwt>
<pdfrwt beam="2">  1       -2 0.15405793E-01 0.11520054E+04</pdfrwt>
<totfact> 0.37118458E+01</totfact>
</mgrwt>
</event>
<event>
12    1  0.1397649E-007  0.3840564E+04  0.7818608E-02  0.8037506E-01
          2   -1    0    0  501    0  0.00000000000E+00  0.00000000000E+00  0.32772779164E+04  0.32772779164E+04  0.00000000000E+00 0. -1.
         -2   -1    0    0    0  501 -0.00000000000E+00 -0.00000000000E+00 -0.11251662393E+04  0.11251662393E+04  0.00000000000E+00 0.  1.
         23    2    1    2    0    0  0.16337969834E+03  0.17790722776E+04  0.13777047070E+04  0.22579678531E+04  0.92506600997E+02 0.  0.
        254    2    1    2    0    0 -0.16337969834E+03 -0.17790722776E+04  0.77440697009E+03  0.21444763026E+04  0.89848837647E+03 0.  0.
        -24    2    4    4    0    0  0.61918384530E+02  0.30751735422E+01  0.25265089924E+03  0.27215650944E+03  0.79958399874E+02 0.  0.
         24    2    4    4    0    0 -0.22529808287E+03 -0.17821474511E+04  0.52175607085E+03  0.18723197932E+04  0.80890338869E+02 0.  0.
         11    1    3    3    0    0  0.14371150098E+03  0.14560098824E+04  0.10838446325E+04  0.18208066785E+04  0.00000000000E+00 0. -1.
        -11    1    3    3    0    0  0.19668197361E+02  0.32306239517E+03  0.29386007447E+03  0.43716117454E+03  0.00000000000E+00 0.  1.
          4    1    6    6  502    0 -0.10166981997E+02 -0.20379607515E+03  0.80837398004E+02  0.21947868390E+03  0.00000000000E+00 0. -1.
          3    1    5    5  503    0  0.37936943152E+02 -0.37125683112E+02  0.15563733404E+03  0.16443998221E+03  0.00000000000E+00 0. -1.
         -4    1    5    5    0  503  0.23981441378E+02  0.40200856654E+02  0.97013565198E+02  0.10771652723E+03  0.00000000000E+00 0.  1.
         -3    1    6    6    0  502 -0.21513110087E+03 -0.15783513760E+04  0.44091867285E+03  0.16528411093E+04  0.00000000000E+00 0.  1.
<mgrwt>
<rscale>  0 0.38405637E+04</rscale>
<asrwt>0</asrwt>
<pdfrwt beam="1">  1        2 0.50419660E+00 0.38405637E+04</pdfrwt>
<pdfrwt beam="2">  1       -2 0.17310250E+00 0.38405637E+04</pdfrwt>
<totfact> 0.18652867E-01</totfact>
</mgrwt>
</event>
<event>
12    1  0.1397649E-007  0.1600947E+04  0.7818608E-02  0.8819966E-01
         -2   -1    0    0    0  501 -0.00000000000E+00  0.00000000000E+00  0.93705413077E+03  0.93705413077E+03  0.00000000000E+00 0.  1.
          2   -1    0    0  501    0  0.00000000000E+00 -0.00000000000E+00 -0.68380044559E+03  0.68380044559E+03  0.00000000000E+00 0. -1.
         23    2    1    2    0    0  0.99774485681E+02 -0.59221046719E+02 -0.45087236944E+03  0.47449225066E+03  0.91623807183E+02 0.  0.
        254    2    1    2    0    0 -0.99774485681E+02  0.59221046719E+02  0.70412605463E+03  0.11463623257E+04  0.89715717720E+03 0.  0.
        -24    2    4    4    0    0 -0.29952638298E+03 -0.17433524957E+03  0.74562910567E+03  0.82597009265E+03  0.78453791467E+02 0.  0.
         24    2    4    4    0    0  0.19975189730E+03  0.23355629629E+03 -0.41503051034E+02  0.32039223305E+03  0.80494196951E+02 0.  0.
         11    1    3    3    0    0  0.37229968718E+02 -0.38867446516E+02 -0.71675010748E+02  0.89632896501E+02  0.00000000000E+00 0.  1.
        -11    1    3    3    0    0  0.62544516963E+02 -0.20353600203E+02 -0.37919735869E+03  0.38485935416E+03  0.00000000000E+00 0. -1.
          4    1    6    6  502    0  0.16552271147E+03  0.13911400026E+03 -0.16342524448E+02  0.21683530890E+03  0.00000000000E+00 0. -1.
          3    1    5    5  503    0 -0.23107508610E+03 -0.12678931045E+03  0.48041488341E+03  0.54796868967E+03  0.00000000000E+00 0. -1.
         -4    1    5    5    0  503 -0.68451296885E+02 -0.47545939114E+02  0.26521422226E+03  0.27800140298E+03  0.00000000000E+00 0.  1.
         -3    1    6    6    0  502  0.34229185832E+02  0.94442296023E+02 -0.25160526586E+02  0.10355692415E+03  0.00000000000E+00 0.  1.
<mgrwt>
<rscale>  0 0.16009473E+04</rscale>
<asrwt>0</asrwt>
<pdfrwt beam="1">  1        2 0.10520007E+00 0.16009473E+04</pdfrwt>
<pdfrwt beam="2">  1       -2 0.14416217E+00 0.16009473E+04</pdfrwt>
<totfact> 0.13456549E+01</totfact>
</mgrwt>
</event>
<event>
12    1  0.1397649E-007  0.1909784E+04  0.7818608E-02  0.8650001E-01
          1   -1    0    0  501    0  0.00000000000E+00  0.00000000000E+00  0.11963888492E+04  0.11963888492E+04  0.00000000000E+00 0. -1.
         -1   -1    0    0    0  501 -0.00000000000E+00 -0.00000000000E+00 -0.76214251608E+03  0.76214251608E+03  0.00000000000E+00 0.  1.
         23    2    1    2    0    0  0.26870451056E+03 -0.64268139252E+02 -0.53678522066E+03  0.61091178214E+03  0.93500399563E+02 0.  0.
        254    2    1    2    0    0 -0.26870451056E+03  0.64268139252E+02  0.97103155378E+03  0.13476195831E+04  0.89266105251E+03 0.  0.
        -24    2    4    4    0    0 -0.33120804742E+03  0.15983755379E+03  0.97165272346E+01  0.37617736611E+03  0.78537797224E+02 0.  0.
         24    2    4    4    0    0  0.62503536860E+02 -0.95569414540E+02  0.96131502654E+03  0.97144221702E+03  0.80828185896E+02 0.  0.
         13    1    3    3    0    0  0.91452125424E+02 -0.68496832001E+02 -0.21871497286E+03  0.24676212552E+03  0.00000000000E+00 0. -1.
        -13    1    3    3    0    0  0.17725238513E+03  0.42286927492E+01 -0.31807024780E+03  0.36414965662E+03  0.00000000000E+00 0.  1.
          2    1    6    6  502    0  0.40055174534E+02 -0.10448053725E+03  0.68557472875E+03  0.69464617495E+03  0.00000000000E+00 0. -1.
          3    1    5    5  503    0 -0.17153161676E+03  0.12422401574E+03 -0.55905046038E+01  0.21186305808E+03  0.00000000000E+00 0. -1.
         -4    1    5    5    0  503 -0.15967643065E+03  0.35613538048E+02  0.15307031838E+02  0.16431430803E+03  0.00000000000E+00 0.  1.
         -1    1    6    6    0  502  0.22448362325E+02  0.89111227082E+01  0.27574029779E+03  0.27679604207E+03  0.00000000000E+00 0.  1.
<mgrwt>
<rscale>  0 0.19097841E+04</rscale>
<asrwt>0</asrwt>
<pdfrwt beam="1">  1        1 0.18405982E+00 0.19097841E+04</pdfrwt>
<pdfrwt beam="2">  1       -1 0.11725270E+00 0.19097841E+04</pdfrwt>
<totfact> 0.65840909E+00</totfact>
</mgrwt>
</event>
<event>
12    1  0.1397649E-007  0.2570394E+04  0.7818608E-02  0.8378328E-01
         -2   -1    0    0    0  501 -0.00000000000E+00  0.00000000000E+00  0.69913134405E+03  0.69913134405E+03  0.00000000000E+00 0.  1.
          2   -1    0    0  501    0  0.00000000000E+00 -0.00000000000E+00 -0.23625485823E+04  0.23625485823E+04  0.00000000000E+00 0. -1.
         23    2    1    2    0    0 -0.52032103349E+03  0.35777637896E+03 -0.18344362992E+04  0.19420962964E+04  0.88563949422E+02 0.  0.
        254    2    1    2    0    0  0.52032103349E+03 -0.35777637896E+03  0.17101906103E+03  0.11195836300E+04  0.90856043827E+03 0.  0.
        -24    2    4    4    0    0 -0.13009953058E+02  0.19362521066E+02  0.41077754519E+03  0.41924837032E+03  0.80540910631E+02 0.  0.
         24    2    4    4    0    0  0.53333098655E+03 -0.37713890003E+03 -0.23975848416E+03  0.70033525964E+03  0.79433330740E+02 0.  0.
         11    1    3    3    0    0 -0.53304218683E+02  0.20913118362E+02 -0.24394459603E+03  0.25057466787E+03  0.00000000000E+00 0.  1.
        -11    1    3    3    0    0 -0.46701681481E+03  0.33686326060E+03 -0.15904917032E+04  0.16915216285E+04  0.00000000000E+00 0. -1.
          2    1    6    6  502    0  0.51242285896E+03 -0.35315996804E+03 -0.21010267505E+03  0.65684266265E+03  0.00000000000E+00 0. -1.
          1    1    5    5  503    0 -0.16371090425E+02  0.50107463234E+02  0.27289976425E+03  0.27794433220E+03  0.00000000000E+00 0. -1.
         -2    1    5    5    0  503  0.33611373673E+01 -0.30744942168E+02  0.13787778093E+03  0.14130403812E+03  0.00000000000E+00 0.  1.
         -1    1    6    6    0  502  0.20908127587E+02 -0.23978931990E+02 -0.29655809112E+02  0.43492596987E+02  0.00000000000E+00 0.  1.
<mgrwt>
<rscale>  0 0.25703943E+04</rscale>
<asrwt>0</asrwt>
<pdfrwt beam="1">  1        2 0.36346901E+00 0.25703943E+04</pdfrwt>
<pdfrwt beam="2">  1       -2 0.10755867E+00 0.25703943E+04</pdfrwt>
<totfact> 0.25685690E+00</totfact>
</mgrwt>
</event>
<event>
12    1  0.1397649E-007  0.2662107E+04  0.7818608E-02  0.8347406E-01
          1   -1    0    0  501    0  0.00000000000E+00  0.00000000000E+00  0.16061678954E+04  0.16061678954E+04  0.00000000000E+00 0. -1.
         -1   -1    0    0    0  501 -0.00000000000E+00 -0.00000000000E+00 -0.11030620963E+04  0.11030620963E+04  0.00000000000E+00 0.  1.
         23    2    1    2    0    0 -0.97801565797E+02 -0.38734348071E+03 -0.90184409799E+03  0.99057130132E+03  0.91151563888E+02 0.  0.
        254    2    1    2    0    0  0.97801565797E+02  0.38734348071E+03  0.14049498970E+04  0.17186586904E+04  0.90570600228E+03 0.  0.
        -24    2    4    4    0    0  0.43747600709E+03  0.36776348228E+01  0.45364006623E+03  0.63522256751E+03  0.79496030217E+02 0.  0.
         24    2    4    4    0    0 -0.33967444129E+03  0.38366584589E+03  0.95130983082E+03  0.10834361229E+04  0.79153210908E+02 0.  0.
         13    1    3    3    0    0  0.55245193992E+01 -0.25285221780E+02 -0.23617911151E+02  0.35038100437E+02  0.00000000000E+00 0. -1.
        -13    1    3    3    0    0 -0.10332608520E+03 -0.36205825893E+03 -0.87822618684E+03  0.95553320088E+03  0.00000000000E+00 0.  1.
          4    1    6    6  502    0 -0.22915364839E+03  0.20108763033E+03  0.54454467306E+03  0.62408054817E+03  0.00000000000E+00 0. -1.
          1    1    5    5  503    0  0.34393525185E+03 -0.28564823145E+02  0.36589864954E+03  0.50298034586E+03  0.00000000000E+00 0. -1.
         -2    1    5    5    0  503  0.93540755233E+02  0.32242457968E+02  0.87741416684E+02  0.13224222165E+03  0.00000000000E+00 0.  1.
         -3    1    6    6    0  502 -0.11052079290E+03  0.18257821556E+03  0.40676515776E+03  0.45935557472E+03  0.00000000000E+00 0.  1.
<mgrwt>
<rscale>  0 0.26621066E+04</rscale>
<asrwt>0</asrwt>
<pdfrwt beam="1">  1        1 0.24710275E+00 0.26621066E+04</pdfrwt>
<pdfrwt beam="2">  1       -1 0.16970186E+00 0.26621066E+04</pdfrwt>
<totfact> 0.11972212E+00</totfact>
</mgrwt>
</event>
<event>
12    1  0.1397649E-007  0.2272040E+04  0.7818608E-02  0.8489028E-01
          2   -1    0    0  501    0  0.00000000000E+00  0.00000000000E+00  0.37820593854E+04  0.37820593854E+04  0.00000000000E+00 0. -1.
         -2   -1    0    0    0  501 -0.00000000000E+00 -0.00000000000E+00 -0.34122724178E+03  0.34122724178E+03  0.00000000000E+00 0.  1.
         23    2    1    2    0    0 -0.49802989067E+03  0.22640529167E+03  0.27314107418E+04  0.27871736729E+04  0.91865740578E+02 0.  0.
        254    2    1    2    0    0  0.49802989067E+03 -0.22640529167E+03  0.70942140175E+03  0.13361129542E+04  0.99127492306E+03 0.  0.
        -24    2    4    4    0    0  0.20254410217E+02 -0.20341111453E+03  0.81171587353E+03  0.84053056202E+03  0.76306249488E+02 0.  0.
         24    2    4    4    0    0  0.47777548046E+03 -0.22994177136E+02 -0.10229447177E+03  0.49558239220E+03  0.79621646530E+02 0.  0.
         11    1    3    3    0    0 -0.37268332874E+03  0.17832703534E+03  0.22385005503E+04  0.22763079996E+04  0.00000000000E+00 0. -1.
        -11    1    3    3    0    0 -0.12534656194E+03  0.48078256330E+02  0.49291019149E+03  0.51086567334E+03  0.00000000000E+00 0.  1.
          4    1    6    6  502    0  0.20210348403E+03 -0.47894852950E+02 -0.33725001101E+02  0.21042127006E+03  0.00000000000E+00 0. -1.
          1    1    5    5  503    0  0.96865060775E+01 -0.58062104057E+01  0.13508613470E+03  0.13555738367E+03  0.00000000000E+00 0. -1.
         -2    1    5    5    0  503  0.10567904140E+02 -0.19760490412E+03  0.67662973883E+03  0.70497317836E+03  0.00000000000E+00 0.  1.
         -3    1    6    6    0  502  0.27567199643E+03  0.24900675813E+02 -0.68569470674E+02  0.28516112214E+03  0.00000000000E+00 0.  1.
<mgrwt>
<rscale>  0 0.22720402E+04</rscale>
<asrwt>0</asrwt>
<pdfrwt beam="1">  1        2 0.58185526E+00 0.22720402E+04</pdfrwt>
<pdfrwt beam="2">  1       -2 0.52496501E-01 0.22720402E+04</pdfrwt>
<totfact> 0.15839872E+00</totfact>
</mgrwt>
</event>
<event>
12    1  0.1397649E-007  0.4778130E+04  0.7818608E-02  0.7863675E-01
          2   -1    0    0  501    0  0.00000000000E+00  0.00000000000E+00  0.25584192830E+04  0.25584192830E+04  0.00000000000E+00 0. -1.
         -2   -1    0    0    0  501 -0.00000000000E+00 -0.00000000000E+00 -0.22309208505E+04  0.22309208505E+04  0.00000000000E+00 0.  1.
         23    2    1    2    0    0  0.14240608273E+04  0.34154590165E+03 -0.16243955062E+04  0.21889945987E+04  0.91835447961E+02 0.  0.
        254    2    1    2    0    0 -0.14240608273E+04 -0.34154590165E+03  0.19518939387E+04  0.26003455348E+04  0.89850103494E+03 0.  0.
        -24    2    4    4    0    0 -0.94697727130E+03 -0.63009713815E+03  0.11420518437E+04  0.16137781606E+04  0.78798364594E+02 0.  0.
         24    2    4    4    0    0 -0.47708355604E+03  0.28855123650E+03  0.80984209502E+03  0.98656737421E+03  0.81243027055E+02 0.  0.
         11    1    3    3    0    0  0.11813478416E+03  0.28618159404E+01 -0.12741986582E+03  0.17378100997E+03  0.00000000000E+00 0. -1.
        -11    1    3    3    0    0  0.13059260432E+04  0.33868408571E+03 -0.14969756404E+04  0.20152135887E+04  0.00000000000E+00 0.  1.
          4    1    6    6  502    0 -0.31733546163E+03  0.16081417212E+03  0.56316042453E+03  0.66611759991E+03  0.00000000000E+00 0. -1.
          1    1    5    5  503    0 -0.70627973366E+03 -0.43330954672E+03  0.80559907901E+03  0.11556721428E+04  0.00000000000E+00 0. -1.
         -2    1    5    5    0  503 -0.24069753764E+03 -0.19678759144E+03  0.33645276465E+03  0.45810601787E+03  0.00000000000E+00 0.  1.
         -3    1    6    6    0  502 -0.15974809441E+03  0.12773706438E+03  0.24668167050E+03  0.32044977429E+03  0.00000000000E+00 0.  1.
<mgrwt>
<rscale>  0 0.47781297E+04</rscale>
<asrwt>0</asrwt>
<pdfrwt beam="1">  1        2 0.39360297E+00 0.47781297E+04</pdfrwt>
<pdfrwt beam="2">  1       -2 0.34321859E+00 0.47781297E+04</pdfrwt>
<totfact> 0.40938324E-02</totfact>
</mgrwt>
</event>
<event>
12    1  0.1397649E-007  0.3768687E+04  0.7818608E-02  0.8052908E-01
         -2   -1    0    0    0  501 -0.00000000000E+00  0.00000000000E+00  0.20099945998E+04  0.20099945998E+04  0.00000000000E+00 0.  1.
          2   -1    0    0  501    0  0.00000000000E+00 -0.00000000000E+00 -0.17665475412E+04  0.17665475412E+04  0.00000000000E+00 0. -1.
         23    2    1    2    0    0 -0.41085271062E+03 -0.15476852777E+04  0.88393088024E+03  0.18313096833E+04  0.90728641910E+02 0.  0.
        254    2    1    2    0    0  0.41085271062E+03  0.15476852777E+04 -0.64048382159E+03  0.19452324577E+04  0.89976670323E+03 0.  0.
        -24    2    4    4    0    0  0.80780990218E+02 -0.78564209672E+02 -0.16773055681E+03  0.21793216489E+03  0.81627111809E+02 0.  0.
         24    2    4    4    0    0  0.33007172040E+03  0.16262494874E+04 -0.47275326478E+03  0.17273002928E+04  0.80224164156E+02 0.  0.
         11    1    3    3    0    0 -0.13087996193E+03 -0.51160900340E+03  0.24357012017E+03  0.58154943060E+03  0.00000000000E+00 0.  1.
        -11    1    3    3    0    0 -0.27997274869E+03 -0.10360762743E+04  0.64036076007E+03  0.12497602527E+04  0.00000000000E+00 0. -1.
          2    1    6    6  502    0  0.26271005691E+03  0.14280120227E+04 -0.41336574533E+03  0.15096708748E+04  0.00000000000E+00 0. -1.
          3    1    5    5  503    0  0.55367586953E+02 -0.53893804763E+02 -0.43327671910E+02  0.88585546394E+02  0.00000000000E+00 0. -1.
         -4    1    5    5    0  503  0.25413403265E+02 -0.24670404909E+02 -0.12440288490E+03  0.12934661849E+03  0.00000000000E+00 0.  1.
         -1    1    6    6    0  502  0.67361663491E+02  0.19823746470E+03 -0.59387519446E+02  0.21762941801E+03  0.00000000000E+00 0.  1.
<mgrwt>
<rscale>  0 0.37686873E+04</rscale>
<asrwt>0</asrwt>
<pdfrwt beam="1">  1        2 0.27177654E+00 0.37686873E+04</pdfrwt>
<pdfrwt beam="2">  1       -2 0.30922994E+00 0.37686873E+04</pdfrwt>
<totfact> 0.20195255E-01</totfact>
</mgrwt>
</event>
<event>
12    1  0.1397649E-007  0.1955780E+04  0.7818608E-02  0.8627579E-01
         -1   -1    0    0    0  501 -0.00000000000E+00  0.00000000000E+00  0.14052388513E+04  0.14052388513E+04  0.00000000000E+00 0.  1.
          1   -1    0    0  501    0  0.00000000000E+00 -0.00000000000E+00 -0.68050283765E+03  0.68050283765E+03  0.00000000000E+00 0. -1.
         23    2    1    2    0    0 -0.40506475108E+03  0.20430728272E+03  0.94305101544E+03  0.10511434638E+04  0.98683561887E+02 0.  0.
        254    2    1    2    0    0  0.40506475108E+03 -0.20430728272E+03 -0.21831500175E+03  0.10345982252E+04  0.90383246749E+03 0.  0.
        -24    2    4    4    0    0  0.23695694286E+03  0.31288899832E+03 -0.26981562317E+03  0.48274436361E+03  0.78698996478E+02 0.  0.
         24    2    4    4    0    0  0.16810780821E+03 -0.51719628104E+03  0.51500621417E+02  0.55185386160E+03  0.78346297009E+02 0.  0.
         11    1    3    3    0    0 -0.34138738065E+03  0.19826787275E+03  0.74674489818E+03  0.84467948713E+03  0.00000000000E+00 0.  1.
        -11    1    3    3    0    0 -0.63677370431E+02  0.60394099665E+01  0.19630611726E+03  0.20646397665E+03  0.00000000000E+00 0. -1.
          2    1    6    6  502    0  0.16161751317E+03 -0.41604003834E+03  0.24727210092E+02  0.44701338793E+03  0.00000000000E+00 0. -1.
          1    1    5    5  503    0  0.21569031914E+03  0.30066904213E+03 -0.27024991191E+03  0.45821305258E+03  0.00000000000E+00 0. -1.
         -2    1    5    5    0  503  0.21266623722E+02  0.12219956195E+02  0.43428874760E+00  0.24531311026E+02  0.00000000000E+00 0.  1.
         -1    1    6    6    0  502  0.64902950438E+01 -0.10115624270E+03  0.26773411325E+02  0.10484047368E+03  0.00000000000E+00 0.  1.
<mgrwt>
<rscale>  0 0.19557802E+04</rscale>
<asrwt>0</asrwt>
<pdfrwt beam="1">  1        1 0.10469274E+00 0.19557802E+04</pdfrwt>
<pdfrwt beam="2">  1       -1 0.21619059E+00 0.19557802E+04</pdfrwt>
<totfact> 0.30905387E+00</totfact>
</mgrwt>
</event>
<event>
12    1  0.1397649E-007  0.1766379E+04  0.7818608E-02  0.8724386E-01
         -2   -1    0    0    0  501 -0.00000000000E+00  0.00000000000E+00  0.40269999225E+03  0.40269999225E+03  0.00000000000E+00 0. -1.
          2   -1    0    0  501    0  0.00000000000E+00 -0.00000000000E+00 -0.19369844001E+04  0.19369844001E+04  0.00000000000E+00 0.  1.
         23    2    1    2    0    0  0.56644738440E+03 -0.41859143310E+02 -0.16394260811E+03  0.59814044028E+03  0.90994397496E+02 0.  0.
        254    2    1    2    0    0 -0.56644738440E+03  0.41859143310E+02 -0.13703417998E+04  0.17415439521E+04  0.91242745559E+03 0.  0.
        -24    2    4    4    0    0  0.18571055895E+03  0.15216443310E+03 -0.62632405517E+03  0.67473891089E+03  0.73132409861E+02 0.  0.
         24    2    4    4    0    0 -0.75215794335E+03 -0.11030528979E+03 -0.74401774461E+03  0.10668050412E+04  0.81251233694E+02 0.  0.
         11    1    3    3    0    0  0.37699276708E+03 -0.29127586897E+02 -0.63772537835E+02  0.38345651557E+03  0.00000000000E+00 0. -1.
        -11    1    3    3    0    0  0.18945461732E+03 -0.12731556413E+02 -0.10017007027E+03  0.21468392472E+03  0.00000000000E+00 0.  1.
          2    1    6    6  502    0 -0.45586447436E+03 -0.10314699698E+03 -0.43188696270E+03  0.63637887341E+03  0.00000000000E+00 0. -1.
          1    1    5    5  503    0  0.11627234712E+03  0.13738463232E+03 -0.45067498207E+03  0.48528521034E+03  0.00000000000E+00 0. -1.
         -2    1    5    5    0  503  0.69438211825E+02  0.14779800785E+02 -0.17564907310E+03  0.18945370055E+03  0.00000000000E+00 0.  1.
         -1    1    6    6    0  502 -0.29629346899E+03 -0.71582928189E+01 -0.31213078192E+03  0.43042616782E+03  0.00000000000E+00 0.  1.
<mgrwt>
<rscale>  0 0.17663789E+04</rscale>
<asrwt>0</asrwt>
<pdfrwt beam="1">  1        2 0.29799760E+00 0.17663789E+04</pdfrwt>
<pdfrwt beam="2">  1       -2 0.61953844E-01 0.17663789E+04</pdfrwt>
<totfact> 0.16587303E+01</totfact>
</mgrwt>
</event>
<event>
12    1  0.1397649E-007  0.1323768E+04  0.7818608E-02  0.9010927E-01
         -1   -1    0    0    0  501 -0.00000000000E+00  0.00000000000E+00  0.61832901810E+03  0.61832901810E+03  0.00000000000E+00 0.  1.
          1   -1    0    0  501    0  0.00000000000E+00 -0.00000000000E+00 -0.70850667450E+03  0.70850667450E+03  0.00000000000E+00 0. -1.
         23    2    1    2    0    0 -0.23653799098E+03 -0.16701412660E+02  0.24037912428E+03  0.34954979265E+03  0.90408936425E+02 0.  0.
        254    2    1    2    0    0  0.23653799098E+03  0.16701412660E+02 -0.33055678068E+03  0.97728589995E+03  0.88858921141E+03 0.  0.
        -24    2    4    4    0    0 -0.15074437562E+03  0.35554158640E+03 -0.95438664850E+02  0.40571404554E+03  0.79760024810E+02 0.  0.
         24    2    4    4    0    0  0.38728236660E+03 -0.33884017374E+03 -0.23511811583E+03  0.57157185442E+03  0.81323806815E+02 0.  0.
         11    1    3    3    0    0 -0.30096128076E+02 -0.17887981989E+01 -0.27212780520E+01  0.30271803356E+02  0.00000000000E+00 0. -1.
        -11    1    3    3    0    0 -0.20644186291E+03 -0.14912614462E+02  0.24310040233E+03  0.31927798929E+03  0.00000000000E+00 0.  1.
          4    1    6    6  502    0  0.34721811250E+03 -0.30763082059E+03 -0.23663809837E+03  0.52076360186E+03  0.00000000000E+00 0. -1.
          1    1    5    5  503    0 -0.45719268185E+02  0.20942268382E+03 -0.54232008987E+02  0.22110907440E+03  0.00000000000E+00 0. -1.
         -2    1    5    5    0  503 -0.10502510743E+03  0.14611890258E+03 -0.41206655863E+02  0.18460497114E+03  0.00000000000E+00 0.  1.
         -3    1    6    6    0  502  0.40064254104E+02 -0.31209353146E+02  0.15199825485E+01  0.50808252554E+02  0.00000000000E+00 0.  1.
<mgrwt>
<rscale>  0 0.13237677E+04</rscale>
<asrwt>0</asrwt>
<pdfrwt beam="1">  1        1 0.10900103E+00 0.13237677E+04</pdfrwt>
<pdfrwt beam="2">  1       -1 0.95127542E-01 0.13237677E+04</pdfrwt>
<totfact> 0.28017347E+01</totfact>
</mgrwt>
</event>
<event>
12    1  0.1397649E-007  0.2190542E+04  0.7818608E-02  0.8522375E-01
         -1   -1    0    0    0  501 -0.00000000000E+00  0.00000000000E+00  0.11500503858E+04  0.11500503858E+04  0.00000000000E+00 0.  1.
          1   -1    0    0  501    0  0.00000000000E+00 -0.00000000000E+00 -0.10431005045E+04  0.10431005045E+04  0.00000000000E+00 0. -1.
         23    2    1    2    0    0 -0.38747417006E+03 -0.53136870996E+03 -0.58399285530E+03  0.88435162435E+03  0.92418623987E+02 0.  0.
        254    2    1    2    0    0  0.38747417006E+03  0.53136870996E+03  0.69094273658E+03  0.13087992659E+04  0.89613878099E+03 0.  0.
        -24    2    4    4    0    0  0.13735502784E+03  0.16995522988E+03  0.81290089457E+03  0.84556408847E+03  0.80122278297E+02 0.  0.
         24    2    4    4    0    0  0.25011914221E+03  0.36141348008E+03 -0.12195815799E+03  0.46323517742E+03  0.80831605336E+02 0.  0.
         11    1    3    3    0    0 -0.38322675065E+02 -0.51445916050E+02 -0.24366817292E+02  0.68622529007E+02  0.00000000000E+00 0.  1.
        -11    1    3    3    0    0 -0.34915149499E+03 -0.47992279391E+03 -0.55962603801E+03  0.81572909534E+03  0.00000000000E+00 0. -1.
          2    1    6    6  502    0  0.23071688873E+03  0.35243152889E+03 -0.10073942016E+03  0.43311279832E+03  0.00000000000E+00 0. -1.
          3    1    5    5  503    0  0.11581938077E+03  0.17529891278E+03  0.74953069935E+03  0.77842154842E+03  0.00000000000E+00 0. -1.
         -4    1    5    5    0  503  0.21535647070E+02 -0.53436828939E+01  0.63370195227E+02  0.67142540052E+02  0.00000000000E+00 0.  1.
         -1    1    6    6    0  502  0.19402253487E+02  0.89819511892E+01 -0.21218737834E+02  0.30122379102E+02  0.00000000000E+00 0.  1.
<mgrwt>
<rscale>  0 0.21905416E+04</rscale>
<asrwt>0</asrwt>
<pdfrwt beam="1">  1        1 0.16047700E+00 0.21905416E+04</pdfrwt>
<pdfrwt beam="2">  1       -1 0.17693083E+00 0.21905416E+04</pdfrwt>
<totfact> 0.27995852E+00</totfact>
</mgrwt>
</event>
<event>
12    1  0.1397649E-007  0.2603579E+04  0.7818608E-02  0.8366987E-01
         -1   -1    0    0    0  501 -0.00000000000E+00  0.00000000000E+00  0.26757094499E+04  0.26757094499E+04  0.00000000000E+00 0.  1.
          1   -1    0    0  501    0  0.00000000000E+00 -0.00000000000E+00 -0.63334822638E+03  0.63334822638E+03  0.00000000000E+00 0. -1.
         23    2    1    2    0    0  0.48756761180E+02 -0.10206494524E+04  0.15587767875E+04  0.18661448354E+04  0.92784411376E+02 0.  0.
        254    2    1    2    0    0 -0.48756761180E+02  0.10206494524E+04  0.48358443603E+03  0.14429128409E+04  0.89668335177E+03 0.  0.
        -24    2    4    4    0    0 -0.42703028119E+03  0.48093922553E+03  0.50096468045E+02  0.65007730425E+03  0.80208763111E+02 0.  0.
         24    2    4    4    0    0  0.37827352001E+03  0.53971022684E+03  0.43348796798E+03  0.79283553667E+03  0.79362364712E+02 0.  0.
         11    1    3    3    0    0 -0.14015321555E+01 -0.18110682197E+03  0.21802101917E+03  0.28343396066E+03  0.00000000000E+00 0. -1.
        -11    1    3    3    0    0  0.50158293336E+02 -0.83954263040E+03  0.13407557684E+04  0.15827108747E+04  0.00000000000E+00 0.  1.
          2    1    6    6  502    0  0.37358573683E+03  0.50158977351E+03  0.40856839316E+03  0.74705203001E+03  0.00000000000E+00 0. -1.
          1    1    5    5  503    0 -0.24128094069E+03  0.32147399991E+03  0.10494391272E+02  0.40208476371E+03  0.00000000000E+00 0. -1.
         -2    1    5    5    0  503 -0.18574934050E+03  0.15946522562E+03  0.39602076773E+02  0.24799254054E+03  0.00000000000E+00 0.  1.
         -1    1    6    6    0  502  0.46877831782E+01  0.38120453325E+02  0.24919574822E+02  0.45783506661E+02  0.00000000000E+00 0.  1.
<mgrwt>
<rscale>  0 0.26035789E+04</rscale>
<asrwt>0</asrwt>
<pdfrwt beam="1">  1        1 0.97438190E-01 0.26035789E+04</pdfrwt>
<pdfrwt beam="2">  1       -1 0.41164760E+00 0.26035789E+04</pdfrwt>
<totfact> 0.16580564E-01</totfact>
</mgrwt>
</event>
<event>
12    1  0.1397649E-007  0.2058399E+04  0.7818608E-02  0.8579794E-01
         -1   -1    0    0    0  501 -0.00000000000E+00  0.00000000000E+00  0.21697362843E+04  0.21697362843E+04  0.00000000000E+00 0.  1.
          1   -1    0    0  501    0  0.00000000000E+00 -0.00000000000E+00 -0.48819364275E+03  0.48819364275E+03  0.00000000000E+00 0. -1.
         23    2    1    2    0    0 -0.46496780437E+03  0.12881010203E+03  0.14135058427E+04  0.14966002003E+04  0.95006792480E+02 0.  0.
        254    2    1    2    0    0  0.46496780437E+03 -0.12881010203E+03  0.26803679879E+03  0.11613297267E+04  0.10217905398E+04 0.  0.
        -24    2    4    4    0    0 -0.11020311478E+03  0.33645023091E+03 -0.19746289036E+02  0.36345040045E+03  0.79767118966E+02 0.  0.
         24    2    4    4    0    0  0.57517091915E+03 -0.46526033294E+03  0.28778308783E+03  0.79787932627E+03  0.80644590681E+02 0.  0.
         11    1    3    3    0    0 -0.22724464411E+03  0.39674997273E+02  0.54664012097E+03  0.59332087065E+03  0.00000000000E+00 0. -1.
        -11    1    3    3    0    0 -0.23772316026E+03  0.89135104757E+02  0.86686572174E+03  0.90327932964E+03  0.00000000000E+00 0.  1.
          4    1    6    6  502    0  0.32009032756E+02 -0.56438729533E+01  0.15803836883E+02  0.36141288578E+02  0.00000000000E+00 0. -1.
          1    1    5    5  503    0 -0.40907537894E+02  0.10160789808E+03 -0.42616690927E+02  0.11753201247E+03  0.00000000000E+00 0. -1.
         -2    1    5    5    0  503 -0.69295576889E+02  0.23484233283E+03  0.22870401890E+02  0.24591838798E+03  0.00000000000E+00 0.  1.
         -3    1    6    6    0  502  0.54316188640E+03 -0.45961645999E+03  0.27197925095E+03  0.76173803769E+03  0.00000000000E+00 0.  1.
<mgrwt>
<rscale>  0 0.20583989E+04</rscale>
<asrwt>0</asrwt>
<pdfrwt beam="1">  1        1 0.75106716E-01 0.20583989E+04</pdfrwt>
<pdfrwt beam="2">  1       -1 0.33380558E+00 0.20583989E+04</pdfrwt>
<totfact> 0.84126854E-01</totfact>
</mgrwt>
</event>
<event>
12    1  0.1397649E-007  0.1591582E+04  0.7818608E-02  0.8825736E-01
          2   -1    0    0  501    0  0.00000000000E+00  0.00000000000E+00  0.77654957602E+03  0.77654957602E+03  0.00000000000E+00 0. -1.
         -2   -1    0    0    0  501 -0.00000000000E+00 -0.00000000000E+00 -0.81550882016E+03  0.81550882016E+03  0.00000000000E+00 0.  1.
         23    2    1    2    0    0  0.51357966956E+02 -0.52174009504E+03  0.80439592748E+02  0.53787495462E+03  0.89378807260E+02 0.  0.
        254    2    1    2    0    0 -0.51357966956E+02  0.52174009504E+03 -0.11939883690E+03  0.10541834416E+04  0.90675039491E+03 0.  0.
        -24    2    4    4    0    0  0.19616429984E+03  0.33091029241E+03 -0.44693708159E+03  0.59515643482E+03  0.80475914789E+02 0.  0.
         24    2    4    4    0    0 -0.24752226680E+03  0.19082980263E+03  0.32753824469E+03  0.45902700674E+03  0.75770740038E+02 0.  0.
         11    1    3    3    0    0 -0.21352163925E+00 -0.25883276301E+03  0.24781175216E+01  0.25884471380E+03  0.00000000000E+00 0.  1.
        -11    1    3    3    0    0  0.51571488595E+02 -0.26290733203E+03  0.77961475227E+02  0.27903024082E+03  0.00000000000E+00 0. -1.
          4    1    6    6  502    0 -0.27845756694E+02  0.41299498049E+02  0.88708973154E+02  0.10173650585E+03  0.00000000000E+00 0. -1.
          3    1    5    5  503    0  0.39589360832E+02  0.14102531994E+03 -0.15354938780E+03  0.21220950226E+03  0.00000000000E+00 0. -1.
         -4    1    5    5    0  503  0.15657493901E+03  0.18988497247E+03 -0.29338769378E+03  0.38294693256E+03  0.00000000000E+00 0.  1.
         -3    1    6    6    0  502 -0.21967651010E+03  0.14953030458E+03  0.23882927154E+03  0.35729050088E+03  0.00000000000E+00 0.  1.
<mgrwt>
<rscale>  0 0.15915816E+04</rscale>
<asrwt>0</asrwt>
<pdfrwt beam="1">  1        2 0.11946917E+00 0.15915816E+04</pdfrwt>
<pdfrwt beam="2">  1       -2 0.12546290E+00 0.15915816E+04</pdfrwt>
<totfact> 0.16330638E+01</totfact>
</mgrwt>
</event>
<event>
12    1  0.1397649E-007  0.2004835E+04  0.7818608E-02  0.8604363E-01
         -2   -1    0    0    0  501 -0.00000000000E+00  0.00000000000E+00  0.42856198094E+03  0.42856198094E+03  0.00000000000E+00 0.  1.
          2   -1    0    0  501    0  0.00000000000E+00 -0.00000000000E+00 -0.23446813915E+04  0.23446813915E+04  0.00000000000E+00 0. -1.
         23    2    1    2    0    0  0.52931830822E+03  0.26265782175E+03 -0.14994885042E+04  0.16142443914E+04  0.90289413802E+02 0.  0.
        254    2    1    2    0    0 -0.52931830822E+03 -0.26265782175E+03 -0.41663090638E+03  0.11589989810E+04  0.90583128846E+03 0.  0.
        -24    2    4    4    0    0 -0.31790351480E+03 -0.10461352696E+03  0.25814628338E+03  0.42983000972E+03  0.78151768329E+02 0.  0.
         24    2    4    4    0    0 -0.21141479342E+03 -0.15804429479E+03 -0.67477718976E+03  0.72916897132E+03  0.81785811255E+02 0.  0.
         13    1    3    3    0    0  0.20790289185E+03  0.59707090992E+02 -0.59643561764E+03  0.63444778756E+03  0.00000000000E+00 0. -1.
        -13    1    3    3    0    0  0.32141541637E+03  0.20295073076E+03 -0.90305288652E+03  0.97979660382E+03  0.00000000000E+00 0.  1.
          4    1    6    6  502    0 -0.14415588247E+03 -0.10253433257E+03 -0.54350590213E+03  0.57157053236E+03  0.00000000000E+00 0. -1.
          3    1    5    5  503    0 -0.25535389482E+03 -0.11137382160E+03  0.19074754254E+03  0.33763051509E+03  0.00000000000E+00 0. -1.
         -4    1    5    5    0  503 -0.62549619980E+02  0.67602946457E+01  0.67398740838E+02  0.92199494629E+02  0.00000000000E+00 0.  1.
         -3    1    6    6    0  502 -0.67258910954E+02 -0.55509962220E+02 -0.13127128763E+03  0.15759843896E+03  0.00000000000E+00 0.  1.
<mgrwt>
<rscale>  0 0.20048355E+04</rscale>
<asrwt>0</asrwt>
<pdfrwt beam="1">  1        2 0.36072021E+00 0.20048355E+04</pdfrwt>
<pdfrwt beam="2">  1       -2 0.65932613E-01 0.20048355E+04</pdfrwt>
<totfact> 0.84088609E+00</totfact>
</mgrwt>
</event>
<event>
12    1  0.1397649E-007  0.2824092E+04  0.7818608E-02  0.8295828E-01
          1   -1    0    0  501    0  0.00000000000E+00  0.00000000000E+00  0.16421721820E+04  0.16421721820E+04  0.00000000000E+00 0. -1.
         -1   -1    0    0    0  501 -0.00000000000E+00 -0.00000000000E+00 -0.12141685431E+04  0.12141685431E+04  0.00000000000E+00 0.  1.
         23    2    1    2    0    0 -0.66763178306E+03  0.80953628074E+02  0.12043288613E+04  0.13823605588E+04  0.90702926438E+02 0.  0.
        254    2    1    2    0    0  0.66763178306E+03 -0.80953628074E+02 -0.77632522232E+03  0.14739801663E+04  0.10571901400E+04 0.  0.
        -24    2    4    4    0    0 -0.13383504087E+03 -0.32033818337E+03 -0.43592024514E+02  0.35910443051E+03  0.80792063495E+02 0.  0.
         24    2    4    4    0    0  0.80146682393E+03  0.23938455529E+03 -0.73273319781E+03  0.11148757358E+04  0.79974569982E+02 0.  0.
         13    1    3    3    0    0 -0.52662055776E+03  0.90185330826E+02  0.10023437098E+04  0.11358501302E+04  0.00000000000E+00 0. -1.
        -13    1    3    3    0    0 -0.14101122530E+03 -0.92317027515E+01  0.20198515146E+03  0.24651042859E+03  0.00000000000E+00 0.  1.
          4    1    6    6  502    0  0.95070863588E+02  0.26223690117E+01 -0.89562803551E+02  0.13064012287E+03  0.00000000000E+00 0. -1.
          1    1    5    5  503    0 -0.18848196612E+02 -0.33340189572E+01 -0.49571066159E+00  0.19147217213E+02  0.00000000000E+00 0. -1.
         -2    1    5    5    0  503 -0.11498684426E+03 -0.31700416441E+03 -0.43096313852E+02  0.33995721330E+03  0.00000000000E+00 0.  1.
         -3    1    6    6    0  502  0.70639596034E+03  0.23676218628E+03 -0.64317039426E+03  0.98423561290E+03  0.00000000000E+00 0.  1.
<mgrwt>
<rscale>  0 0.28240919E+04</rscale>
<asrwt>0</asrwt>
<pdfrwt beam="1">  1        1 0.25264187E+00 0.28240919E+04</pdfrwt>
<pdfrwt beam="2">  1       -1 0.18679516E+00 0.28240919E+04</pdfrwt>
<totfact> 0.83954233E-01</totfact>
</mgrwt>
</event>
<event>
12    1  0.1397649E-007  0.2238086E+04  0.7818608E-02  0.8502741E-01
         -2   -1    0    0    0  501 -0.00000000000E+00  0.00000000000E+00  0.59382849713E+03  0.59382849713E+03  0.00000000000E+00 0.  1.
          2   -1    0    0  501    0  0.00000000000E+00 -0.00000000000E+00 -0.21087865511E+04  0.21087865511E+04  0.00000000000E+00 0. -1.
         23    2    1    2    0    0 -0.41242717361E+03 -0.85553469311E+02  0.37451421008E+03  0.57102207136E+03  0.91595539115E+02 0.  0.
        254    2    1    2    0    0  0.41242717361E+03  0.85553469311E+02 -0.18894722641E+04  0.21315929769E+04  0.89228224952E+03 0.  0.
        -24    2    4    4    0    0 -0.69813825835E+02 -0.30817724373E+03 -0.40504918219E+03  0.51990884022E+03  0.79957353092E+02 0.  0.
         24    2    4    4    0    0  0.48224099944E+03  0.39373071304E+03 -0.14844230819E+04  0.16116841367E+04  0.80209815164E+02 0.  0.
         11    1    3    3    0    0 -0.58309754489E+02  0.10629853535E+02  0.25234408541E+02  0.64418915150E+02  0.00000000000E+00 0. -1.
        -11    1    3    3    0    0 -0.35411741912E+03 -0.96183322846E+02  0.34927980154E+03  0.50660315621E+03  0.00000000000E+00 0.  1.
          4    1    6    6  502    0  0.10122036179E+03  0.44632151361E+02 -0.24272467119E+03  0.26674492794E+03  0.00000000000E+00 0. -1.
          3    1    5    5  503    0 -0.46155419468E+02 -0.66722667978E+02 -0.76655775335E+02  0.11161695687E+03  0.00000000000E+00 0. -1.
         -4    1    5    5    0  503 -0.23658406367E+02 -0.24145457576E+03 -0.32839340686E+03  0.40829188335E+03  0.00000000000E+00 0.  1.
         -3    1    6    6    0  502  0.38102063766E+03  0.34909856168E+03 -0.12416984107E+04  0.13449392087E+04  0.00000000000E+00 0.  1.
<mgrwt>
<rscale>  0 0.22380863E+04</rscale>
<asrwt>0</asrwt>
<pdfrwt beam="1">  1        2 0.32442870E+00 0.22380863E+04</pdfrwt>
<pdfrwt beam="2">  1       -2 0.91358230E-01 0.22380863E+04</pdfrwt>
<totfact> 0.54033656E+00</totfact>
</mgrwt>
</event>
<event>
12    1  0.1397649E-007  0.1993163E+04  0.7818608E-02  0.8609824E-01
          2   -1    0    0  501    0  0.00000000000E+00  0.00000000000E+00  0.19979523511E+04  0.19979523511E+04  0.00000000000E+00 0. -1.
         -2   -1    0    0    0  501 -0.00000000000E+00 -0.00000000000E+00 -0.49709634237E+03  0.49709634237E+03  0.00000000000E+00 0.  1.
         23    2    1    2    0    0  0.15338387023E+03  0.44814866162E+03 -0.20230566426E+03  0.52227978624E+03  0.86514500298E+02 0.  0.
        254    2    1    2    0    0 -0.15338387023E+03 -0.44814866162E+03  0.17031616730E+04  0.19727689072E+04  0.87561043985E+03 0.  0.
        -24    2    4    4    0    0 -0.46468478084E+03 -0.47543935824E+03  0.10676166062E+04  0.12602000475E+04  0.79526177566E+02 0.  0.
         24    2    4    4    0    0  0.31130091061E+03  0.27290696623E+02  0.63554506679E+03  0.71256885974E+03  0.78637197812E+02 0.  0.
         11    1    3    3    0    0  0.10618253534E+03  0.20451399852E+03 -0.12607737406E+03  0.26267129773E+03  0.00000000000E+00 0.  1.
        -11    1    3    3    0    0  0.47201334898E+02  0.24363466310E+03 -0.76228290207E+02  0.25960848851E+03  0.00000000000E+00 0. -1.
          4    1    6    6  502    0  0.38286258818E+02 -0.22134525092E+02  0.73679451147E+02  0.85932743099E+02  0.00000000000E+00 0. -1.
          3    1    5    5  503    0 -0.15311577286E+03 -0.17128076636E+03  0.30233636694E+03  0.37972202938E+03  0.00000000000E+00 0. -1.
         -4    1    5    5    0  503 -0.31156900799E+03 -0.30415859188E+03  0.76528023924E+03  0.88047801808E+03  0.00000000000E+00 0.  1.
         -3    1    6    6    0  502  0.27301465179E+03  0.49425221715E+02  0.56186561565E+03  0.62663611664E+03  0.00000000000E+00 0.  1.
<mgrwt>
<rscale>  0 0.19931631E+04</rscale>
<asrwt>0</asrwt>
<pdfrwt beam="1">  1        2 0.30737728E+00 0.19931631E+04</pdfrwt>
<pdfrwt beam="2">  1       -2 0.76476362E-01 0.19931631E+04</pdfrwt>
<totfact> 0.95206400E+00</totfact>
</mgrwt>
</event>
<event>
12    1  0.1397649E-007  0.2173499E+04  0.7818608E-02  0.8529540E-01
         -2   -1    0    0    0  501 -0.00000000000E+00  0.00000000000E+00  0.28370202672E+03  0.28370202672E+03  0.00000000000E+00 0.  1.
          2   -1    0    0  501    0  0.00000000000E+00 -0.00000000000E+00 -0.41629028095E+04  0.41629028095E+04  0.00000000000E+00 0. -1.
         23    2    1    2    0    0 -0.37039827244E+03  0.56888502452E+03 -0.40676870205E+03  0.79627362528E+03  0.88124105757E+02 0.  0.
        254    2    1    2    0    0  0.37039827244E+03 -0.56888502452E+03 -0.34724320808E+04  0.36503312110E+04  0.89794673726E+03 0.  0.
        -24    2    4    4    0    0  0.59447301894E+03 -0.41828962987E+03 -0.16312682488E+04  0.17876406357E+04  0.79111049842E+02 0.  0.
         24    2    4    4    0    0 -0.22407474651E+03 -0.15059539465E+03 -0.18411638320E+04  0.18626905753E+04  0.82725196330E+02 0.  0.
         11    1    3    3    0    0 -0.23548079174E+03  0.43130396548E+03 -0.30494561112E+03  0.57833047616E+03  0.00000000000E+00 0.  1.
        -11    1    3    3    0    0 -0.13491748070E+03  0.13758105904E+03 -0.10182309093E+03  0.21794314913E+03  0.00000000000E+00 0. -1.
          4    1    6    6  502    0 -0.21576420472E+03 -0.14901851714E+03 -0.18299606269E+04  0.18486526462E+04  0.00000000000E+00 0. -1.
          1    1    5    5  503    0  0.55054334605E+03 -0.37363485888E+03 -0.15321910871E+04  0.16704222553E+04  0.00000000000E+00 0. -1.
         -2    1    5    5    0  503  0.43929672891E+02 -0.44654770991E+02 -0.99077161627E+02  0.11721838034E+03  0.00000000000E+00 0.  1.
         -3    1    6    6    0  502 -0.83105417850E+01 -0.15768775064E+01 -0.11203205136E+02  0.14037929076E+02  0.00000000000E+00 0.  1.
<mgrwt>
<rscale>  0 0.21734985E+04</rscale>
<asrwt>0</asrwt>
<pdfrwt beam="1">  1        2 0.64044655E+00 0.21734985E+04</pdfrwt>
<pdfrwt beam="2">  1       -2 0.43646468E-01 0.21734985E+04</pdfrwt>
<totfact> 0.11517104E+00</totfact>
</mgrwt>
</event>
<event>
12    1  0.1397649E-007  0.1200925E+04  0.7818608E-02  0.9112047E-01
         -1   -1    0    0    0  501 -0.00000000000E+00  0.00000000000E+00  0.55878568760E+03  0.55878568760E+03  0.00000000000E+00 0.  1.
          1   -1    0    0  501    0  0.00000000000E+00 -0.00000000000E+00 -0.64524792819E+03  0.64524792819E+03  0.00000000000E+00 0. -1.
         23    2    1    2    0    0 -0.58010954616E+02  0.20572050440E+03  0.95864927792E+02  0.25148418803E+03  0.91476858616E+02 0.  0.
        254    2    1    2    0    0  0.58010954616E+02 -0.20572050440E+03 -0.18232716838E+03  0.95254942776E+03  0.91017636709E+03 0.  0.
        -24    2    4    4    0    0  0.18548988243E+03  0.12908139767E+03 -0.44206441593E+03  0.50291501873E+03  0.80212620753E+02 0.  0.
         24    2    4    4    0    0 -0.12747892781E+03 -0.33480190207E+03  0.25973724755E+03  0.44963440903E+03  0.79777649473E+02 0.  0.
         11    1    3    3    0    0 -0.46384112246E+02  0.19277392864E+03  0.11202708043E+03  0.22773524141E+03  0.00000000000E+00 0.  1.
        -11    1    3    3    0    0 -0.11626842370E+02  0.12946575760E+02 -0.16162152639E+02  0.23748946615E+02  0.00000000000E+00 0. -1.
          4    1    6    6  502    0 -0.11218062483E+03 -0.21155535228E+03  0.19915835232E+03  0.31145498706E+03  0.00000000000E+00 0. -1.
          3    1    5    5  503    0  0.11700025071E+03  0.12343006666E+03 -0.33488953006E+03  0.37559957051E+03  0.00000000000E+00 0. -1.
         -4    1    5    5    0  503  0.68489631718E+02  0.56513310046E+01 -0.10717488586E+03  0.12731544822E+03  0.00000000000E+00 0.  1.
         -3    1    6    6    0  502 -0.15298302980E+02 -0.12324654979E+03  0.60578895227E+02  0.13817942197E+03  0.00000000000E+00 0.  1.
<mgrwt>
<rscale>  0 0.12009252E+04</rscale>
<asrwt>0</asrwt>
<pdfrwt beam="1">  1        1 0.99268912E-01 0.12009252E+04</pdfrwt>
<pdfrwt beam="2">  1       -1 0.85967029E-01 0.12009252E+04</pdfrwt>
<totfact> 0.40725832E+01</totfact>
</mgrwt>
</event>
<event>
12    1  0.1397649E-007  0.1585245E+04  0.7818608E-02  0.8829664E-01
         -1   -1    0    0    0  501 -0.00000000000E+00  0.00000000000E+00  0.15543689728E+04  0.15543689728E+04  0.00000000000E+00 0.  1.
          1   -1    0    0  501    0  0.00000000000E+00 -0.00000000000E+00 -0.40418364507E+03  0.40418364507E+03  0.00000000000E+00 0. -1.
         23    2    1    2    0    0  0.22577633156E+03  0.24929508889E+03  0.90364476084E+03  0.96900931646E+03  0.96344218085E+02 0.  0.
        254    2    1    2    0    0 -0.22577633156E+03 -0.24929508889E+03  0.24654056692E+03  0.98954330144E+03  0.89737990898E+03 0.  0.
        -24    2    4    4    0    0 -0.16180983507E+03 -0.52649101509E+03 -0.66250980989E+02  0.55912412714E+03  0.69680595374E+02 0.  0.
         24    2    4    4    0    0 -0.63966496482E+02  0.27719592620E+03  0.31279154791E+03  0.43041917430E+03  0.80578030390E+02 0.  0.
         11    1    3    3    0    0 -0.81027609335E+00  0.10775882134E+02  0.47529418835E+01  0.11805364868E+02  0.00000000000E+00 0. -1.
        -11    1    3    3    0    0  0.22658660765E+03  0.23851920676E+03  0.89889181895E+03  0.95720395159E+03  0.00000000000E+00 0.  1.
          2    1    6    6  502    0 -0.65408388888E+02  0.17105129192E+03  0.23918949506E+03  0.30124477813E+03  0.00000000000E+00 0. -1.
          1    1    5    5  503    0 -0.10209061197E+03 -0.29726593022E+03 -0.70885314343E+02  0.32220219445E+03  0.00000000000E+00 0. -1.
         -2    1    5    5    0  503 -0.59719223100E+02 -0.22922508487E+03  0.46343333545E+01  0.23692193269E+03  0.00000000000E+00 0.  1.
         -1    1    6    6    0  502  0.14418924062E+01  0.10614463428E+03  0.73602052853E+02  0.12917439617E+03  0.00000000000E+00 0.  1.
<mgrwt>
<rscale>  0 0.15852451E+04</rscale>
<asrwt>0</asrwt>
<pdfrwt beam="1">  1        1 0.62182100E-01 0.15852451E+04</pdfrwt>
<pdfrwt beam="2">  1       -1 0.23913369E+00 0.15852451E+04</pdfrwt>
<totfact> 0.46702549E+00</totfact>
</mgrwt>
</event>
<event>
12    1  0.1397649E-007  0.1171440E+04  0.7818608E-02  0.9138229E-01
          1   -1    0    0  501    0  0.00000000000E+00  0.00000000000E+00  0.17977541771E+04  0.17977541771E+04  0.00000000000E+00 0. -1.
         -1   -1    0    0    0  501 -0.00000000000E+00 -0.00000000000E+00 -0.19083148227E+03  0.19083148227E+03  0.00000000000E+00 0.  1.
         23    2    1    2    0    0  0.14712949193E+03  0.11824545147E+03  0.52739358220E+03  0.56712438348E+03  0.88639729270E+02 0.  0.
        254    2    1    2    0    0 -0.14712949193E+03 -0.11824545147E+03  0.10795291127E+04  0.14214612759E+04  0.90528447444E+03 0.  0.
        -24    2    4    4    0    0 -0.33993298442E+03 -0.42022371747E+03  0.75629850162E+03  0.93292737929E+03  0.78890207536E+02 0.  0.
         24    2    4    4    0    0  0.19280349249E+03  0.30197826600E+03  0.32323061104E+03  0.48853389663E+03  0.76310421237E+02 0.  0.
         13    1    3    3    0    0  0.25112457734E+02  0.18078778304E+02  0.21389602369E+03  0.21612261961E+03  0.00000000000E+00 0. -1.
        -13    1    3    3    0    0  0.12201703419E+03  0.10016667317E+03  0.31349755851E+03  0.35100176387E+03  0.00000000000E+00 0.  1.
          4    1    6    6  502    0  0.59523660606E+02  0.10451612604E+03  0.15816898805E+03  0.19870610346E+03  0.00000000000E+00 0. -1.
          1    1    5    5  503    0 -0.19891975921E+03 -0.23711468608E+03  0.36585966770E+03  0.47921366989E+03  0.00000000000E+00 0. -1.
         -2    1    5    5    0  503 -0.14101322520E+03 -0.18310903140E+03  0.39043883392E+03  0.45371370940E+03  0.00000000000E+00 0.  1.
         -3    1    6    6    0  502  0.13327983188E+03  0.19746213997E+03  0.16506162299E+03  0.28982779317E+03  0.00000000000E+00 0.  1.
<mgrwt>
<rscale>  0 0.11714403E+04</rscale>
<asrwt>0</asrwt>
<pdfrwt beam="1">  1        1 0.27657755E+00 0.11714403E+04</pdfrwt>
<pdfrwt beam="2">  1       -1 0.29358691E-01 0.11714403E+04</pdfrwt>
<totfact> 0.43008380E+01</totfact>
</mgrwt>
</event>
<event>
12    1  0.1397649E-007  0.3651168E+04  0.7818608E-02  0.8078871E-01
         -2   -1    0    0    0  501 -0.00000000000E+00  0.00000000000E+00  0.23655146612E+04  0.23655146612E+04  0.00000000000E+00 0.  1.
          2   -1    0    0  501    0  0.00000000000E+00 -0.00000000000E+00 -0.14088926112E+04  0.14088926112E+04  0.00000000000E+00 0. -1.
         23    2    1    2    0    0  0.17065717509E+04 -0.14113246541E+03  0.37542244166E+03  0.17555408816E+04  0.93146462060E+02 0.  0.
        254    2    1    2    0    0 -0.17065717509E+04  0.14113246541E+03  0.58119960835E+03  0.20188663908E+04  0.89762074701E+03 0.  0.
        -24    2    4    4    0    0 -0.78941911186E+03  0.11870344511E+02  0.72892653227E+03  0.10775045189E+04  0.79741204076E+02 0.  0.
         24    2    4    4    0    0 -0.91715263907E+03  0.12926212090E+03 -0.14772692392E+03  0.94136187191E+03  0.80382028932E+02 0.  0.
         11    1    3    3    0    0  0.65919438927E+03 -0.55596404921E+02  0.19157736902E+03  0.68871626335E+03  0.00000000000E+00 0. -1.
        -11    1    3    3    0    0  0.10473773617E+04 -0.85536060486E+02  0.18384507265E+03  0.10668246182E+04  0.00000000000E+00 0.  1.
          4    1    6    6  502    0 -0.30117337818E+03  0.36922265213E+02 -0.10764091454E+02  0.30361904265E+03  0.00000000000E+00 0. -1.
          3    1    5    5  503    0 -0.62149584390E+03  0.20946582161E+01  0.61498365143E+03  0.87433767110E+03  0.00000000000E+00 0. -1.
         -4    1    5    5    0  503 -0.16792326796E+03  0.97756862954E+01  0.11394288084E+03  0.20316684783E+03  0.00000000000E+00 0.  1.
         -3    1    6    6    0  502 -0.61597926089E+03  0.92339855682E+02 -0.13696283247E+03  0.63774282926E+03  0.00000000000E+00 0.  1.
<mgrwt>
<rscale>  0 0.36511676E+04</rscale>
<asrwt>0</asrwt>
<pdfrwt beam="1">  1        2 0.21675271E+00 0.36511676E+04</pdfrwt>
<pdfrwt beam="2">  1       -2 0.36392533E+00 0.36511676E+04</pdfrwt>
<totfact> 0.14729280E-01</totfact>
</mgrwt>
</event>
<event>
12    1  0.1397649E-007  0.1665217E+04  0.7818608E-02  0.8781455E-01
         -1   -1    0    0    0  501 -0.00000000000E+00  0.00000000000E+00  0.31574808655E+03  0.31574808655E+03  0.00000000000E+00 0.  1.
          1   -1    0    0  501    0  0.00000000000E+00 -0.00000000000E+00 -0.21955377684E+04  0.21955377684E+04  0.00000000000E+00 0. -1.
         23    2    1    2    0    0  0.69550766473E+02 -0.56570336056E+03 -0.84251778542E+03  0.10208223213E+04  0.85932482932E+02 0.  0.
        254    2    1    2    0    0 -0.69550766473E+02  0.56570336056E+03 -0.10372718964E+04  0.14904635337E+04  0.90591995057E+03 0.  0.
        -24    2    4    4    0    0  0.27985037225E+03  0.38158253552E+03 -0.12951173934E+03  0.49704297631E+03  0.79730592725E+02 0.  0.
         24    2    4    4    0    0 -0.34940113872E+03  0.18412082504E+03 -0.90776015711E+03  0.99342055738E+03  0.82911199648E+02 0.  0.
         11    1    3    3    0    0  0.64015059776E+02 -0.21336601599E+03 -0.29385167910E+03  0.36874353413E+03  0.00000000000E+00 0.  1.
        -11    1    3    3    0    0  0.55357066973E+01 -0.35233734457E+03 -0.54866610632E+03  0.65207878715E+03  0.00000000000E+00 0. -1.
          2    1    6    6  502    0 -0.16289029308E+03  0.87497545707E+02 -0.52798372270E+03  0.55942459681E+03  0.00000000000E+00 0. -1.
          1    1    5    5  503    0  0.13100375087E+03  0.20218985622E+03 -0.27117007112E+02  0.24244185443E+03  0.00000000000E+00 0. -1.
         -2    1    5    5    0  503  0.14884662137E+03  0.17939267930E+03 -0.10239473222E+03  0.25460112189E+03  0.00000000000E+00 0.  1.
         -1    1    6    6    0  502 -0.18651084564E+03  0.96623279331E+02 -0.37977643441E+03  0.43399596056E+03  0.00000000000E+00 0.  1.
<mgrwt>
<rscale>  0 0.16652169E+04</rscale>
<asrwt>0</asrwt>
<pdfrwt beam="1">  1        1 0.33777504E+00 0.16652169E+04</pdfrwt>
<pdfrwt beam="2">  1       -1 0.48576629E-01 0.16652169E+04</pdfrwt>
<totfact> 0.88851049E+00</totfact>
</mgrwt>
</event>
<event>
12    1  0.1397649E-007  0.1592292E+04  0.7818608E-02  0.8825298E-01
          1   -1    0    0  501    0  0.00000000000E+00  0.00000000000E+00  0.24979719490E+04  0.24979719490E+04  0.00000000000E+00 0. -1.
         -1   -1    0    0    0  501 -0.00000000000E+00 -0.00000000000E+00 -0.25374506968E+03  0.25374506968E+03  0.00000000000E+00 0.  1.
         23    2    1    2    0    0  0.32419028736E+03  0.42217686224E+03  0.88784975734E+03  0.10396889450E+04  0.96660568051E+02 0.  0.
        254    2    1    2    0    0 -0.32419028736E+03 -0.42217686224E+03  0.13563771220E+04  0.17120280736E+04  0.89885960109E+03 0.  0.
        -24    2    4    4    0    0 -0.30092489089E+03 -0.46102192855E+02  0.12823273325E+04  0.13203683918E+04  0.79549357545E+02 0.  0.
         24    2    4    4    0    0 -0.23265396468E+02 -0.37607466938E+03  0.74049789459E+02  0.39165968181E+03  0.77074635305E+02 0.  0.
         11    1    3    3    0    0  0.35767599678E+02  0.61216998189E+02  0.18949617709E+03  0.20232558707E+03  0.00000000000E+00 0.  1.
        -11    1    3    3    0    0  0.28842268768E+03  0.36095986405E+03  0.69835358025E+03  0.83736335797E+03  0.00000000000E+00 0. -1.
          4    1    6    6  502    0 -0.32507603075E+02 -0.33386421622E+03  0.42430313300E+02  0.33811594256E+03  0.00000000000E+00 0. -1.
          1    1    5    5  503    0 -0.13164201767E+03  0.63605816422E+01  0.67333812787E+03  0.68611537824E+03  0.00000000000E+00 0. -1.
         -2    1    5    5    0  503 -0.16928287321E+03 -0.52462774497E+02  0.60898920466E+03  0.63425301360E+03  0.00000000000E+00 0.  1.
         -3    1    6    6    0  502  0.92422066067E+01 -0.42210453168E+02  0.31619476160E+02  0.53543739244E+02  0.00000000000E+00 0.  1.
<mgrwt>
<rscale>  0 0.15922915E+04</rscale>
<asrwt>0</asrwt>
<pdfrwt beam="1">  1        1 0.38430336E+00 0.15922915E+04</pdfrwt>
<pdfrwt beam="2">  1       -1 0.39037705E-01 0.15922915E+04</pdfrwt>
<totfact> 0.83276379E+00</totfact>
</mgrwt>
</event>
<event>
12    1  0.1397649E-007  0.1594979E+04  0.7818608E-02  0.8823639E-01
         -1   -1    0    0    0  501 -0.00000000000E+00  0.00000000000E+00  0.81107231788E+03  0.81107231788E+03  0.00000000000E+00 0.  1.
          1   -1    0    0  501    0  0.00000000000E+00 -0.00000000000E+00 -0.78413383437E+03  0.78413383437E+03  0.00000000000E+00 0. -1.
         23    2    1    2    0    0  0.46100712877E+03  0.20981313228E+03  0.18354783854E+03  0.54633523653E+03  0.90792391671E+02 0.  0.
        254    2    1    2    0    0 -0.46100712877E+03 -0.20981313228E+03 -0.15660935503E+03  0.10488709157E+04  0.90501634489E+03 0.  0.
        -24    2    4    4    0    0  0.22567393766E+03 -0.59214174637E+02  0.13713852136E+03  0.28310114035E+03  0.83091738533E+02 0.  0.
         24    2    4    4    0    0 -0.68668106643E+03 -0.15059895764E+03 -0.29374787639E+03  0.76576977537E+03  0.76841401287E+02 0.  0.
         11    1    3    3    0    0  0.63591540267E+02  0.27007402810E+02 -0.64949560358E+01  0.69393575020E+02  0.00000000000E+00 0.  1.
        -11    1    3    3    0    0  0.39741558851E+03  0.18280572947E+03  0.19004279458E+03  0.47694166151E+03  0.00000000000E+00 0. -1.
          4    1    6    6  502    0 -0.66519968400E+03 -0.14224087139E+03 -0.26777784880E+03  0.73104586819E+03  0.00000000000E+00 0. -1.
          3    1    5    5  503    0  0.17185315250E+03 -0.72413563896E+02  0.78249001967E+02  0.20223782181E+03  0.00000000000E+00 0. -1.
         -4    1    5    5    0  503  0.53820785152E+02  0.13199389259E+02  0.58889519393E+02  0.80863318541E+02  0.00000000000E+00 0.  1.
         -3    1    6    6    0  502 -0.21481382429E+02 -0.83580862513E+01 -0.25970027593E+02  0.34723907183E+02  0.00000000000E+00 0.  1.
<mgrwt>
<rscale>  0 0.15949787E+04</rscale>
<asrwt>0</asrwt>
<pdfrwt beam="1">  1        1 0.12063597E+00 0.15949787E+04</pdfrwt>
<pdfrwt beam="2">  1       -1 0.12478036E+00 0.15949787E+04</pdfrwt>
<totfact> 0.12321476E+01</totfact>
</mgrwt>
</event>
<event>
12    1  0.1397649E-007  0.1241320E+04  0.7818608E-02  0.9077439E-01
         -2   -1    0    0    0  501 -0.00000000000E+00  0.00000000000E+00  0.30211321371E+03  0.30211321371E+03  0.00000000000E+00 0.  1.
          2   -1    0    0  501    0  0.00000000000E+00 -0.00000000000E+00 -0.12750814920E+04  0.12750814920E+04  0.00000000000E+00 0. -1.
         23    2    1    2    0    0 -0.19111226668E+03 -0.20339824535E+02 -0.48599076384E+03  0.53024523055E+03  0.89640253474E+02 0.  0.
        254    2    1    2    0    0  0.19111226668E+03  0.20339824535E+02 -0.48697751447E+03  0.10469494752E+04  0.90665235734E+03 0.  0.
        -24    2    4    4    0    0  0.41800022454E+02 -0.42811271567E+03 -0.30823112663E+03  0.53537220295E+03  0.81174066533E+02 0.  0.
         24    2    4    4    0    0  0.14931224423E+03  0.44845254020E+03 -0.17874638784E+03  0.51157727224E+03  0.79732096526E+02 0.  0.
         11    1    3    3    0    0 -0.12658605633E+03 -0.40629947644E+02 -0.23190642791E+03  0.26731145432E+03  0.00000000000E+00 0. -1.
        -11    1    3    3    0    0 -0.64526210349E+02  0.20290123109E+02 -0.25408433593E+03  0.26293377623E+03  0.00000000000E+00 0.  1.
          4    1    6    6  502    0  0.41386520168E+02  0.18653268353E+03 -0.10844994208E+03  0.21970133367E+03  0.00000000000E+00 0. -1.
          3    1    5    5  503    0  0.27485984699E+02 -0.44541015760E+02 -0.23061334109E+02  0.57194462763E+02  0.00000000000E+00 0. -1.
         -4    1    5    5    0  503  0.14314037754E+02 -0.38357169991E+03 -0.28516979252E+03  0.47817774019E+03  0.00000000000E+00 0.  1.
         -3    1    6    6    0  502  0.10792572406E+03  0.26191985667E+03 -0.70296445757E+02  0.29187593857E+03  0.00000000000E+00 0.  1.
<mgrwt>
<rscale>  0 0.12413202E+04</rscale>
<asrwt>0</asrwt>
<pdfrwt beam="1">  1        2 0.19616638E+00 0.12413202E+04</pdfrwt>
<pdfrwt beam="2">  1       -2 0.46478956E-01 0.12413202E+04</pdfrwt>
<totfact> 0.73804444E+01</totfact>
</mgrwt>
</event>
<event>
12    1  0.1397649E-007  0.1601977E+04  0.7818608E-02  0.8819335E-01
          1   -1    0    0  501    0  0.00000000000E+00  0.00000000000E+00  0.15725553830E+04  0.15725553830E+04  0.00000000000E+00 0. -1.
         -1   -1    0    0    0  501 -0.00000000000E+00 -0.00000000000E+00 -0.40798704180E+03  0.40798704180E+03  0.00000000000E+00 0.  1.
         23    2    1    2    0    0 -0.17667226309E+03 -0.41086039349E+03  0.14206469842E+02  0.45609678181E+03  0.88335152165E+02 0.  0.
        254    2    1    2    0    0  0.17667226309E+03  0.41086039349E+03  0.11503618713E+04  0.15244456430E+04  0.89475288873E+03 0.  0.
        -24    2    4    4    0    0  0.46564271873E+03  0.46204299751E+03  0.96093500929E+03  0.11661398805E+04  0.78608242620E+02 0.  0.
         24    2    4    4    0    0 -0.28897045564E+03 -0.51182604022E+02  0.18942686205E+03  0.35830576246E+03  0.79855495497E+02 0.  0.
         11    1    3    3    0    0 -0.11008001403E+03 -0.25692804133E+03  0.51650235156E+02  0.28424879015E+03  0.00000000000E+00 0. -1.
        -11    1    3    3    0    0 -0.66592249064E+02 -0.15393235216E+03 -0.37443765314E+02  0.17184799166E+03  0.00000000000E+00 0.  1.
          4    1    6    6  502    0 -0.49727305968E+02  0.11141327233E+02  0.61729289167E+02  0.80046481949E+02  0.00000000000E+00 0. -1.
          3    1    5    5  503    0  0.34012183838E+02  0.57491081234E+02  0.70667913645E+02  0.97242002704E+02  0.00000000000E+00 0. -1.
         -4    1    5    5    0  503  0.43163053489E+03  0.40455191627E+03  0.89026709565E+03  0.10688978778E+04  0.00000000000E+00 0.  1.
         -3    1    6    6    0  502 -0.23924314967E+03 -0.62323931255E+02  0.12769757288E+03  0.27825928051E+03  0.00000000000E+00 0.  1.
<mgrwt>
<rscale>  0 0.16019766E+04</rscale>
<asrwt>0</asrwt>
<pdfrwt beam="1">  1        1 0.24193160E+00 0.16019766E+04</pdfrwt>
<pdfrwt beam="2">  1       -1 0.62767238E-01 0.16019766E+04</pdfrwt>
<totfact> 0.14394289E+01</totfact>
</mgrwt>
</event>
<event>
12    1  0.1410316E-007  0.1627901E+04  0.7818608E-02  0.8803588E-01
         -1   -1    0    0    0  501 -0.00000000000E+00  0.00000000000E+00  0.29828788917E+03  0.29828788917E+03  0.00000000000E+00 0.  1.
          1   -1    0    0  501    0  0.00000000000E+00 -0.00000000000E+00 -0.22210609994E+04  0.22210609994E+04  0.00000000000E+00 0. -1.
         23    2    1    2    0    0 -0.50834663808E+03 -0.23487021489E+03 -0.78852807172E+03  0.97146669536E+03  0.91600753284E+02 0.  0.
        254    2    1    2    0    0  0.50834663808E+03  0.23487021489E+03 -0.11342450385E+04  0.15478821932E+04  0.89210265911E+03 0.  0.
        -24    2    4    4    0    0 -0.72557645588E+02 -0.18104469476E+03 -0.83106067253E+01  0.21182087823E+03  0.82202340805E+02 0.  0.
         24    2    4    4    0    0  0.58090428367E+03  0.41591490966E+03 -0.11259344318E+04  0.13360613150E+04  0.83045131485E+02 0.  0.
         13    1    3    3    0    0 -0.11570713606E+03 -0.61065636176E+02 -0.25506711886E+03  0.28666424329E+03  0.00000000000E+00 0.  1.
        -13    1    3    3    0    0 -0.39263950202E+03 -0.17380457872E+03 -0.53346095286E+03  0.68480245206E+03  0.00000000000E+00 0. -1.
          2    1    6    6  502    0  0.40319659515E+03  0.32574458154E+03 -0.77170593381E+03  0.92962738504E+03  0.00000000000E+00 0. -1.
          3    1    5    5  503    0 -0.55813875172E+02 -0.16932056967E+03 -0.31353580302E+02  0.18101848241E+03  0.00000000000E+00 0. -1.
         -4    1    5    5    0  503 -0.16743770416E+02 -0.11724125089E+02  0.23042973576E+02  0.30802395817E+02  0.00000000000E+00 0.  1.
         -1    1    6    6    0  502  0.17770768852E+03  0.90170328118E+02 -0.35422849799E+03  0.40643392996E+03  0.00000000000E+00 0.  1.
<mgrwt>
<rscale>  0 0.16279012E+04</rscale>
<asrwt>0</asrwt>
<pdfrwt beam="1">  1        1 0.34170169E+00 0.16279012E+04</pdfrwt>
<pdfrwt beam="2">  1       -1 0.45890444E-01 0.16279012E+04</pdfrwt>
<totfact> 0.95338275E+00</totfact>
</mgrwt>
</event>
<event>
12    1  0.1397649E-007  0.9976768E+03  0.7818608E-02  0.9311097E-01
         -2   -1    0    0    0  501 -0.00000000000E+00  0.00000000000E+00  0.14083205830E+03  0.14083205830E+03  0.00000000000E+00 0.  1.
          2   -1    0    0  501    0  0.00000000000E+00 -0.00000000000E+00 -0.17669254174E+04  0.17669254174E+04  0.00000000000E+00 0. -1.
         23    2    1    2    0    0 -0.96603609466E+01 -0.34057033243E+01 -0.25078053616E+03  0.26670347234E+03  0.90193921361E+02 0.  0.
        254    2    1    2    0    0  0.96603609466E+01  0.34057033243E+01 -0.13753128229E+04  0.16410540033E+04  0.89524742928E+03 0.  0.
        -24    2    4    4    0    0  0.83490862389E+02 -0.61389927307E+02  0.97254271593E+02  0.16308413830E+03  0.79991221679E+02 0.  0.
         24    2    4    4    0    0 -0.73830501442E+02  0.64795630632E+02 -0.14725670945E+04  0.14779698650E+04  0.79319968843E+02 0.  0.
         11    1    3    3    0    0 -0.27130479211E+02 -0.51731216082E+01 -0.17356928383E+02  0.32620347213E+02  0.00000000000E+00 0.  1.
        -11    1    3    3    0    0  0.17470118265E+02  0.17674182839E+01 -0.23342360778E+03  0.23408312513E+03  0.00000000000E+00 0. -1.
          4    1    6    6  502    0 -0.30304771232E+02  0.67971165791E+02 -0.65011765149E+03  0.65436336948E+03  0.00000000000E+00 0. -1.
          1    1    5    5  503    0  0.13611024193E+02  0.77768966442E+01 -0.91958579776E+01  0.18174264908E+02  0.00000000000E+00 0. -1.
         -2    1    5    5    0  503  0.69879838196E+02 -0.69166823952E+02  0.10645012957E+03  0.14490987340E+03  0.00000000000E+00 0.  1.
         -3    1    6    6    0  502 -0.43525730211E+02 -0.31755351593E+01 -0.82244944302E+03  0.82360649556E+03  0.00000000000E+00 0.  1.
<mgrwt>
<rscale>  0 0.99767679E+03</rscale>
<asrwt>0</asrwt>
<pdfrwt beam="1">  1        2 0.27183467E+00 0.99767679E+03</pdfrwt>
<pdfrwt beam="2">  1       -2 0.21666471E-01 0.99767679E+03</pdfrwt>
<totfact> 0.16693677E+02</totfact>
</mgrwt>
</event>
<event>
12    1  0.1397649E-007  0.1298111E+04  0.7818608E-02  0.9031064E-01
          2   -1    0    0  501    0  0.00000000000E+00  0.00000000000E+00  0.55617660048E+03  0.55617660048E+03  0.00000000000E+00 0. -1.
         -2   -1    0    0    0  501 -0.00000000000E+00 -0.00000000000E+00 -0.75744500731E+03  0.75744500731E+03  0.00000000000E+00 0.  1.
         23    2    1    2    0    0 -0.84573313287E+02  0.68150466024E+02 -0.37817281319E+03  0.40402072779E+03  0.91765682653E+02 0.  0.
        254    2    1    2    0    0  0.84573313287E+02 -0.68150466024E+02  0.17690440635E+03  0.90960087999E+03  0.88559666924E+03 0.  0.
        -24    2    4    4    0    0  0.29715709657E+03 -0.37462123953E+03  0.20607448250E+03  0.52701826128E+03  0.81474795143E+02 0.  0.
         24    2    4    4    0    0 -0.21258378328E+03  0.30647077351E+03 -0.29170076148E+02  0.38258261871E+03  0.80014791565E+02 0.  0.
         13    1    3    3    0    0 -0.48153019982E+02  0.84747999519E+02 -0.31004688199E+03  0.32500770112E+03  0.00000000000E+00 0.  1.
        -13    1    3    3    0    0 -0.36420293304E+02 -0.16597533496E+02 -0.68125931203E+02  0.79013026678E+02  0.00000000000E+00 0. -1.
          4    1    6    6  502    0 -0.18079909327E+03  0.24954811070E+03 -0.53930590817E+02  0.31284353966E+03  0.00000000000E+00 0. -1.
          3    1    5    5  503    0  0.26289834629E+03 -0.32131370029E+03  0.20643081665E+03  0.46365042493E+03  0.00000000000E+00 0. -1.
         -4    1    5    5    0  503  0.34258750279E+02 -0.53307539239E+02 -0.35633414781E+00  0.63367836356E+02  0.00000000000E+00 0.  1.
         -3    1    6    6    0  502 -0.31784690010E+02  0.56922662808E+02  0.24760514670E+02  0.69739079051E+02  0.00000000000E+00 0.  1.
<mgrwt>
<rscale>  0 0.12981112E+04</rscale>
<asrwt>0</asrwt>
<pdfrwt beam="1">  1        2 0.85565631E-01 0.12981112E+04</pdfrwt>
<pdfrwt beam="2">  1       -2 0.11653000E+00 0.12981112E+04</pdfrwt>
<totfact> 0.30397829E+01</totfact>
</mgrwt>
</event>
<event>
12    1  0.1397649E-007  0.1499374E+04  0.7818608E-02  0.8884869E-01
         -1   -1    0    0    0  501 -0.00000000000E+00  0.00000000000E+00  0.46217726086E+03  0.46217726086E+03  0.00000000000E+00 0.  1.
          1   -1    0    0  501    0  0.00000000000E+00 -0.00000000000E+00 -0.12160495805E+04  0.12160495805E+04  0.00000000000E+00 0. -1.
         23    2    1    2    0    0 -0.73762682671E+02 -0.26646235032E+03 -0.66950218976E+03  0.73009785044E+03  0.91468965354E+02 0.  0.
        254    2    1    2    0    0  0.73762682671E+02  0.26646235032E+03 -0.84370129853E+02  0.94812899089E+03  0.90298789973E+03 0.  0.
        -24    2    4    4    0    0  0.42306437001E+03  0.25515967889E+02 -0.23387486581E+03  0.49080237878E+03  0.80962932018E+02 0.  0.
         24    2    4    4    0    0 -0.34930168734E+03  0.24094638244E+03  0.14950473596E+03  0.45732661211E+03  0.82031311582E+02 0.  0.
         13    1    3    3    0    0 -0.66633634639E+02 -0.22924018654E+03 -0.47139238893E+03  0.52839557978E+03  0.00000000000E+00 0. -1.
        -13    1    3    3    0    0 -0.71290480319E+01 -0.37222163781E+02 -0.19810980083E+03  0.20170227065E+03  0.00000000000E+00 0.  1.
          4    1    6    6  502    0 -0.13056405361E+03  0.12190901305E+03  0.30094594062E+02  0.18114763081E+03  0.00000000000E+00 0. -1.
          3    1    5    5  503    0  0.26338886351E+03  0.47326536441E+02 -0.17232016088E+03  0.31828875619E+03  0.00000000000E+00 0. -1.
         -4    1    5    5    0  503  0.15967550651E+03 -0.21810568552E+02 -0.61554704938E+02  0.17251362259E+03  0.00000000000E+00 0.  1.
         -3    1    6    6    0  502 -0.21873763373E+03  0.11903736939E+03  0.11941014190E+03  0.27617898130E+03  0.00000000000E+00 0.  1.
<mgrwt>
<rscale>  0 0.14993738E+04</rscale>
<asrwt>0</asrwt>
<pdfrwt beam="1">  1        1 0.18708455E+00 0.14993738E+04</pdfrwt>
<pdfrwt beam="2">  1       -1 0.71104195E-01 0.14993738E+04</pdfrwt>
<totfact> 0.20101791E+01</totfact>
</mgrwt>
</event>
<event>
12    1  0.1397649E-007  0.1391500E+04  0.7818608E-02  0.8959994E-01
         -1   -1    0    0    0  501 -0.00000000000E+00  0.00000000000E+00  0.41237617642E+03  0.41237617642E+03  0.00000000000E+00 0.  1.
          1   -1    0    0  501    0  0.00000000000E+00 -0.00000000000E+00 -0.11738514005E+04  0.11738514005E+04  0.00000000000E+00 0. -1.
         23    2    1    2    0    0  0.30730784996E+03 -0.29196979556E+03 -0.73531732971E+02  0.43920613956E+03  0.88377831554E+02 0.  0.
        254    2    1    2    0    0 -0.30730784996E+03  0.29196979556E+03 -0.68794349110E+03  0.11470214374E+04  0.81406845820E+03 0.  0.
        -24    2    4    4    0    0 -0.21019034225E+03  0.34260246271E+03  0.36136736617E+02  0.41037549960E+03  0.74469856356E+02 0.  0.
         24    2    4    4    0    0 -0.97117507702E+02 -0.50632667149E+02 -0.72408022772E+03  0.73664593776E+03  0.79747000914E+02 0.  0.
         13    1    3    3    0    0  0.27848248813E+03 -0.28420849342E+03 -0.49673984434E+02  0.40099185610E+03  0.00000000000E+00 0.  1.
        -13    1    3    3    0    0  0.28825361826E+02 -0.77613021391E+01 -0.23857748537E+02  0.38214283462E+02  0.00000000000E+00 0. -1.
          4    1    6    6  502    0 -0.81577568391E+02 -0.41115204726E+02 -0.70243888042E+03  0.70835424785E+03  0.00000000000E+00 0. -1.
          1    1    5    5  503    0 -0.13984780124E+03  0.28035017704E+03  0.12647058290E+02  0.31354995991E+03  0.00000000000E+00 0. -1.
         -2    1    5    5    0  503 -0.70342541016E+02  0.62252285671E+02  0.23489678327E+02  0.96825539687E+02  0.00000000000E+00 0.  1.
         -3    1    6    6    0  502 -0.15539939310E+02 -0.95174624236E+01 -0.21641347300E+02  0.28291689905E+02  0.00000000000E+00 0.  1.
<mgrwt>
<rscale>  0 0.13915004E+04</rscale>
<asrwt>0</asrwt>
<pdfrwt beam="1">  1        1 0.18059252E+00 0.13915004E+04</pdfrwt>
<pdfrwt beam="2">  1       -1 0.63442491E-01 0.13915004E+04</pdfrwt>
<totfact> 0.27460500E+01</totfact>
</mgrwt>
</event>
<event>
12    1  0.1397649E-007  0.2508988E+04  0.7818608E-02  0.8399791E-01
          1   -1    0    0  501    0  0.00000000000E+00  0.00000000000E+00  0.35299477436E+04  0.35299477436E+04  0.00000000000E+00 0. -1.
         -1   -1    0    0    0  501 -0.00000000000E+00 -0.00000000000E+00 -0.44582950686E+03  0.44582950686E+03  0.00000000000E+00 0.  1.
         23    2    1    2    0    0 -0.13210058813E+03  0.61126134965E+03  0.27638494623E+04  0.28351912211E+04  0.91402445624E+02 0.  0.
        254    2    1    2    0    0  0.13210058813E+03 -0.61126134965E+03  0.32026877447E+03  0.11405860294E+04  0.89848394506E+03 0.  0.
        -24    2    4    4    0    0  0.31305002799E+03 -0.38756281528E+03  0.56236216338E+03  0.75602566359E+03  0.84370287376E+02 0.  0.
         24    2    4    4    0    0 -0.18094943986E+03 -0.22369853437E+03 -0.24209338891E+03  0.38456036579E+03  0.80583695107E+02 0.  0.
         13    1    3    3    0    0 -0.11913327350E+03  0.59020878584E+03  0.25603972995E+04  0.26302420952E+04  0.00000000000E+00 0. -1.
        -13    1    3    3    0    0 -0.12967314635E+02  0.21052563815E+02  0.20345216277E+03  0.20494912595E+03  0.00000000000E+00 0.  1.
          4    1    6    6  502    0 -0.45129700363E+02 -0.92949211924E+02 -0.12682391140E+03  0.16358652254E+03  0.00000000000E+00 0. -1.
          1    1    5    5  503    0  0.20244669093E+03 -0.28170588487E+03  0.43829862733E+03  0.55897097863E+03  0.00000000000E+00 0. -1.
         -2    1    5    5    0  503  0.11060333706E+03 -0.10585693041E+03  0.12406353605E+03  0.19705468495E+03  0.00000000000E+00 0.  1.
         -3    1    6    6    0  502 -0.13581973949E+03 -0.13074932245E+03 -0.11526947750E+03  0.22097384325E+03  0.00000000000E+00 0.  1.
<mgrwt>
<rscale>  0 0.25089877E+04</rscale>
<asrwt>0</asrwt>
<pdfrwt beam="1">  1        1 0.54306886E+00 0.25089877E+04</pdfrwt>
<pdfrwt beam="2">  1       -1 0.68589157E-01 0.25089877E+04</pdfrwt>
<totfact> 0.45231898E-01</totfact>
</mgrwt>
</event>
<event>
12    1  0.1397649E-007  0.2531392E+04  0.7818608E-02  0.8391887E-01
         -2   -1    0    0    0  501 -0.00000000000E+00  0.00000000000E+00  0.50008204003E+03  0.50008204003E+03  0.00000000000E+00 0.  1.
          2   -1    0    0  501    0  0.00000000000E+00 -0.00000000000E+00 -0.32034475297E+04  0.32034475297E+04  0.00000000000E+00 0. -1.
         23    2    1    2    0    0 -0.75739824384E+03  0.72924153715E+03 -0.69532796982E+03  0.12639053729E+04  0.92360634463E+02 0.  0.
        254    2    1    2    0    0  0.75739824384E+03 -0.72924153715E+03 -0.20080375199E+04  0.24396241969E+04  0.90227835023E+03 0.  0.
        -24    2    4    4    0    0  0.57748150479E+03 -0.92429168096E+03 -0.14504800663E+04  0.18162023344E+04  0.83057189703E+02 0.  0.
         24    2    4    4    0    0  0.17991673905E+03  0.19505014381E+03 -0.55755745362E+03  0.62342186250E+03  0.85848197267E+02 0.  0.
         11    1    3    3    0    0 -0.58053503679E+03  0.58626522233E+03 -0.58296617777E+03  0.10102363111E+04  0.00000000000E+00 0.  1.
        -11    1    3    3    0    0 -0.17686320704E+03  0.14297631482E+03 -0.11236179205E+03  0.25366906180E+03  0.00000000000E+00 0. -1.
          4    1    6    6  502    0  0.81772484433E+01  0.49222710233E+02 -0.66426183798E+02  0.83079362593E+02  0.00000000000E+00 0. -1.
          3    1    5    5  503    0  0.44603611770E+02 -0.12148600834E+03 -0.16657304624E+03  0.21093817136E+03  0.00000000000E+00 0. -1.
         -4    1    5    5    0  503  0.53287789302E+03 -0.80280567262E+03 -0.12839070200E+04  0.16052641630E+04  0.00000000000E+00 0.  1.
         -3    1    6    6    0  502  0.17173949061E+03  0.14582743358E+03 -0.49113126982E+03  0.54034249991E+03  0.00000000000E+00 0.  1.
<mgrwt>
<rscale>  0 0.25313922E+04</rscale>
<asrwt>0</asrwt>
<pdfrwt beam="1">  1        2 0.49283808E+00 0.25313922E+04</pdfrwt>
<pdfrwt beam="2">  1       -2 0.76935699E-01 0.25313922E+04</pdfrwt>
<totfact> 0.17321575E+00</totfact>
</mgrwt>
</event>
<event>
12    1  0.1397649E-007  0.2109310E+04  0.7818608E-02  0.8557153E-01
         -2   -1    0    0    0  501 -0.00000000000E+00  0.00000000000E+00  0.44984225254E+03  0.44984225254E+03  0.00000000000E+00 0.  1.
          2   -1    0    0  501    0  0.00000000000E+00 -0.00000000000E+00 -0.24726373936E+04  0.24726373936E+04  0.00000000000E+00 0. -1.
         23    2    1    2    0    0 -0.56262473767E+03  0.37386242533E+03 -0.15238478072E+04  0.16692722910E+04  0.89655637864E+02 0.  0.
        254    2    1    2    0    0  0.56262473767E+03 -0.37386242533E+03 -0.49894733386E+03  0.12532073552E+04  0.93019381023E+03 0.  0.
        -24    2    4    4    0    0  0.41257266268E+03 -0.11772125341E+03  0.20735657135E+03  0.48338708719E+03  0.81190103333E+02 0.  0.
         24    2    4    4    0    0  0.15005207499E+03 -0.25614117191E+03 -0.70630390521E+03  0.76982026798E+03  0.75060730879E+02 0.  0.
         11    1    3    3    0    0 -0.23708049289E+03  0.20526390985E+03 -0.75278505755E+03  0.81549112543E+03  0.00000000000E+00 0.  1.
        -11    1    3    3    0    0 -0.32554424478E+03  0.16859851548E+03 -0.77106274964E+03  0.85378116553E+03  0.00000000000E+00 0. -1.
          2    1    6    6  502    0  0.34548093174E+02 -0.22410005705E+02 -0.58673573790E+02  0.71682406202E+02  0.00000000000E+00 0. -1.
          1    1    5    5  503    0  0.17803146725E+03 -0.84838222487E+02  0.68068611963E+02  0.20862900867E+03  0.00000000000E+00 0. -1.
         -2    1    5    5    0  503  0.23454119543E+03 -0.32883030927E+02  0.13928795939E+03  0.27475807851E+03  0.00000000000E+00 0.  1.
         -1    1    6    6    0  502  0.11550398181E+03 -0.23373116621E+03 -0.64763033142E+03  0.69813786178E+03  0.00000000000E+00 0.  1.
<mgrwt>
<rscale>  0 0.21093096E+04</rscale>
<asrwt>0</asrwt>
<pdfrwt beam="1">  1        2 0.38040575E+00 0.21093096E+04</pdfrwt>
<pdfrwt beam="2">  1       -2 0.69206501E-01 0.21093096E+04</pdfrwt>
<totfact> 0.63377034E+00</totfact>
</mgrwt>
</event>
<event>
12    1  0.1397649E-007  0.1905936E+04  0.7818608E-02  0.8651907E-01
         -1   -1    0    0    0  501 -0.00000000000E+00  0.00000000000E+00  0.18454457025E+04  0.18454457025E+04  0.00000000000E+00 0.  1.
          1   -1    0    0  501    0  0.00000000000E+00 -0.00000000000E+00 -0.49210229153E+03  0.49210229153E+03  0.00000000000E+00 0. -1.
         23    2    1    2    0    0 -0.24406219138E+03  0.21710121786E+03 -0.27146268136E+03  0.43440836247E+03  0.91210448732E+02 0.  0.
        254    2    1    2    0    0  0.24406219138E+03 -0.21710121786E+03  0.16248060923E+04  0.19031396315E+04  0.93554600498E+03 0.  0.
        -24    2    4    4    0    0  0.44179042815E+03 -0.44113332544E+03  0.13480921215E+04  0.14880787371E+04  0.85138513966E+02 0.  0.
         24    2    4    4    0    0 -0.19772823677E+03  0.22403210757E+03  0.27671397083E+03  0.41506089445E+03  0.80112942812E+02 0.  0.
         11    1    3    3    0    0 -0.22002999849E+01  0.38233824249E+02 -0.32509041027E+02  0.50234493978E+02  0.00000000000E+00 0.  1.
        -11    1    3    3    0    0 -0.24186189139E+03  0.17886739361E+03 -0.23895364034E+03  0.38417386850E+03  0.00000000000E+00 0. -1.
          4    1    6    6  502    0 -0.54902938380E+02  0.75413792312E+02  0.40884495144E+02  0.10184848873E+03  0.00000000000E+00 0. -1.
          3    1    5    5  503    0  0.20427159673E+03 -0.21630211115E+03  0.74100644480E+03  0.79850112070E+03  0.00000000000E+00 0. -1.
         -4    1    5    5    0  503  0.23751883141E+03 -0.22483121429E+03  0.60708567665E+03  0.68957761636E+03  0.00000000000E+00 0.  1.
         -3    1    6    6    0  502 -0.14282529839E+03  0.14861831526E+03  0.23582947569E+03  0.31321240572E+03  0.00000000000E+00 0.  1.
<mgrwt>
<rscale>  0 0.19059361E+04</rscale>
<asrwt>0</asrwt>
<pdfrwt beam="1">  1        1 0.75708046E-01 0.19059361E+04</pdfrwt>
<pdfrwt beam="2">  1       -1 0.28391472E+00 0.19059361E+04</pdfrwt>
<totfact> 0.17798224E+00</totfact>
</mgrwt>
</event>
<event>
12    1  0.1397649E-007  0.1596833E+04  0.7818608E-02  0.8822496E-01
          2   -1    0    0  501    0  0.00000000000E+00  0.00000000000E+00  0.34076354100E+04  0.34076354100E+04  0.00000000000E+00 0. -1.
         -2   -1    0    0    0  501 -0.00000000000E+00 -0.00000000000E+00 -0.18707079566E+03  0.18707079566E+03  0.00000000000E+00 0.  1.
         23    2    1    2    0    0 -0.13064766676E+03 -0.12836189076E+03  0.23401314873E+04  0.23490426344E+04  0.90776279277E+02 0.  0.
        254    2    1    2    0    0  0.13064766676E+03  0.12836189076E+03  0.88043312707E+03  0.12456635712E+04  0.86195687454E+03 0.  0.
        -24    2    4    4    0    0  0.12141926935E+03  0.18414517343E+03  0.10354315633E+04  0.10617076634E+04  0.80327805153E+02 0.  0.
         24    2    4    4    0    0  0.92283974082E+01 -0.55783282677E+02 -0.15499843626E+03  0.18395590782E+03  0.81353075137E+02 0.  0.
         13    1    3    3    0    0 -0.73093848511E+02 -0.11719014789E+03  0.13143249271E+04  0.13215620513E+04  0.00000000000E+00 0. -1.
        -13    1    3    3    0    0 -0.57553818249E+02 -0.11171742868E+02  0.10258065602E+04  0.10274805831E+04  0.00000000000E+00 0.  1.
          4    1    6    6  502    0 -0.22720383703E+02  0.10814805371E+02 -0.41807742658E+02  0.48796139161E+02  0.00000000000E+00 0. -1.
          3    1    5    5  503    0  0.10313690579E+03  0.91659551410E+02  0.53735312374E+03  0.55478561111E+03  0.00000000000E+00 0. -1.
         -4    1    5    5    0  503  0.18282363560E+02  0.92485622024E+02  0.49807843959E+03  0.50692205228E+03  0.00000000000E+00 0.  1.
         -3    1    6    6    0  502  0.31948781111E+02 -0.66598088049E+02 -0.11319069360E+03  0.13515976866E+03  0.00000000000E+00 0.  1.
<mgrwt>
<rscale>  0 0.15968332E+04</rscale>
<asrwt>0</asrwt>
<pdfrwt beam="1">  1        2 0.52425156E+00 0.15968332E+04</pdfrwt>
<pdfrwt beam="2">  1       -2 0.28780125E-01 0.15968332E+04</pdfrwt>
<totfact> 0.10117412E+01</totfact>
</mgrwt>
</event>
<event>
12    1  0.1397649E-007  0.1334796E+04  0.7818608E-02  0.9002418E-01
         -1   -1    0    0    0  501 -0.00000000000E+00  0.00000000000E+00  0.13947815200E+03  0.13947815200E+03  0.00000000000E+00 0.  1.
          1   -1    0    0  501    0  0.00000000000E+00 -0.00000000000E+00 -0.31934770632E+04  0.31934770632E+04  0.00000000000E+00 0. -1.
         23    2    1    2    0    0  0.13848478320E+03  0.24831286421E+03 -0.27347313281E+03  0.40459106599E+03  0.89827961125E+02 0.  0.
        254    2    1    2    0    0 -0.13848478320E+03 -0.24831286421E+03 -0.27805257784E+04  0.29283641492E+04  0.87358781606E+03 0.  0.
        -24    2    4    4    0    0  0.17329642804E+03 -0.25815018542E+03 -0.24350310189E+04  0.24561208402E+04  0.80500611032E+02 0.  0.
         24    2    4    4    0    0 -0.31178121124E+03  0.98373212100E+01 -0.34549475951E+03  0.47224330904E+03  0.79641807566E+02 0.  0.
         13    1    3    3    0    0  0.14955947822E+02  0.20824710125E+02 -0.72412214737E+02  0.76817171064E+02  0.00000000000E+00 0. -1.
        -13    1    3    3    0    0  0.12352883538E+03  0.22748815409E+03 -0.20106091807E+03  0.32777389493E+03  0.00000000000E+00 0.  1.
          4    1    6    6  502    0 -0.16178829929E+03  0.41129885206E+02 -0.15525072170E+03  0.22796909403E+03  0.00000000000E+00 0. -1.
          3    1    5    5  503    0  0.16437053585E+03 -0.26309725580E+03 -0.23820728969E+04  0.24021884034E+04  0.00000000000E+00 0. -1.
         -4    1    5    5    0  503  0.89258921894E+01  0.49470703744E+01 -0.52958122014E+02  0.53932436843E+02  0.00000000000E+00 0.  1.
         -3    1    6    6    0  502 -0.14999291196E+03 -0.31292563996E+02 -0.19024403781E+03  0.24427421501E+03  0.00000000000E+00 0.  1.
<mgrwt>
<rscale>  0 0.13347963E+04</rscale>
<asrwt>0</asrwt>
<pdfrwt beam="1">  1        1 0.49130411E+00 0.13347963E+04</pdfrwt>
<pdfrwt beam="2">  1       -1 0.21458180E-01 0.13347963E+04</pdfrwt>
<totfact> 0.77459065E+00</totfact>
</mgrwt>
</event>
<event>
12    1  0.1397649E-007  0.1573764E+04  0.7818608E-02  0.8836830E-01
          2   -1    0    0  501    0  0.00000000000E+00  0.00000000000E+00  0.14257130549E+04  0.14257130549E+04  0.00000000000E+00 0.  1.
         -2   -1    0    0    0  501 -0.00000000000E+00 -0.00000000000E+00 -0.43429726015E+03  0.43429726015E+03  0.00000000000E+00 0. -1.
         23    2    1    2    0    0  0.46383384092E+03  0.34384303572E+01  0.61722188501E+03  0.77783890346E+03  0.94429071916E+02 0.  0.
        254    2    1    2    0    0 -0.46383384092E+03 -0.34384303572E+01  0.37419390972E+03  0.10821714116E+04  0.90328302716E+03 0.  0.
        -24    2    4    4    0    0 -0.42127032449E+03 -0.23548779655E+03 -0.14174110646E+03  0.50970120299E+03  0.82350388317E+02 0.  0.
         24    2    4    4    0    0 -0.42563516430E+02  0.23204936619E+03  0.51593501617E+03  0.57247020857E+03  0.76646183930E+02 0.  0.
         13    1    3    3    0    0  0.70776911260E+02  0.30791561744E+02  0.75374659116E+02  0.10788341244E+03  0.00000000000E+00 0. -1.
        -13    1    3    3    0    0  0.39305692966E+03 -0.27353131387E+02  0.54184722589E+03  0.66995549103E+03  0.00000000000E+00 0.  1.
          4    1    6    6  502    0 -0.23644212913E+02  0.59751952506E+02  0.22320940885E+03  0.23227523508E+03  0.00000000000E+00 0. -1.
          1    1    5    5  503    0 -0.82421857085E+02 -0.85462998462E+02 -0.41954194087E+02  0.12592633177E+03  0.00000000000E+00 0. -1.
         -2    1    5    5    0  503 -0.33884846741E+03 -0.15002479808E+03 -0.99786912370E+02  0.38377487122E+03  0.00000000000E+00 0.  1.
         -3    1    6    6    0  502 -0.18919303517E+02  0.17229741368E+03  0.29272560732E+03  0.34019497349E+03  0.00000000000E+00 0.  1.
<mgrwt>
<rscale>  0 0.15737640E+04</rscale>
<asrwt>0</asrwt>
<pdfrwt beam="1">  1        2 0.21934047E+00 0.15737640E+04</pdfrwt>
<pdfrwt beam="2">  1       -2 0.66814964E-01 0.15737640E+04</pdfrwt>
<totfact> 0.27648653E+01</totfact>
</mgrwt>
</event>
<event>
12    1  0.1397649E-007  0.1510153E+04  0.7818608E-02  0.8877729E-01
          2   -1    0    0  501    0  0.00000000000E+00  0.00000000000E+00  0.13596853534E+04  0.13596853534E+04  0.00000000000E+00 0. -1.
         -2   -1    0    0    0  501 -0.00000000000E+00 -0.00000000000E+00 -0.41931791099E+03  0.41931791099E+03  0.00000000000E+00 0.  1.
         23    2    1    2    0    0 -0.74225905213E+02  0.26150328872E+03 -0.14692384582E+03  0.32172573012E+03  0.89595613381E+02 0.  0.
        254    2    1    2    0    0  0.74225905213E+02 -0.26150328872E+03  0.10872912883E+04  0.14572775343E+04  0.93143008939E+03 0.  0.
        -24    2    4    4    0    0 -0.59001169008E+02 -0.43883152270E+03  0.11311552484E+04  0.12174435270E+04  0.81254551600E+02 0.  0.
         24    2    4    4    0    0  0.13322707422E+03  0.17732823398E+03 -0.43863960139E+02  0.23983400731E+03  0.80009675615E+02 0.  0.
         11    1    3    3    0    0 -0.76907813299E+02  0.10982483234E+03 -0.77846540325E+02  0.15503673560E+03  0.00000000000E+00 0. -1.
        -11    1    3    3    0    0  0.26819080862E+01  0.15167845638E+03 -0.69077305500E+02  0.16668899453E+03  0.00000000000E+00 0.  1.
          2    1    6    6  502    0  0.34850063312E+02  0.26190610223E+02 -0.40445441909E+02  0.59466871011E+02  0.00000000000E+00 0. -1.
          1    1    5    5  503    0 -0.15589231214E+02 -0.12015075106E+03  0.41622170434E+03  0.43349709835E+03  0.00000000000E+00 0. -1.
         -2    1    5    5    0  503 -0.43411937794E+02 -0.31868077163E+03  0.71493354407E+03  0.78394642865E+03  0.00000000000E+00 0.  1.
         -1    1    6    6    0  502  0.98377010909E+02  0.15113762375E+03 -0.34185182306E+01  0.18036713630E+03  0.00000000000E+00 0.  1.
<mgrwt>
<rscale>  0 0.15101529E+04</rscale>
<asrwt>0</asrwt>
<pdfrwt beam="1">  1        2 0.20918236E+00 0.15101529E+04</pdfrwt>
<pdfrwt beam="2">  1       -2 0.64510448E-01 0.15101529E+04</pdfrwt>
<totfact> 0.32698367E+01</totfact>
</mgrwt>
</event>
<event>
12    1  0.1397649E-007  0.2707983E+04  0.7818608E-02  0.8332419E-01
         -2   -1    0    0    0  501 -0.00000000000E+00  0.00000000000E+00  0.96084008264E+03  0.96084008264E+03  0.00000000000E+00 0. -1.
          2   -1    0    0  501    0  0.00000000000E+00 -0.00000000000E+00 -0.19080111286E+04  0.19080111286E+04  0.00000000000E+00 0.  1.
         23    2    1    2    0    0  0.13346580180E+03 -0.92166947540E+03 -0.12274836754E+04  0.15435064192E+04  0.91695969059E+02 0.  0.
        254    2    1    2    0    0 -0.13346580180E+03  0.92166947540E+03  0.28031262943E+03  0.13253447920E+04  0.90037542464E+03 0.  0.
        -24    2    4    4    0    0 -0.14802219101E+03  0.32775942544E+03 -0.31163527609E+03  0.48262773493E+03  0.80474686888E+02 0.  0.
         24    2    4    4    0    0  0.14556389213E+02  0.59391004996E+03  0.59194790552E+03  0.84271705706E+03  0.82635824504E+02 0.  0.
         13    1    3    3    0    0 -0.48541027761E+01 -0.81541760106E+02 -0.77252015049E+02  0.11242995501E+03  0.00000000000E+00 0. -1.
        -13    1    3    3    0    0  0.13831990457E+03 -0.84012771530E+03 -0.11502316603E+04  0.14310764642E+04  0.00000000000E+00 0.  1.
          4    1    6    6  502    0  0.41953363332E+02  0.40377645701E+03  0.43133002581E+03  0.59231841361E+03  0.00000000000E+00 0. -1.
          1    1    5    5  503    0 -0.91726090488E+02  0.18391095630E+03 -0.12574912545E+03  0.24093517401E+03  0.00000000000E+00 0. -1.
         -4    1    5    5    0  503 -0.56296100524E+02  0.14384846914E+03 -0.18588615064E+03  0.24169256092E+03  0.00000000000E+00 0.  1.
         -1    1    6    6    0  502 -0.27396974119E+02  0.19013359295E+03  0.16061787971E+03  0.25039864345E+03  0.00000000000E+00 0.  1.
<mgrwt>
<rscale>  0 0.27079834E+04</rscale>
<asrwt>0</asrwt>
<pdfrwt beam="1">  1        2 0.29354017E+00 0.27079834E+04</pdfrwt>
<pdfrwt beam="2">  1       -2 0.14782155E+00 0.27079834E+04</pdfrwt>
<totfact> 0.20525420E+00</totfact>
</mgrwt>
</event>
<event>
12    1  0.1397649E-007  0.2258797E+04  0.7818608E-02  0.8494347E-01
         -1   -1    0    0    0  501 -0.00000000000E+00  0.00000000000E+00  0.75144845231E+03  0.75144845231E+03  0.00000000000E+00 0.  1.
          1   -1    0    0  501    0  0.00000000000E+00 -0.00000000000E+00 -0.16974424472E+04  0.16974424472E+04  0.00000000000E+00 0. -1.
         23    2    1    2    0    0  0.65863215377E+03 -0.76788884271E+02  0.33107323645E+03  0.74660764275E+03  0.90114580419E+02 0.  0.
        254    2    1    2    0    0 -0.65863215377E+03  0.76788884271E+02 -0.12770672314E+04  0.17022832568E+04  0.90949146570E+03 0.  0.
        -24    2    4    4    0    0 -0.65763748691E+02  0.35401699317E+03 -0.15360700955E+03  0.39963146536E+03  0.80357281101E+02 0.  0.
         24    2    4    4    0    0 -0.59286840508E+03 -0.27722810890E+03 -0.11234602218E+04  0.13026517914E+04  0.79940287716E+02 0.  0.
         13    1    3    3    0    0  0.47372780560E+02 -0.25270985644E+02  0.43585278698E+02  0.69155473917E+02  0.00000000000E+00 0. -1.
        -13    1    3    3    0    0  0.61125937321E+03 -0.51517898626E+02  0.28748795775E+03  0.67745216884E+03  0.00000000000E+00 0.  1.
          2    1    6    6  502    0 -0.24296539039E+03 -0.10871021422E+03 -0.53548898100E+03  0.59799543508E+03  0.00000000000E+00 0. -1.
          3    1    5    5  503    0 -0.13109703470E+02  0.21380586511E+02  0.76730697847E+01  0.26227272152E+02  0.00000000000E+00 0. -1.
         -4    1    5    5    0  503 -0.52654045221E+02  0.33263640666E+03 -0.16128007933E+03  0.37340419321E+03  0.00000000000E+00 0.  1.
         -1    1    6    6    0  502 -0.34990301469E+03 -0.16851789468E+03 -0.58797124084E+03  0.70465635636E+03  0.00000000000E+00 0.  1.
<mgrwt>
<rscale>  0 0.22587966E+04</rscale>
<asrwt>0</asrwt>
<pdfrwt beam="1">  1        1 0.26114499E+00 0.22587966E+04</pdfrwt>
<pdfrwt beam="2">  1       -1 0.11560745E+00 0.22587966E+04</pdfrwt>
<totfact> 0.29416883E+00</totfact>
</mgrwt>
</event>
<event>
12    1  0.1397649E-007  0.1127016E+04  0.7818608E-02  0.9179253E-01
          1   -1    0    0  501    0  0.00000000000E+00  0.00000000000E+00  0.77936044616E+03  0.77936044616E+03  0.00000000000E+00 0. -1.
         -1   -1    0    0    0  501 -0.00000000000E+00 -0.00000000000E+00 -0.40743793840E+03  0.40743793840E+03  0.00000000000E+00 0.  1.
         23    2    1    2    0    0 -0.87874328437E+02  0.67799477300E+00 -0.11194420071E+03  0.16955722005E+03  0.92172607230E+02 0.  0.
        254    2    1    2    0    0  0.87874328437E+02 -0.67799477300E+00  0.48386670847E+03  0.10172411645E+04  0.89046630364E+03 0.  0.
        -24    2    4    4    0    0  0.41156153061E+02 -0.33825790026E+03 -0.74951153055E+02  0.35782669866E+03  0.79435728148E+02 0.  0.
         24    2    4    4    0    0  0.46718175376E+02  0.33757990549E+03  0.55881786152E+03  0.65941446585E+03  0.80045330344E+02 0.  0.
         13    1    3    3    0    0 -0.21712014685E+02  0.24116455221E+02  0.53272801867E+01  0.32884569456E+02  0.00000000000E+00 0. -1.
        -13    1    3    3    0    0 -0.66162313752E+02 -0.23438460448E+02 -0.11727148089E+03  0.13667265059E+03  0.00000000000E+00 0.  1.
          4    1    6    6  502    0  0.62278952289E+02  0.19693166177E+03  0.36577442302E+03  0.42006151435E+03  0.00000000000E+00 0. -1.
          3    1    5    5  503    0 -0.70287708436E+01 -0.18073757462E+02 -0.22687858161E+02  0.29846327015E+02  0.00000000000E+00 0. -1.
         -4    1    5    5    0  503  0.48184923905E+02 -0.32018414280E+03 -0.52263294894E+02  0.32798037164E+03  0.00000000000E+00 0.  1.
         -3    1    6    6    0  502 -0.15560776913E+02  0.14064824371E+03  0.19304343851E+03  0.23935295149E+03  0.00000000000E+00 0.  1.
<mgrwt>
<rscale>  0 0.11270156E+04</rscale>
<asrwt>0</asrwt>
<pdfrwt beam="1">  1        1 0.11990161E+00 0.11270156E+04</pdfrwt>
<pdfrwt beam="2">  1       -1 0.62682760E-01 0.11270156E+04</pdfrwt>
<totfact> 0.59206245E+01</totfact>
</mgrwt>
</event>
<event>
12    1  0.1397649E-007  0.1728542E+04  0.7818608E-02  0.8745251E-01
          3   -1    0    0  501    0  0.00000000000E+00  0.00000000000E+00  0.81710703911E+03  0.81710703911E+03  0.00000000000E+00 0. -1.
         -3   -1    0    0    0  501 -0.00000000000E+00 -0.00000000000E+00 -0.91415677357E+03  0.91415677357E+03  0.00000000000E+00 0.  1.
         23    2    1    2    0    0 -0.55353362905E+03  0.25111158822E+03  0.12541963922E+03  0.62829188675E+03  0.97796220911E+02 0.  0.
        254    2    1    2    0    0  0.55353362905E+03 -0.25111158822E+03 -0.22246937368E+03  0.11029719259E+04  0.89308338857E+03 0.  0.
        -24    2    4    4    0    0 -0.22060339373E+03  0.49736959306E+02 -0.10090798211E+03  0.25983099665E+03  0.78677210926E+02 0.  0.
         24    2    4    4    0    0  0.77413702278E+03 -0.30084854753E+03 -0.12156139157E+03  0.84314092928E+03  0.79444799165E+02 0.  0.
         13    1    3    3    0    0 -0.24479079799E+03  0.12112116224E+03  0.10524367663E+03  0.29269284616E+03  0.00000000000E+00 0. -1.
        -13    1    3    3    0    0 -0.30874283106E+03  0.12999042598E+03  0.20175962591E+02  0.33559904059E+03  0.00000000000E+00 0.  1.
          2    1    6    6  502    0  0.43867080223E+03 -0.17324337565E+03 -0.10864386861E+03  0.48399259304E+03  0.00000000000E+00 0. -1.
          3    1    5    5  503    0 -0.19848138516E+03  0.55582451761E+02 -0.62960129235E+02  0.21551855389E+03  0.00000000000E+00 0. -1.
         -4    1    5    5    0  503 -0.22122008574E+02 -0.58454924545E+01 -0.37947852875E+02  0.44312442759E+02  0.00000000000E+00 0.  1.
         -1    1    6    6    0  502  0.33546622056E+03 -0.12760517188E+03 -0.12917522967E+02  0.35914833624E+03  0.00000000000E+00 0.  1.
<mgrwt>
<rscale>  0 0.17285415E+04</rscale>
<asrwt>0</asrwt>
<pdfrwt beam="1">  1        3 0.12570877E+00 0.17285415E+04</pdfrwt>
<pdfrwt beam="2">  1       -3 0.14063950E+00 0.17285415E+04</pdfrwt>
<totfact> 0.47802405E-01</totfact>
</mgrwt>
</event>
<event>
12    1  0.1397649E-007  0.2385651E+04  0.7818608E-02  0.8444895E-01
         -2   -1    0    0    0  501 -0.00000000000E+00  0.00000000000E+00  0.53596441160E+03  0.53596441160E+03  0.00000000000E+00 0.  1.
          2   -1    0    0  501    0  0.00000000000E+00 -0.00000000000E+00 -0.26547146219E+04  0.26547146219E+04  0.00000000000E+00 0. -1.
         23    2    1    2    0    0  0.56912513037E+03  0.78631026461E+03 -0.48750381708E+03  0.10899471499E+04  0.90208490085E+02 0.  0.
        254    2    1    2    0    0 -0.56912513037E+03 -0.78631026461E+03 -0.16312463932E+04  0.21007318836E+04  0.89995689069E+03 0.  0.
        -24    2    4    4    0    0 -0.58721922748E+03 -0.20135100199E+03 -0.12478869771E+04  0.13960886429E+04  0.80454609127E+02 0.  0.
         24    2    4    4    0    0  0.18094097105E+02 -0.58495926263E+03 -0.38335941619E+03  0.70464324075E+03  0.83981661471E+02 0.  0.
         13    1    3    3    0    0  0.34275599064E+03  0.50282684721E+03 -0.34984722799E+03  0.70193275342E+03  0.00000000000E+00 0. -1.
        -13    1    3    3    0    0  0.22636913974E+03  0.28348341741E+03 -0.13765658909E+03  0.38801439650E+03  0.00000000000E+00 0.  1.
          4    1    6    6  502    0 -0.13294966894E+02 -0.28850363887E+02 -0.73295508531E+01  0.32600950244E+02  0.00000000000E+00 0. -1.
          1    1    5    5  503    0 -0.17093159847E+03 -0.95318888687E+02 -0.42128591514E+03  0.46452677446E+03  0.00000000000E+00 0. -1.
         -2    1    5    5    0  503 -0.41628762901E+03 -0.10603211330E+03 -0.82660106191E+03  0.93156186841E+03  0.00000000000E+00 0.  1.
         -3    1    6    6    0  502  0.31389063999E+02 -0.55610889874E+03 -0.37602986534E+03  0.67204229050E+03  0.00000000000E+00 0.  1.
<mgrwt>
<rscale>  0 0.23856509E+04</rscale>
<asrwt>0</asrwt>
<pdfrwt beam="1">  1        2 0.40841763E+00 0.23856509E+04</pdfrwt>
<pdfrwt beam="2">  1       -2 0.82456064E-01 0.23856509E+04</pdfrwt>
<totfact> 0.32838267E+00</totfact>
</mgrwt>
</event>
<event>
12    1  0.1430380E-007  0.1604366E+04  0.7818608E-02  0.8817870E-01
         -2   -1    0    0    0  501 -0.00000000000E+00  0.00000000000E+00  0.79045769173E+03  0.79045769173E+03  0.00000000000E+00 0.  1.
          2   -1    0    0  501    0  0.00000000000E+00 -0.00000000000E+00 -0.81408251489E+03  0.81408251489E+03  0.00000000000E+00 0. -1.
         23    2    1    2    0    0 -0.43105564692E+03 -0.22779410801E+03  0.23083788327E+03  0.54643414957E+03  0.87206794885E+02 0.  0.
        254    2    1    2    0    0  0.43105564692E+03  0.22779410801E+03 -0.25446270643E+03  0.10581060571E+04  0.90395687542E+03 0.  0.
        -24    2    4    4    0    0  0.26940272476E+03 -0.14765596090E+03 -0.48670541876E+03  0.58090616935E+03  0.78674659450E+02 0.  0.
         24    2    4    4    0    0  0.16165292216E+03  0.37545006892E+03  0.23224271233E+03  0.47719988771E+03  0.81784068775E+02 0.  0.
         11    1    3    3    0    0 -0.28851509227E+03 -0.14851820847E+03  0.19776334608E+03  0.38001178635E+03  0.00000000000E+00 0.  1.
        -11    1    3    3    0    0 -0.14254055465E+03 -0.79275899542E+02  0.33074537198E+02  0.16642236321E+03  0.00000000000E+00 0. -1.
          2    1    6    6  502    0  0.13336223961E+03  0.28937745503E+03  0.21654154349E+03  0.38524672417E+03  0.00000000000E+00 0. -1.
          1    1    5    5  503    0  0.16772402695E+03 -0.55483939972E+02 -0.31430491725E+03  0.36055151895E+03  0.00000000000E+00 0. -1.
         -2    1    5    5    0  503  0.10167869781E+03 -0.92172020932E+02 -0.17240050151E+03  0.22035465040E+03  0.00000000000E+00 0.  1.
         -1    1    6    6    0  502  0.28290682548E+02  0.86072613886E+02  0.15701168846E+02  0.91953163531E+02  0.00000000000E+00 0.  1.
<mgrwt>
<rscale>  0 0.16043663E+04</rscale>
<asrwt>0</asrwt>
<pdfrwt beam="1">  1        2 0.12524346E+00 0.16043663E+04</pdfrwt>
<pdfrwt beam="2">  1       -2 0.12160888E+00 0.16043663E+04</pdfrwt>
<totfact> 0.16568965E+01</totfact>
</mgrwt>
</event>
<event>
12    1  0.1397649E-007  0.1511141E+04  0.7818608E-02  0.8877078E-01
          1   -1    0    0  501    0  0.00000000000E+00  0.00000000000E+00  0.10430160138E+04  0.10430160138E+04  0.00000000000E+00 0. -1.
         -1   -1    0    0    0  501 -0.00000000000E+00 -0.00000000000E+00 -0.54734257153E+03  0.54734257153E+03  0.00000000000E+00 0.  1.
         23    2    1    2    0    0  0.17008556814E+03 -0.44963117354E+03  0.11241048968E+03  0.50053257234E+03  0.82458747723E+02 0.  0.
        254    2    1    2    0    0 -0.17008556814E+03  0.44963117354E+03  0.38326295254E+03  0.10898260129E+04  0.89985162944E+03 0.  0.
        -24    2    4    4    0    0 -0.23292547232E+03  0.38574219921E+03  0.65171012879E+03  0.79648956147E+03  0.81352379580E+02 0.  0.
         24    2    4    4    0    0  0.62839904183E+02  0.63888974327E+02 -0.26844717625E+03  0.29333645147E+03  0.77147473866E+02 0.  0.
         13    1    3    3    0    0  0.13315941856E+03 -0.36865582726E+03  0.12322443234E+03  0.41088053063E+03  0.00000000000E+00 0. -1.
        -13    1    3    3    0    0  0.36926149575E+02 -0.80975346280E+02 -0.10813942653E+02  0.89652041713E+02  0.00000000000E+00 0.  1.
          4    1    6    6  502    0  0.11613419513E+02 -0.15476406001E+01 -0.13910829150E+03  0.13960080039E+03  0.00000000000E+00 0. -1.
          3    1    5    5  503    0 -0.12952863785E+03  0.28438541303E+03  0.46420239472E+03  0.55958609206E+03  0.00000000000E+00 0. -1.
         -4    1    5    5    0  503 -0.10339683447E+03  0.10135678618E+03  0.18750773407E+03  0.23690346941E+03  0.00000000000E+00 0.  1.
         -3    1    6    6    0  502  0.51226484669E+02  0.65436614928E+02 -0.12933888475E+03  0.15373565108E+03  0.00000000000E+00 0.  1.
<mgrwt>
<rscale>  0 0.15111414E+04</rscale>
<asrwt>0</asrwt>
<pdfrwt beam="1">  1        1 0.16046400E+00 0.15111414E+04</pdfrwt>
<pdfrwt beam="2">  1       -1 0.84206549E-01 0.15111414E+04</pdfrwt>
<totfact> 0.18924682E+01</totfact>
</mgrwt>
</event>
<event>
12    1  0.1397649E-007  0.1546612E+04  0.7818608E-02  0.8854035E-01
         -1   -1    0    0    0  501 -0.00000000000E+00  0.00000000000E+00  0.51687566883E+03  0.51687566883E+03  0.00000000000E+00 0.  1.
          1   -1    0    0  501    0  0.00000000000E+00 -0.00000000000E+00 -0.11569554576E+04  0.11569554576E+04  0.00000000000E+00 0. -1.
         23    2    1    2    0    0  0.44482744794E+03  0.36574157885E+02  0.27271824808E+01  0.45546980664E+03  0.90753400861E+02 0.  0.
        254    2    1    2    0    0 -0.44482744794E+03 -0.36574157885E+02 -0.64280697126E+03  0.12183613198E+04  0.93380639098E+03 0.  0.
        -24    2    4    4    0    0 -0.39383328554E+03 -0.43928529553E+03 -0.24369829028E+03  0.64318214901E+03  0.78855516349E+02 0.  0.
         24    2    4    4    0    0 -0.50994162401E+02  0.40271113764E+03 -0.39910868098E+03  0.57517917080E+03  0.82259797639E+02 0.  0.
         13    1    3    3    0    0  0.36069331635E+03  0.36743835126E+02  0.37373221762E+02  0.36448118687E+03  0.00000000000E+00 0.  1.
        -13    1    3    3    0    0  0.84134131593E+02 -0.16967724077E+00 -0.34646039281E+02  0.90988619767E+02  0.00000000000E+00 0. -1.
          4    1    6    6  502    0 -0.53076176472E+02  0.18065329026E+03 -0.22227643452E+03  0.29130654839E+03  0.00000000000E+00 0. -1.
          1    1    5    5  503    0 -0.25495895203E+03 -0.33395558650E+03 -0.15720796110E+03  0.44860310299E+03  0.00000000000E+00 0. -1.
         -2    1    5    5    0  503 -0.13887433351E+03 -0.10532970902E+03 -0.86490329177E+02  0.19457904602E+03  0.00000000000E+00 0.  1.
         -3    1    6    6    0  502  0.20820140708E+01  0.22205784738E+03 -0.17683224646E+03  0.28387262241E+03  0.00000000000E+00 0.  1.
<mgrwt>
<rscale>  0 0.15466119E+04</rscale>
<asrwt>0</asrwt>
<pdfrwt beam="1">  1        1 0.17799315E+00 0.15466119E+04</pdfrwt>
<pdfrwt beam="2">  1       -1 0.79519334E-01 0.15466119E+04</pdfrwt>
<totfact> 0.17505663E+01</totfact>
</mgrwt>
</event>
<event>
12    1  0.1397649E-007  0.1409191E+04  0.7818608E-02  0.8947193E-01
          2   -1    0    0  501    0  0.00000000000E+00  0.00000000000E+00  0.12805758416E+04  0.12805758416E+04  0.00000000000E+00 0.  1.
         -2   -1    0    0    0  501 -0.00000000000E+00 -0.00000000000E+00 -0.38768076027E+03  0.38768076027E+03  0.00000000000E+00 0. -1.
         23    2    1    2    0    0 -0.19979677352E+03 -0.14575576259E+03  0.66195332224E+03  0.71213259237E+03  0.88244746309E+02 0.  0.
        254    2    1    2    0    0  0.19979677352E+03  0.14575576259E+03  0.23094175908E+03  0.95612400949E+03  0.89424578970E+03 0.  0.
        -24    2    4    4    0    0  0.17891820469E+03  0.50270997965E+03  0.37149398444E+02  0.54126998583E+03  0.82849696173E+02 0.  0.
         24    2    4    4    0    0  0.20878568837E+02 -0.35695421705E+03  0.19379236063E+03  0.41485402365E+03  0.81830032341E+02 0.  0.
         13    1    3    3    0    0 -0.10890740822E+03 -0.62392087360E+02  0.44725409471E+03  0.46453183030E+03  0.00000000000E+00 0. -1.
        -13    1    3    3    0    0 -0.90889365307E+02 -0.83363675234E+02  0.21469922754E+03  0.24760076207E+03  0.00000000000E+00 0.  1.
          2    1    6    6  502    0  0.29413554688E+02 -0.66472068002E+02  0.62915226080E+02  0.96135418533E+02  0.00000000000E+00 0. -1.
          3    1    5    5  503    0  0.45427404747E+02  0.51097959880E+02 -0.43982404825E+01  0.68512736957E+02  0.00000000000E+00 0. -1.
         -4    1    5    5    0  503  0.13349079994E+03  0.45161201977E+03  0.41547638927E+02  0.47275724888E+03  0.00000000000E+00 0.  1.
         -1    1    6    6    0  502 -0.85349858510E+01 -0.29048214905E+03  0.13087713455E+03  0.31871860512E+03  0.00000000000E+00 0.  1.
<mgrwt>
<rscale>  0 0.14091907E+04</rscale>
<asrwt>0</asrwt>
<pdfrwt beam="1">  1        2 0.19701167E+00 0.14091907E+04</pdfrwt>
<pdfrwt beam="2">  1       -2 0.59643195E-01 0.14091907E+04</pdfrwt>
<totfact> 0.43289596E+01</totfact>
</mgrwt>
</event>
<event>
12    1  0.1397649E-007  0.2241926E+04  0.7818608E-02  0.8501177E-01
          1   -1    0    0  501    0  0.00000000000E+00  0.00000000000E+00  0.16542713666E+04  0.16542713666E+04  0.00000000000E+00 0.  1.
         -1   -1    0    0    0  501 -0.00000000000E+00 -0.00000000000E+00 -0.75958419272E+03  0.75958419272E+03  0.00000000000E+00 0. -1.
         23    2    1    2    0    0 -0.26436468577E+03  0.30161987096E+03 -0.52690691680E+03  0.67165799579E+03  0.11238474402E+03 0.  0.
        254    2    1    2    0    0  0.26436468577E+03 -0.30161987096E+03  0.14215940907E+04  0.17421975636E+04  0.92382864111E+03 0.  0.
        -24    2    4    4    0    0  0.70715796198E+02 -0.35204167616E+03  0.14753104082E+04  0.15204274904E+04  0.78897955999E+02 0.  0.
         24    2    4    4    0    0  0.19364888957E+03  0.50421805200E+02 -0.53716317510E+02  0.22177007314E+03  0.79083953518E+02 0.  0.
         11    1    3    3    0    0 -0.73763595645E+02  0.62513071830E+02 -0.21048591595E+03  0.23163176165E+03  0.00000000000E+00 0.  1.
        -11    1    3    3    0    0 -0.19060109012E+03  0.23910679913E+03 -0.31642100086E+03  0.44002623414E+03  0.00000000000E+00 0. -1.
          2    1    6    6  502    0  0.24410808489E+02 -0.19697278484E+02 -0.13875726793E+02  0.34298777599E+02  0.00000000000E+00 0. -1.
          1    1    5    5  503    0  0.34489161450E+02 -0.69811779469E+02  0.22320969842E+03  0.23640168417E+03  0.00000000000E+00 0. -1.
         -2    1    5    5    0  503  0.36226634748E+02 -0.28222989669E+03  0.12521007098E+04  0.12840258063E+04  0.00000000000E+00 0.  1.
         -1    1    6    6    0  502  0.16923808108E+03  0.70119083684E+02 -0.39840590718E+02  0.18747129555E+03  0.00000000000E+00 0.  1.
<mgrwt>
<rscale>  0 0.22419263E+04</rscale>
<asrwt>0</asrwt>
<pdfrwt beam="1">  1        1 0.25450329E+00 0.22419263E+04</pdfrwt>
<pdfrwt beam="2">  1       -1 0.11685911E+00 0.22419263E+04</pdfrwt>
<totfact> 0.30723736E+00</totfact>
</mgrwt>
</event>
<event>
12    1  0.1397649E-007  0.1657733E+04  0.7818608E-02  0.8785845E-01
          2   -1    0    0  501    0  0.00000000000E+00  0.00000000000E+00  0.19166075299E+04  0.19166075299E+04  0.00000000000E+00 0. -1.
         -2   -1    0    0    0  501 -0.00000000000E+00 -0.00000000000E+00 -0.35845622083E+03  0.35845622083E+03  0.00000000000E+00 0.  1.
         23    2    1    2    0    0  0.28827368246E+03 -0.25764681303E+03  0.11489526608E+04  0.12157247511E+04  0.91710727898E+02 0.  0.
        254    2    1    2    0    0 -0.28827368246E+03  0.25764681303E+03  0.40919864835E+03  0.10593389996E+04  0.89736948136E+03 0.  0.
        -24    2    4    4    0    0 -0.19037896099E+03 -0.17191570458E+03 -0.17666750015E+03  0.32186060897E+03  0.81139926846E+02 0.  0.
         24    2    4    4    0    0 -0.97894721474E+02  0.42956251761E+03  0.58586614850E+03  0.73747839067E+03  0.80795418914E+02 0.  0.
         13    1    3    3    0    0  0.24887923912E+03 -0.17705482825E+03  0.83071612458E+03  0.88508675705E+03  0.00000000000E+00 0. -1.
        -13    1    3    3    0    0  0.39394443339E+02 -0.80591984777E+02  0.31823653618E+03  0.33063799409E+03  0.00000000000E+00 0.  1.
          2    1    6    6  502    0 -0.96279288134E+02  0.36190372203E+03  0.53392708884E+03  0.65216726500E+03  0.00000000000E+00 0. -1.
          1    1    5    5  503    0 -0.12284889417E+03 -0.13043777008E+03 -0.16139406526E+03  0.24115121182E+03  0.00000000000E+00 0. -1.
         -4    1    5    5    0  503 -0.67530066814E+02 -0.41477934500E+02 -0.15273434892E+02  0.80709397146E+02  0.00000000000E+00 0.  1.
         -1    1    6    6    0  502 -0.16154333399E+01  0.67658795581E+02  0.51939059661E+02  0.85311125669E+02  0.00000000000E+00 0.  1.
<mgrwt>
<rscale>  0 0.16577333E+04</rscale>
<asrwt>0</asrwt>
<pdfrwt beam="1">  1        2 0.29486269E+00 0.16577333E+04</pdfrwt>
<pdfrwt beam="2">  1       -2 0.55147112E-01 0.16577333E+04</pdfrwt>
<totfact> 0.21942810E+01</totfact>
</mgrwt>
</event>
<event>
12    1  0.1397649E-007  0.1089965E+04  0.7818608E-02  0.9215028E-01
          4   -1    0    0  501    0  0.00000000000E+00  0.00000000000E+00  0.15304610265E+04  0.15304610265E+04  0.00000000000E+00 0. -1.
         -4   -1    0    0    0  501 -0.00000000000E+00 -0.00000000000E+00 -0.19406302196E+03  0.19406302196E+03  0.00000000000E+00 0.  1.
         23    2    1    2    0    0  0.42413576627E+02 -0.12253388544E+03  0.83783579101E+02  0.17956655668E+03  0.91711480144E+02 0.  0.
        254    2    1    2    0    0 -0.42413576627E+02  0.12253388544E+03  0.12526144255E+04  0.15449574918E+04  0.89500686478E+03 0.  0.
        -24    2    4    4    0    0  0.27770102352E+03 -0.16463716692E+03  0.96851212803E+03  0.10240558862E+04  0.80320985930E+02 0.  0.
         24    2    4    4    0    0 -0.32011460015E+03  0.28717105236E+03  0.28410229745E+03  0.52090160558E+03  0.75390959254E+02 0.  0.
         13    1    3    3    0    0  0.59294744248E+02 -0.81029265696E+02  0.21239408444E+02  0.10262904592E+03  0.00000000000E+00 0.  1.
        -13    1    3    3    0    0 -0.16881167621E+02 -0.41504619740E+02  0.62544170657E+02  0.76937510768E+02  0.00000000000E+00 0. -1.
          4    1    6    6  502    0 -0.14722486499E+03  0.12320557529E+03  0.17122702146E+03  0.25724204075E+03  0.00000000000E+00 0. -1.
          1    1    5    5  503    0  0.63482862069E+02 -0.34806200779E+02  0.12850698706E+03  0.14749776646E+03  0.00000000000E+00 0. -1.
         -2    1    5    5    0  503  0.21421816145E+03 -0.12983096614E+03  0.84000514097E+03  0.87655811976E+03  0.00000000000E+00 0.  1.
         -3    1    6    6    0  502 -0.17288973516E+03  0.16396547707E+03  0.11287527599E+03  0.26365956483E+03  0.00000000000E+00 0.  1.
<mgrwt>
<rscale>  0 0.10899649E+04</rscale>
<asrwt>0</asrwt>
<pdfrwt beam="1">  1        4 0.23545554E+00 0.10899649E+04</pdfrwt>
<pdfrwt beam="2">  1       -4 0.29855850E-01 0.10899649E+04</pdfrwt>
<totfact> 0.16846829E+00</totfact>
</mgrwt>
</event>
<event>
12    1  0.1521371E-007  0.1622843E+04  0.7818608E-02  0.8806636E-01
         -1   -1    0    0    0  501 -0.00000000000E+00  0.00000000000E+00  0.78423839836E+03  0.78423839836E+03  0.00000000000E+00 0.  1.
          1   -1    0    0  501    0  0.00000000000E+00 -0.00000000000E+00 -0.83954664417E+03  0.83954664417E+03  0.00000000000E+00 0. -1.
         23    2    1    2    0    0  0.30523552617E+03 -0.25008589914E+03 -0.41841161168E+03  0.58232123235E+03  0.91203385256E+02 0.  0.
        254    2    1    2    0    0 -0.30523552617E+03  0.25008589914E+03  0.36310336586E+03  0.10414638102E+04  0.89279960250E+03 0.  0.
        -24    2    4    4    0    0  0.14359829152E+03  0.41795590807E+03  0.32288057026E+03  0.55308867958E+03  0.79671917265E+02 0.  0.
         24    2    4    4    0    0 -0.44883381769E+03 -0.16787000893E+03  0.40222795596E+02  0.48837513060E+03  0.85207154063E+02 0.  0.
         13    1    3    3    0    0  0.25839310936E+03 -0.24530091409E+03 -0.38515343586E+03  0.52467390499E+03  0.00000000000E+00 0. -1.
        -13    1    3    3    0    0  0.46842416804E+02 -0.47849850504E+01 -0.33258175815E+02  0.57647327367E+02  0.00000000000E+00 0.  1.
          4    1    6    6  502    0 -0.56309725397E+02 -0.48262937019E+02  0.23094299266E+02  0.77675240087E+02  0.00000000000E+00 0. -1.
          3    1    5    5  503    0  0.17809300781E+02  0.89678423809E+02  0.32225964942E+02  0.96942785743E+02  0.00000000000E+00 0. -1.
         -4    1    5    5    0  503  0.12578899074E+03  0.32827748426E+03  0.29065460532E+03  0.45614589383E+03  0.00000000000E+00 0.  1.
         -3    1    6    6    0  502 -0.39252409229E+03 -0.11960707191E+03  0.17128496330E+02  0.41069989051E+03  0.00000000000E+00 0.  1.
<mgrwt>
<rscale>  0 0.16228428E+04</rscale>
<asrwt>0</asrwt>
<pdfrwt beam="1">  1        1 0.12916102E+00 0.16228428E+04</pdfrwt>
<pdfrwt beam="2">  1       -1 0.12065206E+00 0.16228428E+04</pdfrwt>
<totfact> 0.11962295E+01</totfact>
</mgrwt>
</event>
<event>
12    1  0.1397649E-007  0.1421186E+04  0.7818608E-02  0.8938624E-01
          1   -1    0    0  501    0  0.00000000000E+00  0.00000000000E+00  0.98504012944E+03  0.98504012944E+03  0.00000000000E+00 0. -1.
         -1   -1    0    0    0  501 -0.00000000000E+00 -0.00000000000E+00 -0.51261104153E+03  0.51261104153E+03  0.00000000000E+00 0.  1.
         23    2    1    2    0    0  0.20427365395E+03 -0.43703649533E+02  0.35329193713E+03  0.42011645027E+03  0.89693390300E+02 0.  0.
        254    2    1    2    0    0 -0.20427365395E+03  0.43703649533E+02  0.11913715078E+03  0.10775347207E+04  0.10503569293E+04 0.  0.
        -24    2    4    4    0    0 -0.38063220710E+03  0.45792318889E+03 -0.14635169465E+02  0.60084871133E+03  0.78933273817E+02 0.  0.
         24    2    4    4    0    0  0.17635855315E+03 -0.41421953935E+03  0.13377232025E+03  0.47668600937E+03  0.81574210490E+02 0.  0.
         11    1    3    3    0    0  0.19897319068E+03 -0.17695360898E+02  0.32360191893E+03  0.38029154387E+03  0.00000000000E+00 0. -1.
        -11    1    3    3    0    0  0.53004632695E+01 -0.26008288635E+02  0.29690018206E+02  0.39824906399E+02  0.00000000000E+00 0.  1.
          4    1    6    6  502    0  0.87274555703E+01  0.18666032219E+01  0.19721977729E+01  0.91401450960E+01  0.00000000000E+00 0. -1.
          3    1    5    5  503    0 -0.41276436794E+00  0.20714457970E+02 -0.51943029938E+01  0.21359773571E+02  0.00000000000E+00 0. -1.
         -4    1    5    5    0  503 -0.38021944273E+03  0.43720873092E+03 -0.94408664716E+01  0.57948893775E+03  0.00000000000E+00 0.  1.
         -3    1    6    6    0  502  0.16763109758E+03 -0.41608614258E+03  0.13180012248E+03  0.46754586428E+03  0.00000000000E+00 0.  1.
<mgrwt>
<rscale>  0 0.14211860E+04</rscale>
<asrwt>0</asrwt>
<pdfrwt beam="1">  1        1 0.15154464E+00 0.14211860E+04</pdfrwt>
<pdfrwt beam="2">  1       -1 0.78863237E-01 0.14211860E+04</pdfrwt>
<totfact> 0.24342228E+01</totfact>
</mgrwt>
</event>
<event>
12    1  0.1397649E-007  0.1387194E+04  0.7818608E-02  0.8963141E-01
          1   -1    0    0  501    0  0.00000000000E+00  0.00000000000E+00  0.15800619919E+04  0.15800619919E+04  0.00000000000E+00 0. -1.
         -1   -1    0    0    0  501 -0.00000000000E+00 -0.00000000000E+00 -0.30446682772E+03  0.30446682772E+03  0.00000000000E+00 0.  1.
         23    2    1    2    0    0 -0.18660647693E+03  0.32395587949E+03  0.59431477958E+03  0.70823630129E+03  0.92839712165E+02 0.  0.
        254    2    1    2    0    0  0.18660647693E+03 -0.32395587949E+03  0.68128038461E+03  0.11762925183E+04  0.88303552429E+03 0.  0.
        -24    2    4    4    0    0  0.13299805810E+03 -0.43924898790E+02  0.82998466766E+03  0.84536267055E+03  0.78393979449E+02 0.  0.
         24    2    4    4    0    0  0.53608418828E+02 -0.28003098070E+03 -0.14870428305E+03  0.33092984779E+03  0.78168968544E+02 0.  0.
         11    1    3    3    0    0 -0.18276029137E+03  0.29213590052E+03  0.57630845344E+03  0.67147311337E+03  0.00000000000E+00 0. -1.
        -11    1    3    3    0    0 -0.38461855661E+01  0.31819978972E+02  0.18006326134E+02  0.36763187920E+02  0.00000000000E+00 0.  1.
          4    1    6    6  502    0 -0.20730569637E+01 -0.30609818504E+01 -0.20252272939E+02  0.20586931152E+02  0.00000000000E+00 0. -1.
          3    1    5    5  503    0  0.32644764802E+02 -0.50046551678E+02  0.33097893188E+03  0.33632929006E+03  0.00000000000E+00 0. -1.
         -2    1    5    5    0  503  0.10035329330E+03  0.61216528880E+01  0.49900573578E+03  0.50903338049E+03  0.00000000000E+00 0.  1.
         -3    1    6    6    0  502  0.55681475792E+02 -0.27696999885E+03 -0.12845201011E+03  0.31034291664E+03  0.00000000000E+00 0.  1.
<mgrwt>
<rscale>  0 0.13871935E+04</rscale>
<asrwt>0</asrwt>
<pdfrwt beam="1">  1        1 0.24308646E+00 0.13871935E+04</pdfrwt>
<pdfrwt beam="2">  1       -1 0.46841051E-01 0.13871935E+04</pdfrwt>
<totfact> 0.25532539E+01</totfact>
</mgrwt>
</event>
<event>
12    1  0.1397649E-007  0.1401244E+04  0.7818608E-02  0.8952919E-01
          2   -1    0    0  501    0  0.00000000000E+00  0.00000000000E+00  0.11920616269E+04  0.11920616269E+04  0.00000000000E+00 0. -1.
         -2   -1    0    0    0  501 -0.00000000000E+00 -0.00000000000E+00 -0.41178339412E+03  0.41178339412E+03  0.00000000000E+00 0.  1.
         23    2    1    2    0    0  0.30151921156E+03 -0.18188942714E+02 -0.91523251904E+02  0.32792226817E+03  0.88948500533E+02 0.  0.
        254    2    1    2    0    0 -0.30151921156E+03  0.18188942714E+02  0.87180148468E+03  0.12759227528E+04  0.88130378983E+03 0.  0.
        -24    2    4    4    0    0 -0.41088553324E+03  0.57377127500E+02  0.99988312011E+03  0.10855492608E+04  0.80820093304E+02 0.  0.
         24    2    4    4    0    0  0.10936632168E+03 -0.39188184787E+02 -0.12808163542E+03  0.19037349209E+03  0.79626974156E+02 0.  0.
         13    1    3    3    0    0  0.18754019138E+03 -0.28173468326E+02 -0.14919737019E+02  0.19023056077E+03  0.00000000000E+00 0.  1.
        -13    1    3    3    0    0  0.11397902018E+03  0.99845256120E+01 -0.76603514885E+02  0.13769170740E+03  0.00000000000E+00 0. -1.
          4    1    6    6  502    0  0.23880210168E+02 -0.39112107486E+02 -0.14198311514E+02  0.47975133554E+02  0.00000000000E+00 0. -1.
          1    1    5    5  503    0 -0.90248830373E+02  0.34222496059E+02  0.16861946073E+03  0.19428986890E+03  0.00000000000E+00 0. -1.
         -2    1    5    5    0  503 -0.32063670286E+03  0.23154631441E+02  0.83126365938E+03  0.89125939186E+03  0.00000000000E+00 0.  1.
         -3    1    6    6    0  502  0.85486111510E+02 -0.76077300701E-01 -0.11388332391E+03  0.14239835854E+03  0.00000000000E+00 0.  1.
<mgrwt>
<rscale>  0 0.14012440E+04</rscale>
<asrwt>0</asrwt>
<pdfrwt beam="1">  1        2 0.18339410E+00 0.14012440E+04</pdfrwt>
<pdfrwt beam="2">  1       -2 0.63351292E-01 0.14012440E+04</pdfrwt>
<totfact> 0.42995116E+01</totfact>
</mgrwt>
</event>
<event>
12    1  0.1397649E-007  0.1200629E+04  0.7818608E-02  0.9112307E-01
         -2   -1    0    0    0  501 -0.00000000000E+00  0.00000000000E+00  0.32844723720E+03  0.32844723720E+03  0.00000000000E+00 0. -1.
          2   -1    0    0  501    0  0.00000000000E+00 -0.00000000000E+00 -0.10972150176E+04  0.10972150176E+04  0.00000000000E+00 0.  1.
         23    2    1    2    0    0  0.20034645778E+03  0.20464077499E+02  0.78334366466E+01  0.22085212488E+03  0.90315096861E+02 0.  0.
        254    2    1    2    0    0 -0.20034645778E+03 -0.20464077499E+02 -0.77660121702E+03  0.12048101299E+04  0.89883286390E+03 0.  0.
        -24    2    4    4    0    0 -0.17318486605E+03 -0.23620214729E+03 -0.89469724918E+03  0.94483195937E+03  0.80248436483E+02 0.  0.
         24    2    4    4    0    0 -0.27161591732E+02  0.21573806979E+03  0.11809603216E+03  0.25997817052E+03  0.79757817882E+02 0.  0.
         11    1    3    3    0    0  0.16923500860E+02  0.32513381139E+02  0.51507241475E+01  0.37014251224E+02  0.00000000000E+00 0.  1.
        -11    1    3    3    0    0  0.18342295692E+03 -0.12049303640E+02  0.26827124991E+01  0.18383787365E+03  0.00000000000E+00 0. -1.
          4    1    6    6  502    0  0.25584941126E+02  0.91041731703E+02  0.33488070470E+02  0.10032266438E+03  0.00000000000E+00 0. -1.
          1    1    5    5  503    0  0.55631267059E+01  0.16431981465E+01 -0.24502268103E+02  0.25179547674E+02  0.00000000000E+00 0. -1.
         -2    1    5    5    0  503 -0.17874799275E+03 -0.23784534544E+03 -0.87019498107E+03  0.91965241170E+03  0.00000000000E+00 0.  1.
         -3    1    6    6    0  502 -0.52746532858E+02  0.12469633809E+03  0.84607961690E+02  0.15965550615E+03  0.00000000000E+00 0.  1.
<mgrwt>
<rscale>  0 0.12006286E+04</rscale>
<asrwt>0</asrwt>
<pdfrwt beam="1">  1        2 0.16880232E+00 0.12006286E+04</pdfrwt>
<pdfrwt beam="2">  1       -2 0.50530343E-01 0.12006286E+04</pdfrwt>
<totfact> 0.79910374E+01</totfact>
</mgrwt>
</event>
<event>
12    1  0.1397649E-007  0.1062188E+04  0.7818608E-02  0.9242850E-01
         -1   -1    0    0    0  501 -0.00000000000E+00  0.00000000000E+00  0.13306930249E+04  0.13306930249E+04  0.00000000000E+00 0.  1.
          1   -1    0    0  501    0  0.00000000000E+00 -0.00000000000E+00 -0.21196535240E+03  0.21196535240E+03  0.00000000000E+00 0. -1.
         23    2    1    2    0    0 -0.17798810391E+02 -0.13541348082E+03  0.10701170145E+03  0.19646550353E+03  0.92160628207E+02 0.  0.
        254    2    1    2    0    0  0.17798810391E+02  0.13541348082E+03  0.10117159710E+04  0.13461928738E+04  0.87750352640E+03 0.  0.
        -24    2    4    4    0    0  0.27566192924E+03  0.12234030372E+03  0.14936837421E+02  0.31262411398E+03  0.80957262687E+02 0.  0.
         24    2    4    4    0    0 -0.25786311885E+03  0.13073177099E+02  0.99677913362E+03  0.10335687598E+04  0.89618323669E+02 0.  0.
         13    1    3    3    0    0 -0.34777132990E+01 -0.79927841808E+02  0.11342767677E+03  0.13880343023E+03  0.00000000000E+00 0.  1.
        -13    1    3    3    0    0 -0.14321097092E+02 -0.55485639009E+02 -0.64159753193E+01  0.57662073302E+02  0.00000000000E+00 0. -1.
          4    1    6    6  502    0 -0.19051286868E+03 -0.27119288979E+02  0.64179777045E+03  0.67002610928E+03  0.00000000000E+00 0. -1.
          3    1    5    5  503    0  0.16380011332E+03  0.11241159702E+03 -0.41823069889E+01  0.19870665807E+03  0.00000000000E+00 0. -1.
         -4    1    5    5    0  503  0.11186181592E+03  0.99287066941E+01  0.19119144410E+02  0.11391745591E+03  0.00000000000E+00 0.  1.
         -3    1    6    6    0  502 -0.67350250174E+02  0.40192466078E+02  0.35498136317E+03  0.36354265049E+03  0.00000000000E+00 0.  1.
<mgrwt>
<rscale>  0 0.10621880E+04</rscale>
<asrwt>0</asrwt>
<pdfrwt beam="1">  1        1 0.32610055E-01 0.10621880E+04</pdfrwt>
<pdfrwt beam="2">  1       -1 0.20472200E+00 0.10621880E+04</pdfrwt>
<totfact> 0.19266176E+01</totfact>
</mgrwt>
</event>
<event>
12    1  0.1397649E-007  0.1867602E+04  0.7818608E-02  0.8671153E-01
         -2   -1    0    0    0  501 -0.00000000000E+00  0.00000000000E+00  0.10395844496E+04  0.10395844496E+04  0.00000000000E+00 0.  1.
          2   -1    0    0  501    0  0.00000000000E+00 -0.00000000000E+00 -0.83878132508E+03  0.83878132508E+03  0.00000000000E+00 0. -1.
         23    2    1    2    0    0  0.38859306682E+03 -0.46644057341E+03 -0.30872790274E+03  0.68719938540E+03  0.91425911343E+02 0.  0.
        254    2    1    2    0    0 -0.38859306682E+03  0.46644057341E+03  0.50953102721E+03  0.11911663892E+04  0.88920420548E+03 0.  0.
        -24    2    4    4    0    0 -0.49095450964E+03  0.37385176483E+03  0.70334270230E+03  0.93903639203E+03  0.79353110129E+02 0.  0.
         24    2    4    4    0    0  0.10236144282E+03  0.92588808587E+02 -0.19381167508E+03  0.25212999720E+03  0.83402743588E+02 0.  0.
         13    1    3    3    0    0  0.13701365981E+03 -0.17815310925E+03 -0.16355610486E+03  0.27796019993E+03  0.00000000000E+00 0.  1.
        -13    1    3    3    0    0  0.25157940700E+03 -0.28828746417E+03 -0.14517179787E+03  0.40923918547E+03  0.00000000000E+00 0. -1.
          4    1    6    6  502    0  0.14579486353E+02  0.37408711851E+02 -0.11525147389E+03  0.12204456309E+03  0.00000000000E+00 0. -1.
          3    1    5    5  503    0 -0.57582606344E+01 -0.88354216896E+00  0.20755855207E+02  0.21557915893E+02  0.00000000000E+00 0. -1.
         -4    1    5    5    0  503 -0.48519624901E+03  0.37473530700E+03  0.68258684709E+03  0.91747847614E+03  0.00000000000E+00 0.  1.
         -3    1    6    6    0  502  0.87781956472E+02  0.55180096736E+02 -0.78560201190E+02  0.13008543411E+03  0.00000000000E+00 0.  1.
<mgrwt>
<rscale>  0 0.18676017E+04</rscale>
<asrwt>0</asrwt>
<pdfrwt beam="1">  1        2 0.12904328E+00 0.18676017E+04</pdfrwt>
<pdfrwt beam="2">  1       -2 0.15993607E+00 0.18676017E+04</pdfrwt>
<totfact> 0.76496266E+00</totfact>
</mgrwt>
</event>
<event>
12    1  0.1397649E-007  0.1769095E+04  0.7818608E-02  0.8722909E-01
         -1   -1    0    0    0  501 -0.00000000000E+00  0.00000000000E+00  0.37271195212E+03  0.37271195212E+03  0.00000000000E+00 0.  1.
          1   -1    0    0  501    0  0.00000000000E+00 -0.00000000000E+00 -0.20992732237E+04  0.20992732237E+04  0.00000000000E+00 0. -1.
         23    2    1    2    0    0 -0.32670966407E+03 -0.31720445303E+03  0.74894379909E+01  0.46390059778E+03  0.88259862501E+02 0.  0.
        254    2    1    2    0    0  0.32670966407E+03  0.31720445303E+03 -0.17340507095E+04  0.20080845780E+04  0.90449651164E+03 0.  0.
        -24    2    4    4    0    0  0.45446145798E+03  0.37179289096E+03 -0.17497086335E+04  0.18475540680E+04  0.84915026143E+02 0.  0.
         24    2    4    4    0    0 -0.12775179391E+03 -0.54588437930E+02  0.15657923970E+02  0.16053050995E+03  0.78895219375E+02 0.  0.
         13    1    3    3    0    0 -0.17642908435E+02  0.16760789978E+01 -0.82352339826E+01  0.19542275650E+02  0.00000000000E+00 0. -1.
        -13    1    3    3    0    0 -0.30906675563E+03 -0.31888053202E+03  0.15724671974E+02  0.44435832213E+03  0.00000000000E+00 0.  1.
          4    1    6    6  502    0  0.95525908480E+01 -0.54996343343E+01 -0.68650459384E+01  0.12985639201E+02  0.00000000000E+00 0. -1.
          1    1    5    5  503    0  0.17782804885E+03  0.94095634446E+02 -0.57633581200E+03  0.61044227538E+03  0.00000000000E+00 0. -1.
         -2    1    5    5    0  503  0.27663340912E+03  0.27769725651E+03 -0.11733728215E+04  0.12371117927E+04  0.00000000000E+00 0.  1.
         -1    1    6    6    0  502 -0.13730438476E+03 -0.49088803595E+02  0.22522969909E+02  0.14754487075E+03  0.00000000000E+00 0.  1.
<mgrwt>
<rscale>  0 0.17690949E+04</rscale>
<asrwt>0</asrwt>
<pdfrwt beam="1">  1        1 0.32296511E+00 0.17690949E+04</pdfrwt>
<pdfrwt beam="2">  1       -1 0.57340301E-01 0.17690949E+04</pdfrwt>
<totfact> 0.74368464E+00</totfact>
</mgrwt>
</event>
<event>
12    1  0.1397649E-007  0.2008008E+04  0.7818608E-02  0.8602886E-01
         -2   -1    0    0    0  501 -0.00000000000E+00  0.00000000000E+00  0.12414464156E+04  0.12414464156E+04  0.00000000000E+00 0. -1.
          2   -1    0    0  501    0  0.00000000000E+00 -0.00000000000E+00 -0.81197542505E+03  0.81197542505E+03  0.00000000000E+00 0.  1.
         23    2    1    2    0    0 -0.23834356738E+03  0.44055996553E+03 -0.46872647750E+03  0.69211829439E+03  0.91774088815E+02 0.  0.
        254    2    1    2    0    0  0.23834356738E+03 -0.44055996553E+03  0.89819746809E+03  0.13613035463E+04  0.89190129170E+03 0.  0.
        -24    2    4    4    0    0  0.57757960755E+02 -0.30042980260E+03  0.10360209788E+04  0.10834342453E+04  0.83043646110E+02 0.  0.
         24    2    4    4    0    0  0.18058560663E+03 -0.14013016293E+03 -0.13782351069E+03  0.27786930097E+03  0.77255449241E+02 0.  0.
         11    1    3    3    0    0 -0.23143561324E+03  0.42372839130E+03 -0.47010189152E+03  0.67387237744E+03  0.00000000000E+00 0.  1.
        -11    1    3    3    0    0 -0.69079541422E+01  0.16831574230E+02  0.13754140197E+01  0.18245916947E+02  0.00000000000E+00 0. -1.
          4    1    6    6  502    0  0.16159458279E+03 -0.88379450259E+02 -0.90498109822E+02  0.20521609171E+03  0.00000000000E+00 0. -1.
          3    1    5    5  503    0  0.74418049277E+02 -0.22112222452E+03  0.82610919634E+03  0.85842267474E+03  0.00000000000E+00 0. -1.
         -4    1    5    5    0  503 -0.16660088522E+02 -0.79307578086E+02  0.20991178244E+03  0.22501157058E+03  0.00000000000E+00 0.  1.
         -3    1    6    6    0  502  0.18991023841E+02 -0.51750712671E+02 -0.47325400869E+02  0.72653209260E+02  0.00000000000E+00 0.  1.
<mgrwt>
<rscale>  0 0.20080079E+04</rscale>
<asrwt>0</asrwt>
<pdfrwt beam="1">  1        2 0.12491930E+00 0.20080079E+04</pdfrwt>
<pdfrwt beam="2">  1       -2 0.19099176E+00 0.20080079E+04</pdfrwt>
<totfact> 0.47834012E+00</totfact>
</mgrwt>
</event>
<event>
12    1  0.1397649E-007  0.1524081E+04  0.7818608E-02  0.8868595E-01
         -1   -1    0    0    0  501 -0.00000000000E+00  0.00000000000E+00  0.16845214269E+04  0.16845214269E+04  0.00000000000E+00 0.  1.
          1   -1    0    0  501    0  0.00000000000E+00 -0.00000000000E+00 -0.34473060440E+03  0.34473060440E+03  0.00000000000E+00 0. -1.
         23    2    1    2    0    0 -0.19524943511E+03 -0.19113619497E+03  0.98726912685E+03  0.10284601749E+04  0.91512925742E+02 0.  0.
        254    2    1    2    0    0  0.19524943511E+03  0.19113619497E+03  0.35252169569E+03  0.10007918564E+04  0.89591149509E+03 0.  0.
        -24    2    4    4    0    0  0.13140934728E+03 -0.29676605654E+03 -0.76894289545E+02  0.34281973866E+03  0.79209422309E+02 0.  0.
         24    2    4    4    0    0  0.63840087830E+02  0.48790225151E+03  0.42941598523E+03  0.65797211777E+03  0.80031590933E+02 0.  0.
         11    1    3    3    0    0 -0.13078729383E+03 -0.10282365739E+03  0.73365438789E+03  0.75228105228E+03  0.00000000000E+00 0.  1.
        -11    1    3    3    0    0 -0.64462141274E+02 -0.88312537583E+02  0.25361473896E+03  0.27617912262E+03  0.00000000000E+00 0. -1.
          2    1    6    6  502    0  0.64821334999E+02  0.38716585355E+03  0.30052920594E+03  0.49438548447E+03  0.00000000000E+00 0. -1.
          3    1    5    5  503    0  0.13525189659E+03 -0.28554923526E+03 -0.59105923391E+02  0.32144198772E+03  0.00000000000E+00 0. -1.
         -4    1    5    5    0  503 -0.38425493091E+01 -0.11216821280E+02 -0.17788366155E+02  0.21377750940E+02  0.00000000000E+00 0.  1.
         -1    1    6    6    0  502 -0.98124716852E+00  0.10073639796E+03  0.12888677929E+03  0.16358663331E+03  0.00000000000E+00 0.  1.
<mgrwt>
<rscale>  0 0.15240815E+04</rscale>
<asrwt>0</asrwt>
<pdfrwt beam="1">  1        1 0.53035478E-01 0.15240815E+04</pdfrwt>
<pdfrwt beam="2">  1       -1 0.25915714E+00 0.15240815E+04</pdfrwt>
<totfact> 0.42899324E+00</totfact>
</mgrwt>
</event>
<event>
12    1  0.1540454E-007  0.1943377E+04  0.7818608E-02  0.8633561E-01
          2   -1    0    0  501    0  0.00000000000E+00  0.00000000000E+00  0.21942436534E+04  0.21942436534E+04  0.00000000000E+00 0. -1.
         -2   -1    0    0    0  501 -0.00000000000E+00 -0.00000000000E+00 -0.43029815969E+03  0.43029815969E+03  0.00000000000E+00 0.  1.
         23    2    1    2    0    0  0.23993387770E+03 -0.63816640850E+03  0.24131293709E+03  0.72889141758E+03  0.90698039752E+02 0.  0.
        254    2    1    2    0    0 -0.23993387770E+03  0.63816640850E+03  0.15226325566E+04  0.18956503955E+04  0.90014214929E+03 0.  0.
        -24    2    4    4    0    0  0.13128841102E+02 -0.17821197226E+02  0.10300889339E+04  0.10334793813E+04  0.80662619775E+02 0.  0.
         24    2    4    4    0    0 -0.25306271880E+03  0.65598760573E+03  0.49254362275E+03  0.86217101426E+03  0.79869637634E+02 0.  0.
         13    1    3    3    0    0  0.19342459146E+03 -0.47829879069E+03  0.22059991149E+03  0.56111240114E+03  0.00000000000E+00 0. -1.
        -13    1    3    3    0    0  0.46509286239E+02 -0.15986761781E+03  0.20713025592E+02  0.16777901645E+03  0.00000000000E+00 0.  1.
          4    1    6    6  502    0 -0.27489169410E+02  0.12714979737E+03  0.63283788059E+02  0.14466362098E+03  0.00000000000E+00 0. -1.
          3    1    5    5  503    0 -0.11985542411E+02  0.10671465313E+02  0.47136002511E+02  0.49792932546E+02  0.00000000000E+00 0. -1.
         -4    1    5    5    0  503  0.25114383513E+02 -0.28492662539E+02  0.98295293139E+03  0.98368644872E+03  0.00000000000E+00 0.  1.
         -3    1    6    6    0  502 -0.22557354939E+03  0.52883780836E+03  0.42925983469E+03  0.71750739328E+03  0.00000000000E+00 0.  1.
<mgrwt>
<rscale>  0 0.19433775E+04</rscale>
<asrwt>0</asrwt>
<pdfrwt beam="1">  1        2 0.33757594E+00 0.19433775E+04</pdfrwt>
<pdfrwt beam="2">  1       -2 0.66199718E-01 0.19433775E+04</pdfrwt>
<totfact> 0.10191196E+01</totfact>
</mgrwt>
</event>
<event>
12    1  0.1397649E-007  0.2741542E+04  0.7818608E-02  0.8321650E-01
         -2   -1    0    0    0  501 -0.00000000000E+00  0.00000000000E+00  0.18914591578E+04  0.18914591578E+04  0.00000000000E+00 0.  1.
          2   -1    0    0  501    0  0.00000000000E+00 -0.00000000000E+00 -0.99342019065E+03  0.99342019065E+03  0.00000000000E+00 0. -1.
         23    2    1    2    0    0  0.12154648866E+04 -0.10819819930E+03  0.42305077915E+03  0.12946998739E+04  0.90631456477E+02 0.  0.
        254    2    1    2    0    0 -0.12154648866E+04  0.10819819930E+03  0.47498818805E+03  0.15901794746E+04  0.90221684850E+03 0.  0.
        -24    2    4    4    0    0  0.11189990504E+03 -0.34333592578E+02  0.16468302068E+03  0.21719930523E+03  0.79716099778E+02 0.  0.
         24    2    4    4    0    0 -0.13273647916E+04  0.14253179188E+03  0.31030516737E+03  0.13729801694E+04  0.81071861771E+02 0.  0.
         13    1    3    3    0    0  0.86393677180E+03 -0.11773686133E+03  0.29604158428E+03  0.92080906480E+03  0.00000000000E+00 0. -1.
        -13    1    3    3    0    0  0.35152811479E+03  0.95386620306E+01  0.12700919486E+03  0.37389080912E+03  0.00000000000E+00 0.  1.
          2    1    6    6  502    0 -0.45223695200E+03  0.45724385301E+02  0.66493624174E+02  0.45938043300E+03  0.00000000000E+00 0. -1.
          1    1    5    5  503    0  0.95349534603E+00 -0.12068443952E+02 -0.51211302084E+01  0.13144674488E+02  0.00000000000E+00 0. -1.
         -2    1    5    5    0  503  0.11094640969E+03 -0.22265148626E+02  0.16980415089E+03  0.20405463074E+03  0.00000000000E+00 0.  1.
         -1    1    6    6    0  502 -0.87512783964E+03  0.96807406579E+02  0.24381154319E+03  0.91359973636E+03  0.00000000000E+00 0.  1.
<mgrwt>
<rscale>  0 0.27415424E+04</rscale>
<asrwt>0</asrwt>
<pdfrwt beam="1">  1        2 0.15283388E+00 0.27415424E+04</pdfrwt>
<pdfrwt beam="2">  1       -2 0.29099372E+00 0.27415424E+04</pdfrwt>
<totfact> 0.80241719E-01</totfact>
</mgrwt>
</event>
<event>
12    1  0.1397649E-007  0.2206181E+04  0.7818608E-02  0.8515860E-01
          1   -1    0    0  501    0  0.00000000000E+00  0.00000000000E+00  0.94736658161E+03  0.94736658161E+03  0.00000000000E+00 0. -1.
         -1   -1    0    0    0  501 -0.00000000000E+00 -0.00000000000E+00 -0.12844117283E+04  0.12844117283E+04  0.00000000000E+00 0.  1.
         23    2    1    2    0    0 -0.82511142575E+02 -0.79556348870E+03  0.32267231798E+03  0.86723454835E+03  0.90823916777E+02 0.  0.
        254    2    1    2    0    0  0.82511142575E+02  0.79556348870E+03 -0.65971746467E+03  0.13645437616E+04  0.88714327525E+03 0.  0.
        -24    2    4    4    0    0  0.40909855599E+03  0.13781774456E+03 -0.14389387787E+03  0.46303391152E+03  0.85671441587E+02 0.  0.
         24    2    4    4    0    0 -0.32658741341E+03  0.65774574414E+03 -0.51582358680E+03  0.90150985004E+03  0.85774322987E+02 0.  0.
         13    1    3    3    0    0 -0.26936976816E+02 -0.54991283825E+03  0.25298056689E+03  0.60591162525E+03  0.00000000000E+00 0.  1.
        -13    1    3    3    0    0 -0.55574165760E+02 -0.24565065044E+03  0.69691751095E+02  0.26132292309E+03  0.00000000000E+00 0. -1.
          4    1    6    6  502    0 -0.22257344891E+03  0.35266306301E+03 -0.29228117457E+03  0.50925284602E+03  0.00000000000E+00 0. -1.
          3    1    5    5  503    0  0.39569282382E+03  0.11285177932E+03 -0.13873937727E+03  0.43423144719E+03  0.00000000000E+00 0. -1.
         -4    1    5    5    0  503  0.13405732164E+02  0.24965965242E+02 -0.51545006003E+01  0.28802464335E+02  0.00000000000E+00 0.  1.
         -3    1    6    6    0  502 -0.10401396451E+03  0.30508268112E+03 -0.22354241224E+03  0.39225700402E+03  0.00000000000E+00 0.  1.
<mgrwt>
<rscale>  0 0.22061811E+04</rscale>
<asrwt>0</asrwt>
<pdfrwt beam="1">  1        1 0.14574871E+00 0.22061811E+04</pdfrwt>
<pdfrwt beam="2">  1       -1 0.19760180E+00 0.22061811E+04</pdfrwt>
<totfact> 0.23730854E+00</totfact>
</mgrwt>
</event>
<event>
12    1  0.1397649E-007  0.2031034E+04  0.7818608E-02  0.8592247E-01
         -1   -1    0    0    0  501 -0.00000000000E+00  0.00000000000E+00  0.12164584665E+04  0.12164584665E+04  0.00000000000E+00 0.  1.
          1   -1    0    0  501    0  0.00000000000E+00 -0.00000000000E+00 -0.84776850620E+03  0.84776850620E+03  0.00000000000E+00 0. -1.
         23    2    1    2    0    0  0.13532963268E+03 -0.79346140189E+03  0.20034209491E+03  0.83424835049E+03  0.89096854733E+02 0.  0.
        254    2    1    2    0    0 -0.13532963268E+03  0.79346140189E+03  0.16834786538E+03  0.12299786222E+04  0.91466458417E+03 0.  0.
        -24    2    4    4    0    0 -0.19382226901E+03  0.94118476243E+03  0.29875696686E+03  0.10096118756E+04  0.81636910105E+02 0.  0.
         24    2    4    4    0    0  0.58492636334E+02 -0.14772336054E+03 -0.13040910148E+03  0.22036674662E+03  0.79444254106E+02 0.  0.
         13    1    3    3    0    0  0.14291084408E+03 -0.76087648633E+03  0.17912806844E+03  0.79463413072E+03  0.00000000000E+00 0. -1.
        -13    1    3    3    0    0 -0.75812114020E+01 -0.32584915564E+02  0.21214026469E+02  0.39614219766E+02  0.00000000000E+00 0.  1.
          4    1    6    6  502    0  0.62056417126E+02 -0.63708437146E+02 -0.42008024195E+02  0.98358720848E+02  0.00000000000E+00 0. -1.
          3    1    5    5  503    0 -0.18251567069E+03  0.72004986451E+03  0.23764491877E+03  0.77990953633E+03  0.00000000000E+00 0. -1.
         -4    1    5    5    0  503 -0.11306598317E+02  0.22113489792E+03  0.61112048094E+02  0.22970233927E+03  0.00000000000E+00 0.  1.
         -3    1    6    6    0  502 -0.35637807919E+01 -0.84014923394E+02 -0.88401077287E+02  0.12200802577E+03  0.00000000000E+00 0.  1.
<mgrwt>
<rscale>  0 0.20310344E+04</rscale>
<asrwt>0</asrwt>
<pdfrwt beam="1">  1        1 0.13042592E+00 0.20310344E+04</pdfrwt>
<pdfrwt beam="2">  1       -1 0.18714746E+00 0.20310344E+04</pdfrwt>
<totfact> 0.34439458E+00</totfact>
</mgrwt>
</event>
<event>
12    1  0.1397649E-007  0.2337582E+04  0.7818608E-02  0.8463249E-01
          1   -1    0    0  501    0  0.00000000000E+00  0.00000000000E+00  0.13931139536E+04  0.13931139536E+04  0.00000000000E+00 0. -1.
         -1   -1    0    0    0  501 -0.00000000000E+00 -0.00000000000E+00 -0.98058891394E+03  0.98058891394E+03  0.00000000000E+00 0.  1.
         23    2    1    2    0    0 -0.38132387438E+02 -0.44542200661E+03  0.10752385099E+04  0.11680030883E+04  0.90766283378E+02 0.  0.
        254    2    1    2    0    0  0.38132387438E+02  0.44542200661E+03 -0.66271347027E+03  0.12056997792E+04  0.90258959165E+03 0.  0.
        -24    2    4    4    0    0  0.41050415720E+03  0.36061122055E+03 -0.17038170825E+03  0.57758666152E+03  0.77603541109E+02 0.  0.
         24    2    4    4    0    0 -0.37237176976E+03  0.84810786058E+02 -0.49233176202E+03  0.62811311768E+03  0.79258566535E+02 0.  0.
         11    1    3    3    0    0 -0.27404159257E+01 -0.39132643376E+03  0.93429884849E+03  0.10129453223E+04  0.00000000000E+00 0. -1.
        -11    1    3    3    0    0 -0.35391971512E+02 -0.54095572845E+02  0.14093966139E+03  0.15505776602E+03  0.00000000000E+00 0.  1.
          2    1    6    6  502    0 -0.11042331249E+03  0.17700772204E+02 -0.90978313262E+02  0.14416545620E+03  0.00000000000E+00 0. -1.
          3    1    5    5  503    0  0.36918009987E+01 -0.77977886671E+00 -0.93908291048E+01  0.10120529678E+02  0.00000000000E+00 0. -1.
         -4    1    5    5    0  503  0.40681235620E+03  0.36139099942E+03 -0.16099087914E+03  0.56746613184E+03  0.00000000000E+00 0.  1.
         -1    1    6    6    0  502 -0.26194845727E+03  0.67110013854E+02 -0.40135344875E+03  0.48394766148E+03  0.00000000000E+00 0.  1.
<mgrwt>
<rscale>  0 0.23375817E+04</rscale>
<asrwt>0</asrwt>
<pdfrwt beam="1">  1        1 0.21432522E+00 0.23375817E+04</pdfrwt>
<pdfrwt beam="2">  1       -1 0.15085983E+00 0.23375817E+04</pdfrwt>
<totfact> 0.24048679E+00</totfact>
</mgrwt>
</event>
<event>
12    1  0.1397649E-007  0.2625624E+04  0.7818608E-02  0.8359549E-01
          3   -1    0    0  501    0  0.00000000000E+00  0.00000000000E+00  0.12984488715E+04  0.12984488715E+04  0.00000000000E+00 0. -1.
         -3   -1    0    0    0  501 -0.00000000000E+00 -0.00000000000E+00 -0.13273342892E+04  0.13273342892E+04  0.00000000000E+00 0.  1.
         23    2    1    2    0    0 -0.95249304577E+03  0.57930040761E+03 -0.27418155363E+03  0.11516458648E+04  0.90998401658E+02 0.  0.
        254    2    1    2    0    0  0.95249304577E+03 -0.57930040761E+03  0.24529613591E+03  0.14741372959E+04  0.93278004282E+03 0.  0.
        -24    2    4    4    0    0  0.52511441871E+02 -0.53838186831E+03  0.13136014000E+03  0.56227819267E+03  0.79301903632E+02 0.  0.
         24    2    4    4    0    0  0.89998160390E+03 -0.40918539297E+02  0.11393599591E+03  0.91185910319E+03  0.82851666835E+02 0.  0.
         11    1    3    3    0    0 -0.11417486557E+03  0.89123273233E+02 -0.62413739715E+02  0.15771598735E+03  0.00000000000E+00 0. -1.
        -11    1    3    3    0    0 -0.83831818020E+03  0.49017713438E+03 -0.21176781392E+03  0.99392987747E+03  0.00000000000E+00 0.  1.
          4    1    6    6  502    0  0.65287132372E+03 -0.34097098895E+02  0.11949555699E+03  0.66459217993E+03  0.00000000000E+00 0. -1.
          1    1    5    5  503    0  0.52286040957E+02 -0.53946446841E+03  0.12552377451E+03  0.55633799144E+03  0.00000000000E+00 0. -1.
         -2    1    5    5    0  503  0.22540091395E+00  0.10826000955E+01  0.58363654901E+01  0.59402012317E+01  0.00000000000E+00 0.  1.
         -3    1    6    6    0  502  0.24711028018E+03 -0.68214404023E+01 -0.55595610732E+01  0.24726692326E+03  0.00000000000E+00 0.  1.
<mgrwt>
<rscale>  0 0.26256243E+04</rscale>
<asrwt>0</asrwt>
<pdfrwt beam="1">  1        3 0.19976136E+00 0.26256243E+04</pdfrwt>
<pdfrwt beam="2">  1       -3 0.20420528E+00 0.26256243E+04</pdfrwt>
<totfact> 0.46756605E-02</totfact>
</mgrwt>
</event>
<event>
12    1  0.1397649E-007  0.1812410E+04  0.7818608E-02  0.8699728E-01
          1   -1    0    0  501    0  0.00000000000E+00  0.00000000000E+00  0.24895796736E+04  0.24895796736E+04  0.00000000000E+00 0. -1.
         -1   -1    0    0    0  501 -0.00000000000E+00 -0.00000000000E+00 -0.32985791845E+03  0.32985791845E+03  0.00000000000E+00 0.  1.
         23    2    1    2    0    0  0.21911948206E+03 -0.64136302454E+03  0.87824242090E+03  0.11127302994E+04  0.86597301608E+02 0.  0.
        254    2    1    2    0    0 -0.21911948206E+03  0.64136302454E+03  0.12814793342E+04  0.17067072926E+04  0.90072227796E+03 0.  0.
        -24    2    4    4    0    0 -0.19907643047E+03  0.79642054376E+03  0.12863757215E+04  0.15281913105E+04  0.81786777047E+02 0.  0.
         24    2    4    4    0    0 -0.20043051595E+02 -0.15505751921E+03 -0.48963872245E+01  0.17851598219E+03  0.86019899483E+02 0.  0.
         13    1    3    3    0    0  0.34606682034E+02 -0.36920998082E+02  0.52736362871E+02  0.73088347290E+02  0.00000000000E+00 0. -1.
        -13    1    3    3    0    0  0.18451280003E+03 -0.60444202646E+03  0.82550605803E+03  0.10396419521E+04  0.00000000000E+00 0.  1.
          4    1    6    6  502    0  0.86066285280E+01 -0.34510263412E+02 -0.36167372699E+02  0.50725843348E+02  0.00000000000E+00 0. -1.
          1    1    5    5  503    0 -0.51616372845E+02  0.12474448368E+03  0.25598267777E+03  0.28940035845E+03  0.00000000000E+00 0. -1.
         -2    1    5    5    0  503 -0.14746005762E+03  0.67167606008E+03  0.10303930437E+04  0.12387909520E+04  0.00000000000E+00 0.  1.
         -3    1    6    6    0  502 -0.28649680123E+02 -0.12054725580E+03  0.31270985474E+02  0.12779013884E+03  0.00000000000E+00 0.  1.
<mgrwt>
<rscale>  0 0.18124101E+04</rscale>
<asrwt>0</asrwt>
<pdfrwt beam="1">  1        1 0.38301225E+00 0.18124101E+04</pdfrwt>
<pdfrwt beam="2">  1       -1 0.50747374E-01 0.18124101E+04</pdfrwt>
<totfact> 0.50713359E+00</totfact>
</mgrwt>
</event>
<event>
12    1  0.1397649E-007  0.1819044E+04  0.7818608E-02  0.8696237E-01
         -1   -1    0    0    0  501 -0.00000000000E+00  0.00000000000E+00  0.14463649901E+04  0.14463649901E+04  0.00000000000E+00 0.  1.
          1   -1    0    0  501    0  0.00000000000E+00 -0.00000000000E+00 -0.57193720601E+03  0.57193720601E+03  0.00000000000E+00 0. -1.
         23    2    1    2    0    0 -0.51775904540E+02 -0.29689027321E+03 -0.34606758135E+03  0.46784945006E+03  0.91081054251E+02 0.  0.
        254    2    1    2    0    0  0.51775904540E+02  0.29689027321E+03  0.12204953654E+04  0.15504527461E+04  0.90745258942E+03 0.  0.
        -24    2    4    4    0    0 -0.14017190260E+02  0.49948966259E+03  0.27073735284E+03  0.57386367096E+03  0.79588906082E+02 0.  0.
         24    2    4    4    0    0  0.65793094800E+02 -0.20259938937E+03  0.94975801261E+03  0.97658907509E+03  0.79439884098E+02 0.  0.
         11    1    3    3    0    0 -0.16576741458E+02 -0.26671756455E+03 -0.27916461971E+03  0.38645301460E+03  0.00000000000E+00 0. -1.
        -11    1    3    3    0    0 -0.35199163082E+02 -0.30172708666E+02 -0.66902961641E+02  0.81396435465E+02  0.00000000000E+00 0.  1.
          4    1    6    6  502    0  0.69210708868E+02 -0.14477020742E+03  0.80170846654E+03  0.81760932022E+03  0.00000000000E+00 0. -1.
          1    1    5    5  503    0  0.23337542847E+02  0.24232885309E+03  0.10155038721E+03  0.26378096044E+03  0.00000000000E+00 0. -1.
         -2    1    5    5    0  503 -0.37354733107E+02  0.25716080949E+03  0.16918696563E+03  0.31008271052E+03  0.00000000000E+00 0.  1.
         -3    1    6    6    0  502 -0.34176140681E+01 -0.57829181954E+02  0.14804954606E+03  0.15897975488E+03  0.00000000000E+00 0.  1.
<mgrwt>
<rscale>  0 0.18190437E+04</rscale>
<asrwt>0</asrwt>
<pdfrwt beam="1">  1        1 0.87990340E-01 0.18190437E+04</pdfrwt>
<pdfrwt beam="2">  1       -1 0.22251769E+00 0.18190437E+04</pdfrwt>
<totfact> 0.36587633E+00</totfact>
</mgrwt>
</event>
<event>
12    1  0.1397649E-007  0.1557435E+04  0.7818608E-02  0.8847133E-01
          1   -1    0    0  501    0  0.00000000000E+00  0.00000000000E+00  0.69331194695E+03  0.69331194695E+03  0.00000000000E+00 0. -1.
         -1   -1    0    0    0  501 -0.00000000000E+00 -0.00000000000E+00 -0.87464325146E+03  0.87464325146E+03  0.00000000000E+00 0.  1.
         23    2    1    2    0    0 -0.25770380192E+03  0.84645732963E+02  0.38133352406E+03  0.47684322946E+03  0.91586348741E+02 0.  0.
        254    2    1    2    0    0  0.25770380192E+03 -0.84645732963E+02 -0.56266482857E+03  0.10911119689E+04  0.89462700039E+03 0.  0.
        -24    2    4    4    0    0 -0.23953795819E+03  0.12542649980E+03  0.32573332856E+02  0.28351161828E+03  0.78788168019E+02 0.  0.
         24    2    4    4    0    0  0.49724176011E+03 -0.21007223276E+03 -0.59523816143E+03  0.80760035067E+03  0.80809322470E+02 0.  0.
         11    1    3    3    0    0 -0.10120155393E+02  0.21614330239E+02  0.94738839815E+01  0.25677836641E+02  0.00000000000E+00 0.  1.
        -11    1    3    3    0    0 -0.24758364653E+03  0.63031402724E+02  0.37185964008E+03  0.45116539282E+03  0.00000000000E+00 0. -1.
          4    1    6    6  502    0  0.61091097852E+02 -0.31769729829E+02 -0.41001997393E+02  0.80141136505E+02  0.00000000000E+00 0. -1.
          3    1    5    5  503    0 -0.37878867532E+02  0.32903710620E+02 -0.22375199300E+02  0.54937349060E+02  0.00000000000E+00 0. -1.
         -4    1    5    5    0  503 -0.20165909066E+03  0.92522789179E+02  0.54948532156E+02  0.22857426922E+03  0.00000000000E+00 0.  1.
         -3    1    6    6    0  502  0.43615066226E+03 -0.17830250293E+03 -0.55423616404E+03  0.72745921416E+03  0.00000000000E+00 0.  1.
<mgrwt>
<rscale>  0 0.15574346E+04</rscale>
<asrwt>0</asrwt>
<pdfrwt beam="1">  1        1 0.10666338E+00 0.15574346E+04</pdfrwt>
<pdfrwt beam="2">  1       -1 0.13456050E+00 0.15574346E+04</pdfrwt>
<totfact> 0.12366960E+01</totfact>
</mgrwt>
</event>
<event>
12    1  0.1397649E-007  0.1530430E+04  0.7818608E-02  0.8864466E-01
         -1   -1    0    0    0  501 -0.00000000000E+00  0.00000000000E+00  0.36163678095E+03  0.36163678095E+03  0.00000000000E+00 0.  1.
          1   -1    0    0  501    0  0.00000000000E+00 -0.00000000000E+00 -0.16191769632E+04  0.16191769632E+04  0.00000000000E+00 0. -1.
         23    2    1    2    0    0  0.37242367278E+03  0.14145437634E+01  0.10944435635E+02  0.38362905961E+03  0.91378781564E+02 0.  0.
        254    2    1    2    0    0 -0.37242367278E+03 -0.14145437634E+01 -0.12684846179E+04  0.15971846845E+04  0.89623897356E+03 0.  0.
        -24    2    4    4    0    0  0.23573768075E+03  0.13449348079E+03 -0.67901205292E+03  0.73553938930E+03  0.79373009935E+02 0.  0.
         24    2    4    4    0    0 -0.60816135353E+03 -0.13590802455E+03 -0.58947256498E+03  0.86164529524E+03  0.81384807465E+02 0.  0.
         11    1    3    3    0    0  0.40907736881E+02  0.20641624609E+02  0.23140232743E+02  0.51332153419E+02  0.00000000000E+00 0. -1.
        -11    1    3    3    0    0  0.33151593590E+03 -0.19227080845E+02 -0.12195797109E+02  0.33229690619E+03  0.00000000000E+00 0.  1.
          2    1    6    6  502    0 -0.39983936145E+03 -0.92025093971E+02 -0.33369078270E+03  0.52885694791E+03  0.00000000000E+00 0. -1.
          3    1    5    5  503    0  0.33326853148E+02  0.31012929542E+02 -0.20284019919E+03  0.20788609224E+03  0.00000000000E+00 0. -1.
         -4    1    5    5    0  503  0.20241082760E+03  0.10348055125E+03 -0.47617185373E+03  0.52765329706E+03  0.00000000000E+00 0.  1.
         -1    1    6    6    0  502 -0.20832199208E+03 -0.43882930583E+02 -0.25578178227E+03  0.33278834734E+03  0.00000000000E+00 0.  1.
<mgrwt>
<rscale>  0 0.15304299E+04</rscale>
<asrwt>0</asrwt>
<pdfrwt beam="1">  1        1 0.24910415E+00 0.15304299E+04</pdfrwt>
<pdfrwt beam="2">  1       -1 0.55636427E-01 0.15304299E+04</pdfrwt>
<totfact> 0.17066419E+01</totfact>
</mgrwt>
</event>
<event>
12    1  0.1397649E-007  0.1727727E+04  0.7818608E-02  0.8745707E-01
         -1   -1    0    0    0  501 -0.00000000000E+00  0.00000000000E+00  0.20327776107E+04  0.20327776107E+04  0.00000000000E+00 0.  1.
          1   -1    0    0  501    0  0.00000000000E+00 -0.00000000000E+00 -0.36711368487E+03  0.36711368487E+03  0.00000000000E+00 0. -1.
         23    2    1    2    0    0 -0.42810740147E+02  0.42014679636E+03  0.12659286725E+04  0.13376620621E+04  0.91696774741E+02 0.  0.
        254    2    1    2    0    0  0.42810740147E+02 -0.42014679636E+03  0.39973525331E+03  0.10622292335E+04  0.88892439596E+03 0.  0.
        -24    2    4    4    0    0 -0.10706440456E+03 -0.57748183911E+03 -0.93728527420E+01  0.59284210216E+03  0.80161377874E+02 0.  0.
         24    2    4    4    0    0  0.14987514471E+03  0.15733504275E+03  0.40910810605E+03  0.46938713131E+03  0.75749336118E+02 0.  0.
         13    1    3    3    0    0 -0.17104490354E+02  0.39346822469E+03  0.11250325927E+04  0.11919765695E+04  0.00000000000E+00 0.  1.
        -13    1    3    3    0    0 -0.25706249793E+02  0.26678571661E+02  0.14089607977E+03  0.14568549261E+03  0.00000000000E+00 0. -1.
          4    1    6    6  502    0  0.13764784904E+03  0.97254328659E+02  0.30977721670E+03  0.35265742410E+03  0.00000000000E+00 0. -1.
          1    1    5    5  503    0 -0.72624323319E+02 -0.43873719412E+03 -0.40465640232E+02  0.44654460682E+03  0.00000000000E+00 0. -1.
         -2    1    5    5    0  503 -0.34440081241E+02 -0.13874464499E+03  0.31092787490E+02  0.14629749534E+03  0.00000000000E+00 0.  1.
         -3    1    6    6    0  502  0.12227295669E+02  0.60080714091E+02  0.99330889348E+02  0.11672970720E+03  0.00000000000E+00 0.  1.
<mgrwt>
<rscale>  0 0.17277274E+04</rscale>
<asrwt>0</asrwt>
<pdfrwt beam="1">  1        1 0.56479030E-01 0.17277274E+04</pdfrwt>
<pdfrwt beam="2">  1       -1 0.31273501E+00 0.17277274E+04</pdfrwt>
<totfact> 0.17456569E+00</totfact>
</mgrwt>
</event>
<event>
12    1  0.1397649E-007  0.1510946E+04  0.7818608E-02  0.8877206E-01
          1   -1    0    0  501    0  0.00000000000E+00  0.00000000000E+00  0.63358304532E+03  0.63358304532E+03  0.00000000000E+00 0. -1.
         -1   -1    0    0    0  501 -0.00000000000E+00 -0.00000000000E+00 -0.90081244767E+03  0.90081244767E+03  0.00000000000E+00 0.  1.
         23    2    1    2    0    0  0.11304053767E+03 -0.12157737448E+03  0.37047360231E+03  0.41614298981E+03  0.91460793919E+02 0.  0.
        254    2    1    2    0    0 -0.11304053767E+03  0.12157737448E+03 -0.63770300465E+03  0.11182525032E+04  0.90347347364E+03 0.  0.
        -24    2    4    4    0    0 -0.23916092016E+03 -0.77382631647E+01  0.15871566817E+03  0.29784445216E+03  0.79138030775E+02 0.  0.
         24    2    4    4    0    0  0.12612038248E+03  0.12931563764E+03 -0.79641867282E+03  0.82040805101E+03  0.78471540830E+02 0.  0.
         13    1    3    3    0    0  0.73658981954E+02 -0.79204178573E+02  0.32510749842E+03  0.34262783462E+03  0.00000000000E+00 0. -1.
        -13    1    3    3    0    0  0.39381555717E+02 -0.42373195904E+02  0.45366103887E+02  0.73515155198E+02  0.00000000000E+00 0.  1.
          4    1    6    6  502    0  0.16142612773E+02 -0.89846965890E+00 -0.21134561044E+02  0.26609413098E+02  0.00000000000E+00 0. -1.
          3    1    5    5  503    0 -0.10559495070E+02  0.12432851671E+02 -0.36622954244E+01  0.16717988652E+02  0.00000000000E+00 0. -1.
         -4    1    5    5    0  503 -0.22860142509E+03 -0.20171114835E+02  0.16237796360E+03  0.28112646351E+03  0.00000000000E+00 0.  1.
         -3    1    6    6    0  502  0.10997776971E+03  0.13021410730E+03 -0.77528411178E+03  0.79379863791E+03  0.00000000000E+00 0.  1.
<mgrwt>
<rscale>  0 0.15109461E+04</rscale>
<asrwt>0</asrwt>
<pdfrwt beam="1">  1        1 0.97474314E-01 0.15109461E+04</pdfrwt>
<pdfrwt beam="2">  1       -1 0.13858653E+00 0.15109461E+04</pdfrwt>
<totfact> 0.13160652E+01</totfact>
</mgrwt>
</event>
<event>
12    1  0.1397649E-007  0.1720477E+04  0.7818608E-02  0.8749771E-01
         -4   -1    0    0    0  501 -0.00000000000E+00  0.00000000000E+00  0.10551072867E+04  0.10551072867E+04  0.00000000000E+00 0.  1.
          4   -1    0    0  501    0  0.00000000000E+00 -0.00000000000E+00 -0.70136041421E+03  0.70136041421E+03  0.00000000000E+00 0. -1.
         23    2    1    2    0    0 -0.12487014820E+03 -0.34582333936E+03  0.64219023838E+03  0.74350144683E+03  0.72109383722E+02 0.  0.
        254    2    1    2    0    0  0.12487014820E+03  0.34582333936E+03 -0.28844336590E+03  0.10129662541E+04  0.89872950358E+03 0.  0.
        -24    2    4    4    0    0 -0.17557855305E+03  0.48635203573E+03  0.58481931027E+02  0.52634887681E+03  0.79100397664E+02 0.  0.
         24    2    4    4    0    0  0.30044870125E+03 -0.14052869638E+03 -0.34692529693E+03  0.48661737726E+03  0.80134721677E+02 0.  0.
         11    1    3    3    0    0  0.11904058382E+01 -0.12128544897E+02  0.55971757609E+02  0.57283124192E+02  0.00000000000E+00 0. -1.
        -11    1    3    3    0    0 -0.12606055404E+03 -0.33369479446E+03  0.58621848077E+03  0.68621832264E+03  0.00000000000E+00 0.  1.
          2    1    6    6  502    0  0.15287241129E+03 -0.32330083383E+02 -0.18609091526E+03  0.24299184589E+03  0.00000000000E+00 0. -1.
          3    1    5    5  503    0 -0.16501530705E+03  0.36765218560E+03  0.31870937329E+02  0.40424489828E+03  0.00000000000E+00 0. -1.
         -4    1    5    5    0  503 -0.10563245995E+02  0.11869985014E+03  0.26610993697E+02  0.12210397853E+03  0.00000000000E+00 0.  1.
         -3    1    6    6    0  502  0.14757628996E+03 -0.10819861299E+03 -0.16083438166E+03  0.24362553138E+03  0.00000000000E+00 0.  1.
<mgrwt>
<rscale>  0 0.17204772E+04</rscale>
<asrwt>0</asrwt>
<pdfrwt beam="1">  1        4 0.10790160E+00 0.17204772E+04</pdfrwt>
<pdfrwt beam="2">  1       -4 0.16232420E+00 0.17204772E+04</pdfrwt>
<totfact> 0.31412852E-01</totfact>
</mgrwt>
</event>
<event>
12    1  0.1397649E-007  0.2711248E+04  0.7818608E-02  0.8331364E-01
          2   -1    0    0  501    0  0.00000000000E+00  0.00000000000E+00  0.77900785187E+03  0.77900785187E+03  0.00000000000E+00 0. -1.
         -2   -1    0    0    0  501 -0.00000000000E+00 -0.00000000000E+00 -0.23590480263E+04  0.23590480263E+04  0.00000000000E+00 0.  1.
         23    2    1    2    0    0  0.62920785172E+03  0.62377347851E+03  0.24028672550E+03  0.92221586849E+03  0.88025703575E+02 0.  0.
        254    2    1    2    0    0 -0.62920785172E+03 -0.62377347851E+03 -0.18203268999E+04  0.22158400097E+04  0.90075582305E+03 0.  0.
        -24    2    4    4    0    0  0.72779119234E+02  0.16815892986E+03 -0.33797788140E+03  0.39275204948E+03  0.80317483544E+02 0.  0.
         24    2    4    4    0    0 -0.70198697096E+03 -0.79193240837E+03 -0.14823490185E+04  0.18230879602E+04  0.79677168092E+02 0.  0.
         13    1    3    3    0    0  0.10120687023E+03  0.83873364662E+02  0.66506500014E+02  0.14731152849E+03  0.00000000000E+00 0.  1.
        -13    1    3    3    0    0  0.52800098149E+03  0.53990011385E+03  0.17378022548E+03  0.77490434000E+03  0.00000000000E+00 0. -1.
          2    1    6    6  502    0 -0.54973978782E+03 -0.56855057660E+03 -0.11141518967E+04  0.13663081795E+04  0.00000000000E+00 0. -1.
          3    1    5    5  503    0  0.56554740745E+02  0.17285897946E+03 -0.32006711306E+03  0.36813261516E+03  0.00000000000E+00 0. -1.
         -4    1    5    5    0  503  0.16224378489E+02 -0.47000495984E+01 -0.17910768342E+02  0.24619434319E+02  0.00000000000E+00 0.  1.
         -1    1    6    6    0  502 -0.15224718313E+03 -0.22338183177E+03 -0.36819712178E+03  0.45677978067E+03  0.00000000000E+00 0.  1.
<mgrwt>
<rscale>  0 0.27112484E+04</rscale>
<asrwt>0</asrwt>
<pdfrwt beam="1">  1        2 0.11984736E+00 0.27112484E+04</pdfrwt>
<pdfrwt beam="2">  1       -2 0.36293046E+00 0.27112484E+04</pdfrwt>
<totfact> 0.40291072E-01</totfact>
</mgrwt>
</event>
<event>
12    1  0.1397649E-007  0.1106804E+04  0.7818608E-02  0.9198585E-01
          2   -1    0    0  501    0  0.00000000000E+00  0.00000000000E+00  0.93106819723E+03  0.93106819723E+03  0.00000000000E+00 0.  1.
         -2   -1    0    0    0  501 -0.00000000000E+00 -0.00000000000E+00 -0.32892742432E+03  0.32892742432E+03  0.00000000000E+00 0. -1.
         23    2    1    2    0    0 -0.22310534192E+02  0.16636139454E+03  0.75006138884E+02  0.20545779057E+03  0.91723003136E+02 0.  0.
        254    2    1    2    0    0  0.22310534192E+02 -0.16636139454E+03  0.52713463403E+03  0.10545378310E+04  0.89777794641E+03 0.  0.
        -24    2    4    4    0    0  0.50303454673E+02 -0.34087514746E+03  0.70610250015E+03  0.78936504126E+03  0.76092863953E+02 0.  0.
         24    2    4    4    0    0 -0.27992920481E+02  0.17451375292E+03 -0.17896786612E+03  0.26517278972E+03  0.83955093663E+02 0.  0.
         11    1    3    3    0    0 -0.29375617812E+02  0.15191315034E+03  0.93629607637E+02  0.18085086562E+03  0.00000000000E+00 0.  1.
        -11    1    3    3    0    0  0.70650836206E+01  0.14448244199E+02 -0.18623468752E+02  0.24606924948E+02  0.00000000000E+00 0. -1.
          2    1    6    6  502    0 -0.37133513528E+02  0.78526666328E+02 -0.39022806626E+02  0.95226648521E+02  0.00000000000E+00 0. -1.
          3    1    5    5  503    0 -0.13222493822E+02 -0.28269387411E+02  0.39274936378E+02  0.50164860559E+02  0.00000000000E+00 0. -1.
         -4    1    5    5    0  503  0.63525948495E+02 -0.31260576005E+03  0.66682756377E+03  0.73920018070E+03  0.00000000000E+00 0.  1.
         -1    1    6    6    0  502  0.91405930467E+01  0.95987086590E+02 -0.13994505949E+03  0.16994614120E+03  0.00000000000E+00 0.  1.
<mgrwt>
<rscale>  0 0.11068042E+04</rscale>
<asrwt>0</asrwt>
<pdfrwt beam="1">  1        2 0.14324126E+00 0.11068042E+04</pdfrwt>
<pdfrwt beam="2">  1       -2 0.50604220E-01 0.11068042E+04</pdfrwt>
<totfact> 0.10239753E+02</totfact>
</mgrwt>
</event>
<event>
12    1  0.1397649E-007  0.2005461E+04  0.7818608E-02  0.8604072E-01
         -3   -1    0    0    0  501 -0.00000000000E+00  0.00000000000E+00  0.88110359579E+03  0.88110359579E+03  0.00000000000E+00 0.  1.
          3   -1    0    0  501    0  0.00000000000E+00 -0.00000000000E+00 -0.11411462896E+04  0.11411462896E+04  0.00000000000E+00 0. -1.
         23    2    1    2    0    0 -0.21961306342E+02  0.32504886011E+03  0.62971904541E+03  0.71478450334E+03  0.90728990006E+02 0.  0.
        254    2    1    2    0    0  0.21961306342E+02 -0.32504886011E+03 -0.88976173922E+03  0.13074653820E+04  0.90091659561E+03 0.  0.
        -24    2    4    4    0    0  0.26480913360E+03 -0.48271800980E+03 -0.26882939331E+03  0.61774213153E+03  0.78711778962E+02 0.  0.
         24    2    4    4    0    0 -0.24284782725E+03  0.15766914969E+03 -0.62093234591E+03  0.68972325051E+03  0.79539651385E+02 0.  0.
         11    1    3    3    0    0 -0.40641087707E+02  0.28610026532E+03  0.49350008976E+03  0.57188058056E+03  0.00000000000E+00 0.  1.
        -11    1    3    3    0    0  0.18679781365E+02  0.38948594791E+02  0.13621895565E+03  0.14290392279E+03  0.00000000000E+00 0. -1.
          4    1    6    6  502    0 -0.37779382846E+02  0.56430988787E+02 -0.19159385726E+03  0.20327307840E+03  0.00000000000E+00 0. -1.
          3    1    5    5  503    0  0.32238761953E+02 -0.23814743534E+02 -0.32426161069E+02  0.51555171452E+02  0.00000000000E+00 0. -1.
         -4    1    5    5    0  503  0.23257037164E+03 -0.45890326626E+03 -0.23640323224E+03  0.56618696008E+03  0.00000000000E+00 0.  1.
         -3    1    6    6    0  502 -0.20506844441E+03  0.10123816090E+03 -0.42933848865E+03  0.48645017211E+03  0.00000000000E+00 0.  1.
<mgrwt>
<rscale>  0 0.20054606E+04</rscale>
<asrwt>0</asrwt>
<pdfrwt beam="1">  1        3 0.17556097E+00 0.20054606E+04</pdfrwt>
<pdfrwt beam="2">  1       -3 0.13555440E+00 0.20054606E+04</pdfrwt>
<totfact> 0.21577437E-01</totfact>
</mgrwt>
</event>
<event>
12    1  0.1397649E-007  0.1207772E+04  0.7818608E-02  0.9106080E-01
          1   -1    0    0  501    0  0.00000000000E+00  0.00000000000E+00  0.63922802066E+03  0.63922802066E+03  0.00000000000E+00 0. -1.
         -1   -1    0    0    0  501 -0.00000000000E+00 -0.00000000000E+00 -0.57049834479E+03  0.57049834479E+03  0.00000000000E+00 0.  1.
         23    2    1    2    0    0 -0.13573503345E+03 -0.21541326128E+03  0.81109951159E+01  0.27134577844E+03  0.93465880367E+02 0.  0.
        254    2    1    2    0    0  0.13573503345E+03  0.21541326128E+03  0.60618680759E+02  0.93838058701E+03  0.90114184743E+03 0.  0.
        -24    2    4    4    0    0 -0.54423969904E+02  0.25425263096E+03  0.43289358319E+03  0.51107805556E+03  0.78724555593E+02 0.  0.
         24    2    4    4    0    0  0.19015900336E+03 -0.38839369683E+02 -0.37227490243E+03  0.42730253146E+03  0.79560714008E+02 0.  0.
         13    1    3    3    0    0 -0.71255629374E+02 -0.66827582031E+02 -0.34938030940E+02  0.10374948888E+03  0.00000000000E+00 0.  1.
        -13    1    3    3    0    0 -0.64479404080E+02 -0.14858567925E+03  0.43049026056E+02  0.16759628955E+03  0.00000000000E+00 0. -1.
          4    1    6    6  502    0 -0.95568435709E+00  0.11966479192E+02 -0.21734591007E+02  0.24829466427E+02  0.00000000000E+00 0. -1.
          1    1    5    5  503    0 -0.50684058566E+01  0.91106010386E+01 -0.80163905583E+00  0.10456309788E+02  0.00000000000E+00 0. -1.
         -2    1    5    5    0  503 -0.49355564048E+02  0.24514202992E+03  0.43369522224E+03  0.50062174577E+03  0.00000000000E+00 0.  1.
         -3    1    6    6    0  502  0.19111468772E+03 -0.50805848875E+02 -0.35054031142E+03  0.40247306503E+03  0.00000000000E+00 0.  1.
<mgrwt>
<rscale>  0 0.12077724E+04</rscale>
<asrwt>0</asrwt>
<pdfrwt beam="1">  1        1 0.98342772E-01 0.12077724E+04</pdfrwt>
<pdfrwt beam="2">  1       -1 0.87768977E-01 0.12077724E+04</pdfrwt>
<totfact> 0.39444359E+01</totfact>
</mgrwt>
</event>
<event>
12    1  0.1397649E-007  0.1805899E+04  0.7818608E-02  0.8703169E-01
          2   -1    0    0  501    0  0.00000000000E+00  0.00000000000E+00  0.23889499060E+04  0.23889499060E+04  0.00000000000E+00 0.  1.
         -2   -1    0    0    0  501 -0.00000000000E+00 -0.00000000000E+00 -0.34128703112E+03  0.34128703112E+03  0.00000000000E+00 0. -1.
         23    2    1    2    0    0  0.22176155193E+03 -0.56622877942E+03  0.32205197817E+03  0.69407422671E+03  0.90710192297E+02 0.  0.
        254    2    1    2    0    0 -0.22176155193E+03  0.56622877942E+03  0.17256108967E+04  0.20361627104E+04  0.89355044614E+03 0.  0.
        -24    2    4    4    0    0 -0.29417991426E+03  0.19740579159E+03  0.15867223586E+04  0.16276175431E+04  0.77072400153E+02 0.  0.
         24    2    4    4    0    0  0.72418362324E+02  0.36882298783E+03  0.13888853812E+03  0.40854516729E+03  0.79651190464E+02 0.  0.
         11    1    3    3    0    0  0.49942872670E+02 -0.49804123432E+02  0.39652943142E+02  0.80914134372E+02  0.00000000000E+00 0.  1.
        -11    1    3    3    0    0  0.17181867926E+03 -0.51642465599E+03  0.28239903503E+03  0.61316009234E+03  0.00000000000E+00 0. -1.
          2    1    6    6  502    0  0.25192804533E+02  0.23686094196E+03  0.52537202457E+02  0.24392199750E+03  0.00000000000E+00 0. -1.
          1    1    5    5  503    0 -0.64869963812E+02  0.88886757362E+01  0.26494732777E+03  0.27291794967E+03  0.00000000000E+00 0. -1.
         -2    1    5    5    0  503 -0.22930995044E+03  0.18851711585E+03  0.13217750308E+04  0.13546995934E+04  0.00000000000E+00 0.  1.
         -3    1    6    6    0  502  0.47225557792E+02  0.13196204588E+03  0.86351335662E+02  0.16462316979E+03  0.00000000000E+00 0.  1.
<mgrwt>
<rscale>  0 0.18058988E+04</rscale>
<asrwt>0</asrwt>
<pdfrwt beam="1">  1        2 0.36753074E+00 0.18058988E+04</pdfrwt>
<pdfrwt beam="2">  1       -2 0.52505699E-01 0.18058988E+04</pdfrwt>
<totfact> 0.13038938E+01</totfact>
</mgrwt>
</event>
<event>
12    1  0.1397649E-007  0.2993282E+04  0.7818608E-02  0.8245652E-01
          1   -1    0    0  501    0  0.00000000000E+00  0.00000000000E+00  0.82503152713E+03  0.82503152713E+03  0.00000000000E+00 0. -1.
         -1   -1    0    0    0  501 -0.00000000000E+00 -0.00000000000E+00 -0.27149674553E+04  0.27149674553E+04  0.00000000000E+00 0.  1.
         23    2    1    2    0    0 -0.64011987054E+03  0.93720037729E+02  0.55506206938E+03  0.85586392224E+03  0.76630662284E+02 0.  0.
        254    2    1    2    0    0  0.64011987054E+03 -0.93720037729E+02 -0.24449979976E+04  0.26841350602E+04  0.89890428817E+03 0.  0.
        -24    2    4    4    0    0  0.37932217696E+03  0.22152948147E+03 -0.20886089439E+04  0.21357193114E+04  0.77775518958E+02 0.  0.
         24    2    4    4    0    0  0.26079769357E+03 -0.31524951920E+03 -0.35638905363E+03  0.54841574881E+03  0.79680484849E+02 0.  0.
         13    1    3    3    0    0 -0.35397249582E+03  0.59161468956E+02  0.35655224307E+03  0.50589140064E+03  0.00000000000E+00 0. -1.
        -13    1    3    3    0    0 -0.28614737471E+03  0.34558568772E+02  0.19850982631E+03  0.34997252160E+03  0.00000000000E+00 0.  1.
          2    1    6    6  502    0  0.51211658896E+02 -0.53232939916E+02 -0.10846241352E+03  0.13122680765E+03  0.00000000000E+00 0. -1.
          1    1    5    5  503    0  0.12747203974E+03  0.84814550779E+02 -0.56401494200E+03  0.58442748373E+03  0.00000000000E+00 0. -1.
         -2    1    5    5    0  503  0.25185013723E+03  0.13671493069E+03 -0.15245940019E+04  0.15512918277E+04  0.00000000000E+00 0.  1.
         -1    1    6    6    0  502  0.20958603468E+03 -0.26201657929E+03 -0.24792664011E+03  0.41718894116E+03  0.00000000000E+00 0.  1.
<mgrwt>
<rscale>  0 0.29932816E+04</rscale>
<asrwt>0</asrwt>
<pdfrwt beam="1">  1        1 0.12692793E+00 0.29932816E+04</pdfrwt>
<pdfrwt beam="2">  1       -1 0.41768730E+00 0.29932816E+04</pdfrwt>
<totfact> 0.96792921E-02</totfact>
</mgrwt>
</event>
<event>
12    1  0.1397649E-007  0.1570655E+04  0.7818608E-02  0.8838781E-01
         -1   -1    0    0    0  501 -0.00000000000E+00  0.00000000000E+00  0.42505113259E+03  0.42505113259E+03  0.00000000000E+00 0.  1.
          1   -1    0    0  501    0  0.00000000000E+00 -0.00000000000E+00 -0.14509764017E+04  0.14509764017E+04  0.00000000000E+00 0. -1.
         23    2    1    2    0    0  0.49803260825E+03  0.13667077172E+03 -0.29808460034E+03  0.60536752629E+03  0.10440322889E+03 0.  0.
        254    2    1    2    0    0 -0.49803260825E+03 -0.13667077172E+03 -0.72784066876E+03  0.12706600080E+04  0.90449402325E+03 0.  0.
        -24    2    4    4    0    0 -0.63103089426E+03  0.20269298665E+03 -0.46277562071E+03  0.81238333492E+03  0.80752531738E+02 0.  0.
         24    2    4    4    0    0  0.13299828601E+03 -0.33936375838E+03 -0.26506504804E+03  0.45827667307E+03  0.83076620109E+02 0.  0.
         13    1    3    3    0    0  0.12661679183E+03  0.76834924156E+01 -0.11671464778E+03  0.17237504760E+03  0.00000000000E+00 0. -1.
        -13    1    3    3    0    0  0.37141581642E+03  0.12898727931E+03 -0.18136995256E+03  0.43299247869E+03  0.00000000000E+00 0.  1.
          4    1    6    6  502    0 -0.11099052143E+01 -0.83747019083E+02 -0.43436311367E+02  0.94347804638E+02  0.00000000000E+00 0. -1.
          3    1    5    5  503    0 -0.84567401262E+02  0.80231874679E+01 -0.84663531310E+02  0.11993302476E+03  0.00000000000E+00 0. -1.
         -4    1    5    5    0  503 -0.54646349300E+03  0.19466979919E+03 -0.37811208941E+03  0.69245031016E+03  0.00000000000E+00 0.  1.
         -3    1    6    6    0  502  0.13410819122E+03 -0.25561673929E+03 -0.22162873668E+03  0.36392886844E+03  0.00000000000E+00 0.  1.
<mgrwt>
<rscale>  0 0.15706548E+04</rscale>
<asrwt>0</asrwt>
<pdfrwt beam="1">  1        1 0.22322714E+00 0.15706548E+04</pdfrwt>
<pdfrwt beam="2">  1       -1 0.65392483E-01 0.15706548E+04</pdfrwt>
<totfact> 0.16134589E+01</totfact>
</mgrwt>
</event>
<event>
12    1  0.1397649E-007  0.1229158E+04  0.7818608E-02  0.9087710E-01
         -1   -1    0    0    0  501 -0.00000000000E+00  0.00000000000E+00  0.49476200617E+03  0.49476200617E+03  0.00000000000E+00 0.  1.
          1   -1    0    0  501    0  0.00000000000E+00 -0.00000000000E+00 -0.76341246078E+03  0.76341246078E+03  0.00000000000E+00 0. -1.
         23    2    1    2    0    0 -0.16610515286E+03 -0.28470123477E+02 -0.27600466180E+03  0.33437008810E+03  0.84990074395E+02 0.  0.
        254    2    1    2    0    0  0.16610515286E+03  0.28470123477E+02  0.73542071913E+01  0.92380437884E+03  0.90827252312E+03 0.  0.
        -24    2    4    4    0    0 -0.50683968196E+02  0.18487641072E+03 -0.38848195079E+03  0.44035188263E+03  0.79015204719E+02 0.  0.
         24    2    4    4    0    0  0.21678912105E+03 -0.15640628725E+03  0.39583615798E+03  0.48345249621E+03  0.74696736405E+02 0.  0.
         13    1    3    3    0    0 -0.80564479607E+02 -0.22115259238E+02 -0.21040443010E+03  0.22638406364E+03  0.00000000000E+00 0. -1.
        -13    1    3    3    0    0 -0.85540673250E+02 -0.63548642386E+01 -0.65600231700E+02  0.10798602446E+03  0.00000000000E+00 0.  1.
          4    1    6    6  502    0  0.19157187319E+02 -0.40105556725E+02  0.97645325191E+02  0.10728496184E+03  0.00000000000E+00 0. -1.
          1    1    5    5  503    0  0.14873184974E+02  0.52159577875E+01 -0.36776268048E+02  0.40011395108E+02  0.00000000000E+00 0. -1.
         -2    1    5    5    0  503 -0.65557153170E+02  0.17966045294E+03 -0.35170568274E+03  0.40034048752E+03  0.00000000000E+00 0.  1.
         -3    1    6    6    0  502  0.19763193373E+03 -0.11630073052E+03  0.29819083279E+03  0.37616753436E+03  0.00000000000E+00 0.  1.
<mgrwt>
<rscale>  0 0.12291582E+04</rscale>
<asrwt>0</asrwt>
<pdfrwt beam="1">  1        1 0.11744807E+00 0.12291582E+04</pdfrwt>
<pdfrwt beam="2">  1       -1 0.76117231E-01 0.12291582E+04</pdfrwt>
<totfact> 0.40794225E+01</totfact>
</mgrwt>
</event>
<event>
12    1  0.1397649E-007  0.1259982E+04  0.7818608E-02  0.9061916E-01
          2   -1    0    0  501    0  0.00000000000E+00  0.00000000000E+00  0.20014738337E+04  0.20014738337E+04  0.00000000000E+00 0. -1.
         -2   -1    0    0    0  501 -0.00000000000E+00 -0.00000000000E+00 -0.19829816149E+03  0.19829816149E+03  0.00000000000E+00 0.  1.
         23    2    1    2    0    0  0.21052017257E+03  0.21197171016E+03  0.43501285842E+03  0.53559916846E+03  0.91539790760E+02 0.  0.
        254    2    1    2    0    0 -0.21052017257E+03 -0.21197171016E+03  0.13681628138E+04  0.16641728268E+04  0.89908340173E+03 0.  0.
        -24    2    4    4    0    0 -0.46695773309E+03 -0.13073513423E+03  0.12790151434E+04  0.13701306509E+04  0.78975082685E+02 0.  0.
         24    2    4    4    0    0  0.25643756053E+03 -0.81236575924E+02  0.89147670370E+02  0.29404217581E+03  0.78446735481E+02 0.  0.
         13    1    3    3    0    0  0.16385094174E+03  0.20065155796E+03  0.32537368389E+03  0.41590409110E+03  0.00000000000E+00 0.  1.
        -13    1    3    3    0    0  0.46669230831E+02  0.11320152192E+02  0.10963917453E+03  0.11969507736E+03  0.00000000000E+00 0. -1.
          2    1    6    6  502    0  0.13717517632E+03 -0.69975919824E+02  0.18838482322E+02  0.15514040985E+03  0.00000000000E+00 0. -1.
          1    1    5    5  503    0 -0.43166000768E+03 -0.10087858105E+03  0.11887858782E+04  0.12687469072E+04  0.00000000000E+00 0. -1.
         -2    1    5    5    0  503 -0.35297725413E+02 -0.29856553185E+02  0.90229265211E+02  0.10138374371E+03  0.00000000000E+00 0.  1.
         -1    1    6    6    0  502  0.11926238421E+03 -0.11260656100E+02  0.70309188048E+02  0.13890176596E+03  0.00000000000E+00 0.  1.
<mgrwt>
<rscale>  0 0.12599819E+04</rscale>
<asrwt>0</asrwt>
<pdfrwt beam="1">  1        2 0.30791904E+00 0.12599819E+04</pdfrwt>
<pdfrwt beam="2">  1       -2 0.30507411E-01 0.12599819E+04</pdfrwt>
<totfact> 0.65201750E+01</totfact>
</mgrwt>
</event>
<event>
12    1  0.1397649E-007  0.2231535E+04  0.7818608E-02  0.8505416E-01
         -2   -1    0    0    0  501 -0.00000000000E+00  0.00000000000E+00  0.52498097569E+03  0.52498097569E+03  0.00000000000E+00 0.  1.
          2   -1    0    0  501    0  0.00000000000E+00 -0.00000000000E+00 -0.23713943073E+04  0.23713943073E+04  0.00000000000E+00 0. -1.
         23    2    1    2    0    0 -0.28409933009E+01  0.44538032674E+03  0.28896401149E+03  0.53846492108E+03  0.89847451878E+02 0.  0.
        254    2    1    2    0    0  0.28409933009E+01 -0.44538032674E+03 -0.21353773431E+04  0.23579103619E+04  0.89528384921E+03 0.  0.
        -24    2    4    4    0    0 -0.54443615029E+02 -0.34020800615E+03 -0.21789783262E+04  0.22074436492E+04  0.78455870314E+02 0.  0.
         24    2    4    4    0    0  0.57284608330E+02 -0.10517232059E+03  0.43600983127E+02  0.15046671270E+03  0.79977762716E+02 0.  0.
         11    1    3    3    0    0  0.31745119435E+01  0.31026745539E+03  0.24780633143E+03  0.39709438336E+03  0.00000000000E+00 0.  1.
        -11    1    3    3    0    0 -0.60155052444E+01  0.13511287135E+03  0.41157680063E+02  0.14137053772E+03  0.00000000000E+00 0. -1.
          2    1    6    6  502    0  0.33728415138E+02  0.10152684697E+01  0.13218624714E+01  0.33769573260E+02  0.00000000000E+00 0. -1.
          1    1    5    5  503    0 -0.26365303550E+02 -0.49388738094E+02 -0.51229646947E+03  0.51534653323E+03  0.00000000000E+00 0. -1.
         -2    1    5    5    0  503 -0.28078311478E+02 -0.29081926805E+03 -0.16666818568E+04  0.16920971160E+04  0.00000000000E+00 0.  1.
         -1    1    6    6    0  502  0.23556193192E+02 -0.10618758906E+03  0.42279120656E+02  0.11669713944E+03  0.00000000000E+00 0.  1.
<mgrwt>
<rscale>  0 0.22315348E+04</rscale>
<asrwt>0</asrwt>
<pdfrwt beam="1">  1        2 0.36482989E+00 0.22315348E+04</pdfrwt>
<pdfrwt beam="2">  1       -2 0.80766305E-01 0.22315348E+04</pdfrwt>
<totfact> 0.50916435E+00</totfact>
</mgrwt>
</event>
<event>
12    1  0.1397649E-007  0.3103480E+04  0.7818608E-02  0.8214783E-01
          2   -1    0    0  501    0  0.00000000000E+00  0.00000000000E+00  0.21426595063E+04  0.21426595063E+04  0.00000000000E+00 0.  1.
         -2   -1    0    0    0  501 -0.00000000000E+00 -0.00000000000E+00 -0.11237890284E+04  0.11237890284E+04  0.00000000000E+00 0. -1.
         23    2    1    2    0    0 -0.18897160536E+03  0.12643828191E+04 -0.18503313393E+03  0.12949325355E+04  0.90767999719E+02 0.  0.
        254    2    1    2    0    0  0.18897160536E+03 -0.12643828191E+04  0.12039036118E+04  0.19715159992E+04  0.89616809125E+03 0.  0.
        -24    2    4    4    0    0 -0.16036531594E+03 -0.11779317663E+04  0.91634708091E+03  0.15029682634E+04  0.77339171834E+02 0.  0.
         24    2    4    4    0    0  0.34933692131E+03 -0.86451052876E+02  0.28755653085E+03  0.46854773584E+03  0.85663021140E+02 0.  0.
         11    1    3    3    0    0 -0.12369092540E+03  0.63282432727E+03 -0.12867312791E+03  0.65751262198E+03  0.00000000000E+00 0.  1.
        -11    1    3    3    0    0 -0.65280679966E+02  0.63155849187E+03 -0.56360006021E+02  0.63741991348E+03  0.00000000000E+00 0. -1.
          4    1    6    6  502    0 -0.50501493940E+01 -0.21181787820E+01  0.26566784127E+01  0.60867586154E+01  0.00000000000E+00 0. -1.
          3    1    5    5  503    0 -0.49615470905E+02 -0.21910002286E+03  0.14460450869E+03  0.26716470370E+03  0.00000000000E+00 0. -1.
         -4    1    5    5    0  503 -0.11074984504E+03 -0.95883174340E+03  0.77174257221E+03  0.12358035597E+04  0.00000000000E+00 0.  1.
         -1    1    6    6    0  502  0.35438707070E+03 -0.84332874094E+02  0.28489985244E+03  0.46246097722E+03  0.00000000000E+00 0.  1.
<mgrwt>
<rscale>  0 0.31034801E+04</rscale>
<asrwt>0</asrwt>
<pdfrwt beam="1">  1        2 0.32963992E+00 0.31034801E+04</pdfrwt>
<pdfrwt beam="2">  1       -2 0.17289062E+00 0.31034801E+04</pdfrwt>
<totfact> 0.95975565E-01</totfact>
</mgrwt>
</event>
<event>
12    1  0.1397649E-007  0.1125535E+04  0.7818608E-02  0.9180655E-01
          3   -1    0    0  501    0  0.00000000000E+00  0.00000000000E+00  0.70016744943E+03  0.70016744943E+03  0.00000000000E+00 0. -1.
         -3   -1    0    0    0  501 -0.00000000000E+00 -0.00000000000E+00 -0.45233077055E+03  0.45233077055E+03  0.00000000000E+00 0.  1.
         23    2    1    2    0    0 -0.16085949683E+02 -0.15633892403E+02 -0.13199834450E+03  0.16145302867E+03  0.90223839141E+02 0.  0.
        254    2    1    2    0    0  0.16085949683E+02  0.15633892403E+02  0.37983502337E+03  0.99104519131E+03  0.91509166200E+03 0.  0.
        -24    2    4    4    0    0  0.13481853693E+03 -0.83120845784E+02  0.64777774305E+03  0.67140671970E+03  0.78011960426E+02 0.  0.
         24    2    4    4    0    0 -0.11873258724E+03  0.98754738187E+02 -0.26794271968E+03  0.31963847161E+03  0.80780727387E+02 0.  0.
         11    1    3    3    0    0  0.30919928525E+01 -0.20939458152E+02 -0.13881502880E+03  0.14041949134E+03  0.00000000000E+00 0.  1.
        -11    1    3    3    0    0 -0.19177942536E+02  0.53055657491E+01  0.68166843046E+01  0.21033537333E+02  0.00000000000E+00 0. -1.
          2    1    6    6  502    0 -0.64476170919E+02  0.13851378717E+02 -0.15405506470E+03  0.16757684885E+03  0.00000000000E+00 0. -1.
          1    1    5    5  503    0  0.87855057460E+02 -0.83456997810E+01  0.32201859229E+03  0.33389240125E+03  0.00000000000E+00 0. -1.
         -2    1    5    5    0  503  0.46963479466E+02 -0.74775146003E+02  0.32575915075E+03  0.33751431846E+03  0.00000000000E+00 0.  1.
         -3    1    6    6    0  502 -0.54256416324E+02  0.84903359470E+02 -0.11388765497E+03  0.15206162276E+03  0.00000000000E+00 0.  1.
<mgrwt>
<rscale>  0 0.11255350E+04</rscale>
<asrwt>0</asrwt>
<pdfrwt beam="1">  1        3 0.10771807E+00 0.11255350E+04</pdfrwt>
<pdfrwt beam="2">  1       -3 0.69589349E-01 0.11255350E+04</pdfrwt>
<totfact> 0.37704589E+00</totfact>
</mgrwt>
</event>
<event>
12    1  0.1397649E-007  0.1894633E+04  0.7818608E-02  0.8657532E-01
          1   -1    0    0  501    0  0.00000000000E+00  0.00000000000E+00  0.84440818828E+03  0.84440818828E+03  0.00000000000E+00 0. -1.
         -1   -1    0    0    0  501 -0.00000000000E+00 -0.00000000000E+00 -0.10627665304E+04  0.10627665304E+04  0.00000000000E+00 0.  1.
         23    2    1    2    0    0  0.54275080771E+03 -0.40853875938E+03  0.23418916964E+03  0.72410198028E+03  0.89424568635E+02 0.  0.
        254    2    1    2    0    0 -0.54275080771E+03  0.40853875938E+03 -0.45254751173E+03  0.11830727384E+04  0.85637579176E+03 0.  0.
        -24    2    4    4    0    0 -0.51082997851E+03  0.15989336905E+03  0.11885809754E+03  0.55396082762E+03  0.78944251041E+02 0.  0.
         24    2    4    4    0    0 -0.31920829207E+02  0.24864539032E+03 -0.57140560927E+03  0.62911191075E+03  0.80211947202E+02 0.  0.
         11    1    3    3    0    0  0.53907373600E+03 -0.39650846331E+03  0.23906058191E+03  0.71061200113E+03  0.00000000000E+00 0. -1.
        -11    1    3    3    0    0  0.36770717125E+01 -0.12030296072E+02 -0.48714122722E+01  0.13489979151E+02  0.00000000000E+00 0.  1.
          2    1    6    6  502    0 -0.50717758741E+02  0.15210020356E+03 -0.29544120508E+03  0.33614322637E+03  0.00000000000E+00 0. -1.
          3    1    5    5  503    0 -0.19253745903E+02 -0.86299726699E+01  0.11193623645E+01  0.21129035276E+02  0.00000000000E+00 0. -1.
         -4    1    5    5    0  503 -0.49157623260E+03  0.16852334172E+03  0.11773873518E+03  0.53283179234E+03  0.00000000000E+00 0.  1.
         -1    1    6    6    0  502  0.18796929534E+02  0.96545186767E+02 -0.27596440419E+03  0.29296868438E+03  0.00000000000E+00 0.  1.
<mgrwt>
<rscale>  0 0.18946332E+04</rscale>
<asrwt>0</asrwt>
<pdfrwt beam="1">  1        1 0.12990895E+00 0.18946332E+04</pdfrwt>
<pdfrwt beam="2">  1       -1 0.16350254E+00 0.18946332E+04</pdfrwt>
<totfact> 0.52118537E+00</totfact>
</mgrwt>
</event>
<event>
12    1  0.1397649E-007  0.2810971E+04  0.7818608E-02  0.8299870E-01
         -2   -1    0    0    0  501 -0.00000000000E+00  0.00000000000E+00  0.13513968747E+04  0.13513968747E+04  0.00000000000E+00 0.  1.
          2   -1    0    0  501    0  0.00000000000E+00 -0.00000000000E+00 -0.14617387725E+04  0.14617387725E+04  0.00000000000E+00 0. -1.
         23    2    1    2    0    0  0.72300605790E+03 -0.24219296627E+03  0.96264067187E+03  0.12312507153E+04  0.88916073940E+02 0.  0.
        254    2    1    2    0    0 -0.72300605790E+03  0.24219296627E+03 -0.10729825696E+04  0.15818849319E+04  0.87731017910E+03 0.  0.
        -24    2    4    4    0    0  0.11691471760E+03  0.28304021066E+03 -0.32176509765E+03  0.45130738099E+03  0.79779458682E+02 0.  0.
         24    2    4    4    0    0 -0.83992077550E+03 -0.40847244393E+02 -0.75121747197E+03  0.11305775509E+04  0.82112739059E+02 0.  0.
         13    1    3    3    0    0  0.40032455881E+03 -0.14146746676E+03  0.60519008599E+03  0.73927521040E+03  0.00000000000E+00 0.  1.
        -13    1    3    3    0    0  0.32268149909E+03 -0.10072549951E+03  0.35745058588E+03  0.49197550493E+03  0.00000000000E+00 0. -1.
          2    1    6    6  502    0 -0.73134474658E+03 -0.63012504588E+02 -0.64879505238E+03  0.97967889335E+03  0.00000000000E+00 0. -1.
          3    1    5    5  503    0  0.85176828838E+02  0.26728211660E+03 -0.27728829381E+03  0.39444089533E+03  0.00000000000E+00 0. -1.
         -4    1    5    5    0  503  0.31737888759E+02  0.15758094061E+02 -0.44476803839E+02  0.56866485658E+02  0.00000000000E+00 0.  1.
         -1    1    6    6    0  502 -0.10857602892E+03  0.22165260195E+02 -0.10242241959E+03  0.15089865755E+03  0.00000000000E+00 0.  1.
<mgrwt>
<rscale>  0 0.28109708E+04</rscale>
<asrwt>0</asrwt>
<pdfrwt beam="1">  1        2 0.22488289E+00 0.28109708E+04</pdfrwt>
<pdfrwt beam="2">  1       -2 0.20790721E+00 0.28109708E+04</pdfrwt>
<totfact> 0.13704090E+00</totfact>
</mgrwt>
</event>
<event>
12    1  0.1397649E-007  0.2039344E+04  0.7818608E-02  0.8588444E-01
         -1   -1    0    0    0  501 -0.00000000000E+00  0.00000000000E+00  0.17937270458E+04  0.17937270458E+04  0.00000000000E+00 0.  1.
          1   -1    0    0  501    0  0.00000000000E+00 -0.00000000000E+00 -0.57964845394E+03  0.57964845394E+03  0.00000000000E+00 0. -1.
         23    2    1    2    0    0  0.64588994940E+03 -0.16061864215E+03 -0.60895755680E+02  0.67543444324E+03  0.97627962737E+02 0.  0.
        254    2    1    2    0    0 -0.64588994940E+03  0.16061864215E+03  0.12749743475E+04  0.16979410565E+04  0.90248106325E+03 0.  0.
        -24    2    4    4    0    0 -0.86575851840E+03  0.90033481181E+02  0.94869583245E+03  0.12900537425E+04  0.81061927615E+02 0.  0.
         24    2    4    4    0    0  0.21986856900E+03  0.70585160972E+02  0.32627851506E+03  0.40788731398E+03  0.81178438828E+02 0.  0.
         11    1    3    3    0    0  0.50976947374E+03 -0.13553677376E+03 -0.86930458446E+02  0.53459520949E+03  0.00000000000E+00 0. -1.
        -11    1    3    3    0    0  0.13612047566E+03 -0.25081868398E+02  0.26034702766E+02  0.14083923375E+03  0.00000000000E+00 0.  1.
          2    1    6    6  502    0  0.25038601235E+02  0.66745105995E+01  0.96524113322E+02  0.99941908608E+02  0.00000000000E+00 0. -1.
          3    1    5    5  503    0 -0.23915059803E+03 -0.11030039645E+02  0.25193042420E+03  0.34753936316E+03  0.00000000000E+00 0. -1.
         -4    1    5    5    0  503 -0.62660792038E+03  0.10106352083E+03  0.69676540826E+03  0.94251437934E+03  0.00000000000E+00 0.  1.
         -1    1    6    6    0  502  0.19482996777E+03  0.63910650372E+02  0.22975440174E+03  0.30794540537E+03  0.00000000000E+00 0.  1.
<mgrwt>
<rscale>  0 0.20393441E+04</rscale>
<asrwt>0</asrwt>
<pdfrwt beam="1">  1        1 0.89176686E-01 0.20393441E+04</pdfrwt>
<pdfrwt beam="2">  1       -1 0.27595800E+00 0.20393441E+04</pdfrwt>
<totfact> 0.15735152E+00</totfact>
</mgrwt>
</event>
<event>
12    1  0.1397649E-007  0.2393060E+04  0.7818608E-02  0.8442106E-01
         -2   -1    0    0    0  501 -0.00000000000E+00  0.00000000000E+00  0.10468765024E+04  0.10468765024E+04  0.00000000000E+00 0.  1.
          2   -1    0    0  501    0  0.00000000000E+00 -0.00000000000E+00 -0.13675766613E+04  0.13675766613E+04  0.00000000000E+00 0. -1.
         23    2    1    2    0    0 -0.95208957417E+03 -0.94575438663E+02  0.26465935892E+03  0.99693801455E+03  0.91770135457E+02 0.  0.
        254    2    1    2    0    0  0.95208957417E+03  0.94575438663E+02 -0.58535951784E+03  0.14175151491E+04  0.86676661338E+03 0.  0.
        -24    2    4    4    0    0  0.14983706317E+03  0.36350516111E+03 -0.35658411944E+03  0.53720176623E+03  0.82742708163E+02 0.  0.
         24    2    4    4    0    0  0.80225251100E+03 -0.26892972244E+03 -0.22877539840E+03  0.88031338291E+03  0.81738498837E+02 0.  0.
         11    1    3    3    0    0 -0.81962568862E+03 -0.62151061243E+02  0.19973582489E+03  0.84589799835E+03  0.00000000000E+00 0.  1.
        -11    1    3    3    0    0 -0.13246388554E+03 -0.32424377419E+02  0.64923534029E+02  0.15104001621E+03  0.00000000000E+00 0. -1.
          4    1    6    6  502    0  0.55526327942E+03 -0.16325267730E+03 -0.12362463965E+03  0.59182074791E+03  0.00000000000E+00 0. -1.
          1    1    5    5  503    0  0.58134969874E+02  0.16393452274E+03 -0.21213270369E+03  0.27432551183E+03  0.00000000000E+00 0. -1.
         -2    1    5    5    0  503  0.91702093294E+02  0.19957063837E+03 -0.14445141575E+03  0.26287625440E+03  0.00000000000E+00 0.  1.
         -3    1    6    6    0  502  0.24698923158E+03 -0.10567704514E+03 -0.10515075875E+03  0.28849263500E+03  0.00000000000E+00 0.  1.
<mgrwt>
<rscale>  0 0.23930599E+04</rscale>
<asrwt>0</asrwt>
<pdfrwt beam="1">  1        2 0.21039641E+00 0.23930599E+04</pdfrwt>
<pdfrwt beam="2">  1       -2 0.16105792E+00 0.23930599E+04</pdfrwt>
<totfact> 0.33627697E+00</totfact>
</mgrwt>
</event>
<event>
12    1  0.1397649E-007  0.1410183E+04  0.7818608E-02  0.8946480E-01
          2   -1    0    0  501    0  0.00000000000E+00  0.00000000000E+00  0.16149161852E+04  0.16149161852E+04  0.00000000000E+00 0. -1.
         -2   -1    0    0    0  501 -0.00000000000E+00 -0.00000000000E+00 -0.30785140930E+03  0.30785140930E+03  0.00000000000E+00 0.  1.
         23    2    1    2    0    0 -0.28471067442E+03 -0.29102958591E+03  0.29279175324E+03  0.50965186367E+03  0.90882470118E+02 0.  0.
        254    2    1    2    0    0  0.28471067442E+03  0.29102958591E+03  0.10142730227E+04  0.14131157308E+04  0.89576108212E+03 0.  0.
        -24    2    4    4    0    0  0.40643626845E+02  0.40656153262E+02  0.10465083160E+04  0.10512948353E+04  0.82075259243E+02 0.  0.
         24    2    4    4    0    0  0.24406704758E+03  0.25037343265E+03 -0.32235293282E+02  0.36182089554E+03  0.87290702973E+02 0.  0.
         13    1    3    3    0    0 -0.21011967489E+01 -0.33652302461E+02  0.13855756850E+02  0.36453730764E+02  0.00000000000E+00 0. -1.
        -13    1    3    3    0    0 -0.28260947767E+03 -0.25737728345E+03  0.27893599639E+03  0.47319813291E+03  0.00000000000E+00 0.  1.
          4    1    6    6  502    0  0.15363954265E+02  0.10994607822E+02 -0.24137239692E+02  0.30651897686E+02  0.00000000000E+00 0. -1.
          3    1    5    5  503    0  0.53331647052E+01  0.14079035565E+02  0.27688296025E+02  0.31516719769E+02  0.00000000000E+00 0. -1.
         -4    1    5    5    0  503  0.35310462140E+02  0.26577117697E+02  0.10188200199E+04  0.10197781155E+04  0.00000000000E+00 0.  1.
         -3    1    6    6    0  502  0.22870309331E+03  0.23937882483E+03 -0.80980535900E+01  0.33116899785E+03  0.00000000000E+00 0.  1.
<mgrwt>
<rscale>  0 0.14101833E+04</rscale>
<asrwt>0</asrwt>
<pdfrwt beam="1">  1        2 0.24844864E+00 0.14101833E+04</pdfrwt>
<pdfrwt beam="2">  1       -2 0.47361756E-01 0.14101833E+04</pdfrwt>
<totfact> 0.44944822E+01</totfact>
</mgrwt>
</event>
<event>
12    1  0.1814647E-007  0.1854664E+04  0.7818608E-02  0.8677758E-01
         -1   -1    0    0    0  501 -0.00000000000E+00  0.00000000000E+00  0.47556095604E+03  0.47556095604E+03  0.00000000000E+00 0.  1.
          1   -1    0    0  501    0  0.00000000000E+00 -0.00000000000E+00 -0.18082747996E+04  0.18082747996E+04  0.00000000000E+00 0. -1.
         23    2    1    2    0    0 -0.66661219516E+03  0.79204640014E+02 -0.76742303218E+03  0.10242311864E+04  0.97294496598E+02 0.  0.
        254    2    1    2    0    0  0.66661219516E+03 -0.79204640014E+02 -0.56529081136E+03  0.12596045693E+04  0.90355120261E+03 0.  0.
        -24    2    4    4    0    0  0.76116621993E+02 -0.31000477997E+03 -0.52392141131E+03  0.61933207036E+03  0.84745881270E+02 0.  0.
         24    2    4    4    0    0  0.59049557317E+03  0.23080013996E+03 -0.41369400047E+02  0.64027249890E+03  0.79269912627E+02 0.  0.
         13    1    3    3    0    0 -0.25763977380E+03  0.42168334316E+02 -0.23040300993E+03  0.34819817410E+03  0.00000000000E+00 0.  1.
        -13    1    3    3    0    0 -0.40897242136E+03  0.37036305698E+02 -0.53702002226E+03  0.67603301227E+03  0.00000000000E+00 0. -1.
          2    1    6    6  502    0  0.48665234805E+03  0.16344356391E+03 -0.52261062204E+02  0.51601891930E+03  0.00000000000E+00 0. -1.
          3    1    5    5  503    0  0.24655616083E+01 -0.18609954349E+03 -0.29790559342E+03  0.35126466044E+03  0.00000000000E+00 0. -1.
         -4    1    5    5    0  503  0.73651060384E+02 -0.12390523648E+03 -0.22601581789E+03  0.26806740991E+03  0.00000000000E+00 0.  1.
         -1    1    6    6    0  502  0.10384322512E+03  0.67356576047E+02  0.10891662157E+02  0.12425357960E+03  0.00000000000E+00 0.  1.
<mgrwt>
<rscale>  0 0.18546643E+04</rscale>
<asrwt>0</asrwt>
<pdfrwt beam="1">  1        1 0.27819612E+00 0.18546643E+04</pdfrwt>
<pdfrwt beam="2">  1       -1 0.73163224E-01 0.18546643E+04</pdfrwt>
<totfact> 0.71115758E+00</totfact>
</mgrwt>
</event>
<event>
12    1  0.1397649E-007  0.2053402E+04  0.7818608E-02  0.8582052E-01
          1   -1    0    0  501    0  0.00000000000E+00  0.00000000000E+00  0.27331189901E+04  0.27331189901E+04  0.00000000000E+00 0. -1.
         -1   -1    0    0    0  501 -0.00000000000E+00 -0.00000000000E+00 -0.38568213176E+03  0.38568213176E+03  0.00000000000E+00 0.  1.
         23    2    1    2    0    0  0.53141687933E+02 -0.80368953232E+03  0.80234174252E+03  0.11404205159E+04  0.89809675837E+02 0.  0.
        254    2    1    2    0    0 -0.53141687933E+02  0.80368953232E+03  0.15450951158E+04  0.19783806060E+04  0.93697918967E+03 0.  0.
        -24    2    4    4    0    0  0.12993539730E+03  0.58663939277E+03  0.15695347889E+04  0.16824932009E+04  0.79466551850E+02 0.  0.
         24    2    4    4    0    0 -0.18307708523E+03  0.21705013955E+03 -0.24439673138E+02  0.29588740505E+03  0.79524063202E+02 0.  0.
         11    1    3    3    0    0 -0.58419762273E+01 -0.15110499817E+03  0.19705990673E+03  0.24839375193E+03  0.00000000000E+00 0. -1.
        -11    1    3    3    0    0  0.58983664161E+02 -0.65258453415E+03  0.60528183579E+03  0.89202676394E+03  0.00000000000E+00 0.  1.
          4    1    6    6  502    0  0.44164987401E+01 -0.91541411876E+00  0.51634192477E+01  0.68559712994E+01  0.00000000000E+00 0. -1.
          1    1    5    5  503    0  0.52251132243E+02  0.20071204336E+03  0.44277694178E+03  0.48894470581E+03  0.00000000000E+00 0. -1.
         -2    1    5    5    0  503  0.77684265053E+02  0.38592734941E+03  0.11267578472E+04  0.11935484951E+04  0.00000000000E+00 0.  1.
         -3    1    6    6    0  502 -0.18749358397E+03  0.21796555367E+03 -0.29603092386E+02  0.28903143375E+03  0.00000000000E+00 0.  1.
<mgrwt>
<rscale>  0 0.20534022E+04</rscale>
<asrwt>0</asrwt>
<pdfrwt beam="1">  1        1 0.42047983E+00 0.20534022E+04</pdfrwt>
<pdfrwt beam="2">  1       -1 0.59335714E-01 0.20534022E+04</pdfrwt>
<totfact> 0.24742282E+00</totfact>
</mgrwt>
</event>
<event>
12    1  0.1397649E-007  0.1358855E+04  0.7818608E-02  0.8984152E-01
          2   -1    0    0  501    0  0.00000000000E+00  0.00000000000E+00  0.65110867236E+03  0.65110867236E+03  0.00000000000E+00 0.  1.
         -2   -1    0    0    0  501 -0.00000000000E+00 -0.00000000000E+00 -0.70897765075E+03  0.70897765075E+03  0.00000000000E+00 0. -1.
         23    2    1    2    0    0 -0.30900154674E+03 -0.19915687370E+03 -0.46245308236E+02  0.38150635079E+03  0.90901325250E+02 0.  0.
        254    2    1    2    0    0  0.30900154674E+03  0.19915687370E+03 -0.11623670161E+02  0.97857997232E+03  0.90682866975E+03 0.  0.
        -24    2    4    4    0    0 -0.16131733753E+03  0.39052184112E+03  0.12307487355E+03  0.44742622153E+03  0.80698249262E+02 0.  0.
         24    2    4    4    0    0  0.47031888427E+03 -0.19136496742E+03 -0.13469854371E+03  0.53115375079E+03  0.78486977530E+02 0.  0.
         13    1    3    3    0    0 -0.29794141196E+02 -0.59266171162E+02 -0.10845832372E+02  0.67214596433E+02  0.00000000000E+00 0. -1.
        -13    1    3    3    0    0 -0.27920740555E+03 -0.13989070254E+03 -0.35399475863E+02  0.31429175436E+03  0.00000000000E+00 0.  1.
          4    1    6    6  502    0  0.14882552907E+03 -0.37053504237E+02 -0.11246210598E+02  0.15378061494E+03  0.00000000000E+00 0. -1.
          1    1    5    5  503    0 -0.10630138552E+03  0.15600861121E+03  0.43348193504E+02  0.19369495919E+03  0.00000000000E+00 0. -1.
         -2    1    5    5    0  503 -0.55015952010E+02  0.23451322991E+03  0.79726680044E+02  0.25373126234E+03  0.00000000000E+00 0.  1.
         -3    1    6    6    0  502  0.32149335520E+03 -0.15431146318E+03 -0.12345233311E+03  0.37737313585E+03  0.00000000000E+00 0.  1.
<mgrwt>
<rscale>  0 0.13588547E+04</rscale>
<asrwt>0</asrwt>
<pdfrwt beam="1">  1        2 0.10017056E+00 0.13588547E+04</pdfrwt>
<pdfrwt beam="2">  1       -2 0.10907349E+00 0.13588547E+04</pdfrwt>
<totfact> 0.29373801E+01</totfact>
</mgrwt>
</event>
<event>
12    1  0.1397649E-007  0.1164831E+04  0.7818608E-02  0.9144209E-01
          1   -1    0    0  501    0  0.00000000000E+00  0.00000000000E+00  0.16779484543E+04  0.16779484543E+04  0.00000000000E+00 0. -1.
         -1   -1    0    0    0  501 -0.00000000000E+00 -0.00000000000E+00 -0.20215628192E+03  0.20215628192E+03  0.00000000000E+00 0.  1.
         23    2    1    2    0    0 -0.26053847629E+02  0.20288714974E+03  0.41197306743E+03  0.46915082837E+03  0.92405048377E+02 0.  0.
        254    2    1    2    0    0  0.26053847629E+02 -0.20288714974E+03  0.10638191050E+04  0.14109539079E+04  0.90401208152E+03 0.  0.
        -24    2    4    4    0    0  0.66809066038E+02  0.33700011963E+03  0.58873028597E+03  0.68623782312E+03  0.79287251942E+02 0.  0.
         24    2    4    4    0    0 -0.40755218410E+02 -0.53988726937E+03  0.47508881903E+03  0.72471608478E+03  0.79779484288E+02 0.  0.
         13    1    3    3    0    0 -0.75156382705E+01  0.21072608704E+02  0.13809149095E+03  0.13989209960E+03  0.00000000000E+00 0. -1.
        -13    1    3    3    0    0 -0.18538209358E+02  0.18181454104E+03  0.27388157647E+03  0.32925872877E+03  0.00000000000E+00 0.  1.
          2    1    6    6  502    0 -0.15551755227E+02 -0.43522849532E+03  0.41428461311E+03  0.60108022833E+03  0.00000000000E+00 0. -1.
          3    1    5    5  503    0  0.37230128949E+02  0.19316648090E+03  0.41129564367E+03  0.45592047371E+03  0.00000000000E+00 0. -1.
         -4    1    5    5    0  503  0.29578937090E+02  0.14383363873E+03  0.17743464230E+03  0.23031734941E+03  0.00000000000E+00 0.  1.
         -1    1    6    6    0  502 -0.25203463183E+02 -0.10465877405E+03  0.60804205920E+02  0.12363585645E+03  0.00000000000E+00 0.  1.
<mgrwt>
<rscale>  0 0.11648310E+04</rscale>
<asrwt>0</asrwt>
<pdfrwt beam="1">  1        1 0.25814591E+00 0.11648310E+04</pdfrwt>
<pdfrwt beam="2">  1       -1 0.31100968E-01 0.11648310E+04</pdfrwt>
<totfact> 0.46895253E+01</totfact>
</mgrwt>
</event>
<event>
12    1  0.1397649E-007  0.2868779E+04  0.7818608E-02  0.8282228E-01
         -1   -1    0    0    0  501 -0.00000000000E+00  0.00000000000E+00  0.87119100291E+03  0.87119100291E+03  0.00000000000E+00 0.  1.
          1   -1    0    0  501    0  0.00000000000E+00 -0.00000000000E+00 -0.23616790890E+04  0.23616790890E+04  0.00000000000E+00 0. -1.
         23    2    1    2    0    0 -0.94953211656E+03  0.76369728307E+03 -0.11442187806E+04  0.16738923774E+04  0.88511540539E+02 0.  0.
        254    2    1    2    0    0  0.94953211656E+03 -0.76369728307E+03 -0.34626930551E+03  0.15589777145E+04  0.90866071874E+03 0.  0.
        -24    2    4    4    0    0  0.74995838607E+03 -0.79202188820E+03  0.63310310499E+02  0.10954909042E+04  0.79723732531E+02 0.  0.
         24    2    4    4    0    0  0.19957373050E+03  0.28324605126E+02 -0.40957961601E+03  0.46348681030E+03  0.80203518094E+02 0.  0.
         11    1    3    3    0    0 -0.39094560084E+03  0.27050488911E+03 -0.48193370303E+03  0.67695749642E+03  0.00000000000E+00 0. -1.
        -11    1    3    3    0    0 -0.55858651573E+03  0.49319239396E+03 -0.66228507758E+03  0.99693488102E+03  0.00000000000E+00 0.  1.
          2    1    6    6  502    0  0.11364988187E+03 -0.23399599247E+02 -0.23705339003E+03  0.26392829825E+03  0.00000000000E+00 0. -1.
          3    1    5    5  503    0  0.75197595637E+03 -0.79100159214E+03  0.63144013915E+02  0.10932239131E+04  0.00000000000E+00 0. -1.
         -4    1    5    5    0  503 -0.20175702990E+01 -0.10202960553E+01  0.16629658339E+00  0.22669910687E+01  0.00000000000E+00 0.  1.
         -1    1    6    6    0  502  0.85923848632E+02  0.51724204374E+02 -0.17252622598E+03  0.19955851205E+03  0.00000000000E+00 0.  1.
<mgrwt>
<rscale>  0 0.28687792E+04</rscale>
<asrwt>0</asrwt>
<pdfrwt beam="1">  1        1 0.36333524E+00 0.28687792E+04</pdfrwt>
<pdfrwt beam="2">  1       -1 0.13402939E+00 0.28687792E+04</pdfrwt>
<totfact> 0.68157807E-01</totfact>
</mgrwt>
</event>
<event>
12    1  0.1397649E-007  0.3821400E+04  0.7818608E-02  0.8041578E-01
         -2   -1    0    0    0  501 -0.00000000000E+00  0.00000000000E+00  0.15594598285E+04  0.15594598285E+04  0.00000000000E+00 0.  1.
          2   -1    0    0  501    0  0.00000000000E+00 -0.00000000000E+00 -0.23410509378E+04  0.23410509378E+04  0.00000000000E+00 0. -1.
         23    2    1    2    0    0  0.18560373014E+03  0.88313793984E+03 -0.19625258296E+04  0.21619090540E+04  0.89228699354E+02 0.  0.
        254    2    1    2    0    0 -0.18560373014E+03 -0.88313793984E+03  0.11809347203E+04  0.17386017123E+04  0.90207967211E+03 0.  0.
        -24    2    4    4    0    0 -0.41342063129E+03 -0.18313221143E+03  0.17895108876E+03  0.49301871207E+03  0.81178402559E+02 0.  0.
         24    2    4    4    0    0  0.22781690115E+03 -0.70000572841E+03  0.10019836316E+04  0.12455830002E+04  0.74814786104E+02 0.  0.
         11    1    3    3    0    0 -0.10046301284E+02  0.47821045882E+02 -0.11057352936E+03  0.12088956115E+03  0.00000000000E+00 0.  1.
        -11    1    3    3    0    0  0.19565003142E+03  0.83531689396E+03 -0.18519523002E+04  0.20410194929E+04  0.00000000000E+00 0. -1.
          2    1    6    6  502    0  0.19525166174E+02 -0.38082923866E+02  0.89611006147E+02  0.99305959675E+02  0.00000000000E+00 0. -1.
          3    1    5    5  503    0 -0.25514001874E+02  0.34220881461E+01 -0.25777603680E+01  0.25871216195E+02  0.00000000000E+00 0. -1.
         -4    1    5    5    0  503 -0.38790662942E+03 -0.18655429957E+03  0.18152884913E+03  0.46714749588E+03  0.00000000000E+00 0.  1.
         -1    1    6    6    0  502  0.20829173498E+03 -0.66192280455E+03  0.91237262542E+03  0.11462770405E+04  0.00000000000E+00 0.  1.
<mgrwt>
<rscale>  0 0.38214002E+04</rscale>
<asrwt>0</asrwt>
<pdfrwt beam="1">  1        2 0.36016168E+00 0.38214002E+04</pdfrwt>
<pdfrwt beam="2">  1       -2 0.23991690E+00 0.38214002E+04</pdfrwt>
<totfact> 0.25504249E-01</totfact>
</mgrwt>
</event>
<event>
12    1  0.1397649E-007  0.1561210E+04  0.7818608E-02  0.8844739E-01
         -2   -1    0    0    0  501 -0.00000000000E+00  0.00000000000E+00  0.49089987480E+03  0.49089987480E+03  0.00000000000E+00 0.  1.
          2   -1    0    0  501    0  0.00000000000E+00 -0.00000000000E+00 -0.12412806451E+04  0.12412806451E+04  0.00000000000E+00 0. -1.
         23    2    1    2    0    0  0.21055071221E+02  0.24797901375E+03 -0.74491770818E+03  0.79055682236E+03  0.90226327255E+02 0.  0.
        254    2    1    2    0    0 -0.21055071221E+02 -0.24797901375E+03 -0.54630621081E+01  0.94162369753E+03  0.90812357938E+03 0.  0.
        -24    2    4    4    0    0 -0.11953563193E+02  0.15096192116E+03 -0.36206963915E+03  0.40057132518E+03  0.80190857643E+02 0.  0.
         24    2    4    4    0    0 -0.91015080284E+01 -0.39894093490E+03  0.35660657704E+03  0.54105237235E+03  0.79578337828E+02 0.  0.
         13    1    3    3    0    0 -0.51605092601E+01  0.25440351613E+02 -0.23066227605E+02  0.34725973017E+02  0.00000000000E+00 0.  1.
        -13    1    3    3    0    0  0.26215580481E+02  0.22253866213E+03 -0.72185148058E+03  0.75583084934E+03  0.00000000000E+00 0. -1.
          4    1    6    6  502    0  0.21307100917E+02 -0.31339586340E+03  0.25332702967E+03  0.40354125403E+03  0.00000000000E+00 0. -1.
          3    1    5    5  503    0 -0.38875025248E+02  0.11652433040E+03 -0.30406732598E+03  0.32794225999E+03  0.00000000000E+00 0. -1.
         -4    1    5    5    0  503  0.26921462055E+02  0.34437590757E+02 -0.58002313174E+02  0.72629065186E+02  0.00000000000E+00 0.  1.
         -3    1    6    6    0  502 -0.30408608946E+02 -0.85545071504E+02  0.10327954737E+03  0.13751111832E+03  0.00000000000E+00 0.  1.
<mgrwt>
<rscale>  0 0.15612104E+04</rscale>
<asrwt>0</asrwt>
<pdfrwt beam="1">  1        2 0.19096625E+00 0.15612104E+04</pdfrwt>
<pdfrwt beam="2">  1       -2 0.75523058E-01 0.15612104E+04</pdfrwt>
<totfact> 0.27069628E+01</totfact>
</mgrwt>
</event>
<event>
12    1  0.1397649E-007  0.3309362E+04  0.7818608E-02  0.8160517E-01
          2   -1    0    0  501    0  0.00000000000E+00  0.00000000000E+00  0.23747945516E+04  0.23747945516E+04  0.00000000000E+00 0. -1.
         -2   -1    0    0    0  501 -0.00000000000E+00 -0.00000000000E+00 -0.11529290836E+04  0.11529290836E+04  0.00000000000E+00 0.  1.
         23    2    1    2    0    0 -0.14179788093E+04  0.35248704743E+03  0.10440842639E+04  0.17988838563E+04  0.10469076399E+03 0.  0.
        254    2    1    2    0    0  0.14179788093E+04 -0.35248704743E+03  0.17778120412E+03  0.17288397790E+04  0.90684607435E+03 0.  0.
        -24    2    4    4    0    0  0.10033035479E+04  0.18244422243E+03  0.21895684015E+03  0.10460925442E+04  0.80396576746E+02 0.  0.
         24    2    4    4    0    0  0.41467526135E+03 -0.53493126986E+03 -0.41175636036E+02  0.68274723476E+03  0.79632391211E+02 0.  0.
         11    1    3    3    0    0 -0.40905289226E+02  0.42036217763E+01  0.52004238687E+02  0.66297465744E+02  0.00000000000E+00 0.  1.
        -11    1    3    3    0    0 -0.13770735201E+04  0.34828342565E+03  0.99208002519E+03  0.17325863905E+04  0.00000000000E+00 0. -1.
          4    1    6    6  502    0  0.28609401825E+03 -0.31366228011E+03 -0.44016563117E+02  0.42681526575E+03  0.00000000000E+00 0. -1.
          3    1    5    5  503    0  0.86712300256E+03  0.13135271458E+03  0.17681858006E+03  0.89466230917E+03  0.00000000000E+00 0. -1.
         -4    1    5    5    0  503  0.13618054538E+03  0.51091507849E+02  0.42138260094E+02  0.15143023502E+03  0.00000000000E+00 0.  1.
         -3    1    6    6    0  502  0.12858124309E+03 -0.22126898974E+03  0.28409270809E+01  0.25593196902E+03  0.00000000000E+00 0.  1.
<mgrwt>
<rscale>  0 0.33093623E+04</rscale>
<asrwt>0</asrwt>
<pdfrwt beam="1">  1        2 0.36535301E+00 0.33093623E+04</pdfrwt>
<pdfrwt beam="2">  1       -2 0.17737371E+00 0.33093623E+04</pdfrwt>
<totfact> 0.64857220E-01</totfact>
</mgrwt>
</event>
<event>
12    1  0.1397649E-007  0.2695529E+04  0.7818608E-02  0.8336457E-01
         -2   -1    0    0    0  501 -0.00000000000E+00  0.00000000000E+00  0.65072809992E+03  0.65072809992E+03  0.00000000000E+00 0.  1.
          2   -1    0    0  501    0  0.00000000000E+00 -0.00000000000E+00 -0.27914415265E+04  0.27914415265E+04  0.00000000000E+00 0. -1.
         23    2    1    2    0    0 -0.11129944360E+02 -0.59909288905E+02 -0.24892999099E+04  0.24916997092E+04  0.90776653380E+02 0.  0.
        254    2    1    2    0    0  0.11129944360E+02  0.59909288905E+02  0.34858648335E+03  0.95046991721E+03  0.88213804396E+03 0.  0.
        -24    2    4    4    0    0  0.39220789487E+03  0.18495279703E+03  0.48924427017E+02  0.44354671591E+03  0.79407302601E+02 0.  0.
         24    2    4    4    0    0 -0.38107795051E+03 -0.12504350813E+03  0.29966205633E+03  0.50692320130E+03  0.79482707110E+02 0.  0.
         13    1    3    3    0    0 -0.38040146004E+02 -0.30726577496E+02 -0.20569777713E+04  0.20575589243E+04  0.00000000000E+00 0. -1.
        -13    1    3    3    0    0  0.26910201644E+02 -0.29182711409E+02 -0.43232213858E+03  0.43414078489E+03  0.00000000000E+00 0.  1.
          2    1    6    6  502    0 -0.21314273591E+03 -0.10740483606E+03  0.19549794419E+03  0.30852077866E+03  0.00000000000E+00 0. -1.
          3    1    5    5  503    0  0.34293779675E+03  0.18073839590E+03  0.24579095287E+02  0.38842867057E+03  0.00000000000E+00 0. -1.
         -4    1    5    5    0  503  0.49270098114E+02  0.42144011371E+01  0.24345331730E+02  0.55118045341E+02  0.00000000000E+00 0.  1.
         -1    1    6    6    0  502 -0.16793521460E+03 -0.17638672065E+02  0.10416411214E+03  0.19840242265E+03  0.00000000000E+00 0.  1.
<mgrwt>
<rscale>  0 0.26955292E+04</rscale>
<asrwt>0</asrwt>
<pdfrwt beam="1">  1        2 0.42945253E+00 0.26955292E+04</pdfrwt>
<pdfrwt beam="2">  1       -2 0.10011202E+00 0.26955292E+04</pdfrwt>
<totfact> 0.16914124E+00</totfact>
</mgrwt>
</event>
<event>
12    1  0.2104209E-007  0.2378018E+04  0.7818608E-02  0.8447780E-01
          2   -1    0    0  501    0  0.00000000000E+00  0.00000000000E+00  0.25493686453E+04  0.25493686453E+04  0.00000000000E+00 0. -1.
         -2   -1    0    0    0  501 -0.00000000000E+00 -0.00000000000E+00 -0.55454593069E+03  0.55454593069E+03  0.00000000000E+00 0.  1.
         23    2    1    2    0    0  0.84716158335E+03  0.53931793850E+03  0.10325400813E+04  0.14432272069E+04  0.90659606941E+02 0.  0.
        254    2    1    2    0    0 -0.84716158335E+03 -0.53931793850E+03  0.96228263330E+03  0.16606873690E+04  0.90738530082E+03 0.  0.
        -24    2    4    4    0    0 -0.12059992608E+03 -0.51094554808E+03  0.70948278926E+03  0.88619217119E+03  0.79756133003E+02 0.  0.
         24    2    4    4    0    0 -0.72656165727E+03 -0.28372390422E+02  0.25279984403E+03  0.77449519781E+03  0.85077705301E+02 0.  0.
         13    1    3    3    0    0  0.74908551242E+01  0.28622367094E+01  0.24769338808E+02  0.26035081226E+02  0.00000000000E+00 0.  1.
        -13    1    3    3    0    0  0.83967072822E+03  0.53645570179E+03  0.10077707425E+04  0.14171921257E+04  0.00000000000E+00 0. -1.
          2    1    6    6  502    0  0.10144973044E+01  0.36008249909E+01  0.19998851611E+01  0.42420143863E+01  0.00000000000E+00 0. -1.
          1    1    5    5  503    0 -0.16746992410E+02 -0.44480440735E+02  0.32690405003E+02  0.57685647625E+02  0.00000000000E+00 0. -1.
         -2    1    5    5    0  503 -0.10385293367E+03 -0.46646510734E+03  0.67679238426E+03  0.82850652357E+03  0.00000000000E+00 0.  1.
         -1    1    6    6    0  502 -0.72757615457E+03 -0.31973215413E+02  0.25079995887E+03  0.77025318343E+03  0.00000000000E+00 0.  1.
<mgrwt>
<rscale>  0 0.23780177E+04</rscale>
<asrwt>0</asrwt>
<pdfrwt beam="1">  1        2 0.39221055E+00 0.23780177E+04</pdfrwt>
<pdfrwt beam="2">  1       -2 0.85314760E-01 0.23780177E+04</pdfrwt>
<totfact> 0.35067731E+00</totfact>
</mgrwt>
</event>
<event>
12    1  0.1397649E-007  0.1302599E+04  0.7818608E-02  0.9027507E-01
          1   -1    0    0  501    0  0.00000000000E+00  0.00000000000E+00  0.76743699490E+03  0.76743699490E+03  0.00000000000E+00 0. -1.
         -1   -1    0    0    0  501 -0.00000000000E+00 -0.00000000000E+00 -0.55273731619E+03  0.55273731619E+03  0.00000000000E+00 0.  1.
         23    2    1    2    0    0  0.13701331712E+02  0.10283220352E+03 -0.26150787887E+03  0.29684638174E+03  0.94705939978E+02 0.  0.
        254    2    1    2    0    0 -0.13701331712E+02 -0.10283220352E+03  0.47620755758E+03  0.10233279294E+04  0.89981343874E+03 0.  0.
        -24    2    4    4    0    0 -0.10778312862E+03 -0.27093946892E+03 -0.16743609634E+03  0.34634263142E+03  0.83023932390E+02 0.  0.
         24    2    4    4    0    0  0.94081796912E+02  0.16810726540E+03  0.64364365392E+03  0.67698529794E+03  0.83189561845E+02 0.  0.
         13    1    3    3    0    0  0.46254530361E+01  0.49164689107E+02 -0.22720450188E+03  0.23250902595E+03  0.00000000000E+00 0.  1.
        -13    1    3    3    0    0  0.90758786760E+01  0.53667514415E+02 -0.34303376986E+02  0.64337355789E+02  0.00000000000E+00 0. -1.
          2    1    6    6  502    0  0.78119725813E+02  0.17511634203E+03  0.57347148624E+03  0.60468005618E+03  0.00000000000E+00 0. -1.
          1    1    5    5  503    0 -0.22531078685E+02 -0.15143010420E+03 -0.11084693967E+03  0.18901261863E+03  0.00000000000E+00 0. -1.
         -2    1    5    5    0  503 -0.85252049940E+02 -0.11950936472E+03 -0.56589156662E+02  0.15733001279E+03  0.00000000000E+00 0.  1.
         -1    1    6    6    0  502  0.15962071100E+02 -0.70090766318E+01  0.70172167679E+02  0.72305241759E+02  0.00000000000E+00 0.  1.
<mgrwt>
<rscale>  0 0.13025990E+04</rscale>
<asrwt>0</asrwt>
<pdfrwt beam="1">  1        1 0.11806723E+00 0.13025990E+04</pdfrwt>
<pdfrwt beam="2">  1       -1 0.85036510E-01 0.13025990E+04</pdfrwt>
<totfact> 0.31756670E+01</totfact>
</mgrwt>
</event>
<event>
12    1  0.1397649E-007  0.1583165E+04  0.7818608E-02  0.8830958E-01
          2   -1    0    0  501    0  0.00000000000E+00  0.00000000000E+00  0.16746732484E+04  0.16746732484E+04  0.00000000000E+00 0. -1.
         -2   -1    0    0    0  501 -0.00000000000E+00 -0.00000000000E+00 -0.37416401955E+03  0.37416401955E+03  0.00000000000E+00 0.  1.
         23    2    1    2    0    0  0.19943228342E+03 -0.46535487670E+03  0.59845807862E+03  0.78960201921E+03  0.94820250659E+02 0.  0.
        254    2    1    2    0    0 -0.19943228342E+03  0.46535487670E+03  0.70205115023E+03  0.12592352487E+04  0.91458689975E+03 0.  0.
        -24    2    4    4    0    0  0.36032110352E+03  0.15299129641E+03  0.26090893708E+03  0.47718878484E+03  0.79987677243E+02 0.  0.
         24    2    4    4    0    0 -0.55975338694E+03  0.31236358029E+03  0.44114221315E+03  0.78204646390E+03  0.78072780173E+02 0.  0.
         13    1    3    3    0    0  0.17042857955E+03 -0.38811075648E+03  0.44008316858E+03  0.61102295807E+03  0.00000000000E+00 0.  1.
        -13    1    3    3    0    0  0.29003703870E+02 -0.77244120220E+02  0.15837491004E+03  0.17857906114E+03  0.00000000000E+00 0. -1.
          2    1    6    6  502    0 -0.40806473125E+03  0.20901472783E+03  0.35185340900E+03  0.57793148622E+03  0.00000000000E+00 0. -1.
          3    1    5    5  503    0  0.33162589602E+03  0.15006811956E+03  0.26173738797E+03  0.44833317486E+03  0.00000000000E+00 0. -1.
         -4    1    5    5    0  503  0.28695207498E+02  0.29231768542E+01 -0.82845089502E+00  0.28855609977E+02  0.00000000000E+00 0.  1.
         -1    1    6    6    0  502 -0.15168865569E+03  0.10334885246E+03  0.89288804153E+02  0.20411497768E+03  0.00000000000E+00 0.  1.
<mgrwt>
<rscale>  0 0.15831645E+04</rscale>
<asrwt>0</asrwt>
<pdfrwt beam="1">  1        2 0.25764203E+00 0.15831645E+04</pdfrwt>
<pdfrwt beam="2">  1       -2 0.57563696E-01 0.15831645E+04</pdfrwt>
<totfact> 0.27489997E+01</totfact>
</mgrwt>
</event>
<event>
12    1  0.1397649E-007  0.1896072E+04  0.7818608E-02  0.8656814E-01
          2   -1    0    0  501    0  0.00000000000E+00  0.00000000000E+00  0.26404117067E+04  0.26404117067E+04  0.00000000000E+00 0. -1.
         -2   -1    0    0    0  501 -0.00000000000E+00 -0.00000000000E+00 -0.34039112653E+03  0.34039112653E+03  0.00000000000E+00 0.  1.
         23    2    1    2    0    0 -0.53348746783E+02 -0.53654526307E+03  0.11905590270E+03  0.55986259951E+03  0.92438705385E+02 0.  0.
        254    2    1    2    0    0  0.53348746783E+02  0.53654526307E+03  0.21809646775E+04  0.24209402337E+04  0.90200764007E+03 0.  0.
        -24    2    4    4    0    0 -0.39162505749E+03  0.24377470861E+03  0.13663499741E+04  0.14443447931E+04  0.80145713101E+02 0.  0.
         24    2    4    4    0    0  0.44497380427E+03  0.29277055446E+03  0.81461470333E+03  0.97659544061E+03  0.80157692655E+02 0.  0.
         11    1    3    3    0    0  0.17473774837E+02 -0.16144816146E+03  0.62349011554E+02  0.17394896058E+03  0.00000000000E+00 0. -1.
        -11    1    3    3    0    0 -0.70822521621E+02 -0.37509710161E+03  0.56706891144E+02  0.38591363893E+03  0.00000000000E+00 0.  1.
          4    1    6    6  502    0  0.16103714603E+03  0.11226987153E+03  0.23298740533E+03  0.30466476249E+03  0.00000000000E+00 0. -1.
          1    1    5    5  503    0 -0.10423947165E+03  0.10389641331E+03  0.48448200706E+03  0.50634291474E+03  0.00000000000E+00 0. -1.
         -2    1    5    5    0  503 -0.28738558584E+03  0.13987829530E+03  0.88186796709E+03  0.93800187837E+03  0.00000000000E+00 0.  1.
         -3    1    6    6    0  502  0.28393665824E+03  0.18050068293E+03  0.58162729800E+03  0.67193067813E+03  0.00000000000E+00 0.  1.
<mgrwt>
<rscale>  0 0.18960725E+04</rscale>
<asrwt>0</asrwt>
<pdfrwt beam="1">  1        2 0.40621717E+00 0.18960725E+04</pdfrwt>
<pdfrwt beam="2">  1       -2 0.52367867E-01 0.18960725E+04</pdfrwt>
<totfact> 0.93005623E+00</totfact>
</mgrwt>
</event>
<event>
12    1  0.1397649E-007  0.1155486E+04  0.7818608E-02  0.9152737E-01
          1   -1    0    0  501    0  0.00000000000E+00  0.00000000000E+00  0.95091359920E+03  0.95091359920E+03  0.00000000000E+00 0. -1.
         -1   -1    0    0    0  501 -0.00000000000E+00 -0.00000000000E+00 -0.35101720932E+03  0.35101720932E+03  0.00000000000E+00 0.  1.
         23    2    1    2    0    0 -0.10267283393E+03  0.93277080476E+02 -0.54340447857E+02  0.17526972044E+03  0.92326951977E+02 0.  0.
        254    2    1    2    0    0  0.10267283393E+03 -0.93277080476E+02  0.65423683774E+03  0.11266610881E+04  0.90669567275E+03 0.  0.
        -24    2    4    4    0    0  0.15766749033E+03 -0.45138358155E+03  0.16440734604E+03  0.51208683057E+03  0.81221742206E+02 0.  0.
         24    2    4    4    0    0 -0.54994656399E+02  0.35810650108E+03  0.48982949170E+03  0.61457425752E+03  0.80646814725E+02 0.  0.
         11    1    3    3    0    0 -0.57901389710E+02  0.71826364388E+02  0.11323919665E+02  0.92950678901E+02  0.00000000000E+00 0. -1.
        -11    1    3    3    0    0 -0.44771444216E+02  0.21450716089E+02 -0.65664367523E+02  0.82319041540E+02  0.00000000000E+00 0.  1.
          4    1    6    6  502    0 -0.45220677778E+02  0.25332105994E+03  0.40295124447E+03  0.47810686518E+03  0.00000000000E+00 0. -1.
          1    1    5    5  503    0  0.13255787218E+03 -0.33145691950E+03  0.87928295213E+02  0.36765019252E+03  0.00000000000E+00 0. -1.
         -2    1    5    5    0  503  0.25109618143E+02 -0.11992666205E+03  0.76479050826E+02  0.14443663804E+03  0.00000000000E+00 0.  1.
         -3    1    6    6    0  502 -0.97739786215E+01  0.10478544113E+03  0.86878247224E+02  0.13646739234E+03  0.00000000000E+00 0.  1.
<mgrwt>
<rscale>  0 0.11554861E+04</rscale>
<asrwt>0</asrwt>
<pdfrwt beam="1">  1        1 0.14629440E+00 0.11554861E+04</pdfrwt>
<pdfrwt beam="2">  1       -1 0.54002648E-01 0.11554861E+04</pdfrwt>
<totfact> 0.56860158E+01</totfact>
</mgrwt>
</event>
<event>
12    1  0.1397649E-007  0.3042862E+04  0.7818608E-02  0.8231596E-01
          1   -1    0    0  501    0  0.00000000000E+00  0.00000000000E+00  0.37037567692E+04  0.37037567692E+04  0.00000000000E+00 0. -1.
         -1   -1    0    0    0  501 -0.00000000000E+00 -0.00000000000E+00 -0.62497422754E+03  0.62497422754E+03  0.00000000000E+00 0.  1.
         23    2    1    2    0    0 -0.50967592593E+03  0.90892229594E+03  0.27045776802E+04  0.28996244843E+04  0.84690212130E+02 0.  0.
        254    2    1    2    0    0  0.50967592593E+03 -0.90892229594E+03  0.37420486145E+03  0.14291065125E+04  0.90355235380E+03 0.  0.
        -24    2    4    4    0    0 -0.64594754080E+02 -0.26080246507E+03  0.47721293383E+03  0.55339595056E+03  0.79526636027E+02 0.  0.
         24    2    4    4    0    0  0.57427068001E+03 -0.64811983088E+03 -0.10300807238E+03  0.87571056189E+03  0.80076189614E+02 0.  0.
         13    1    3    3    0    0 -0.94982066421E+02  0.18341840144E+03  0.44930484237E+03  0.49450858871E+03  0.00000000000E+00 0.  1.
        -13    1    3    3    0    0 -0.41469385951E+03  0.72550389450E+03  0.22552728378E+04  0.24051158955E+04  0.00000000000E+00 0. -1.
          4    1    6    6  502    0  0.38402007176E+02 -0.55760837863E+02 -0.28524464793E+02  0.73468566653E+02  0.00000000000E+00 0. -1.
          3    1    5    5  503    0  0.58816499359E+01 -0.51773416184E+02  0.14981823198E+03  0.15862087840E+03  0.00000000000E+00 0. -1.
         -4    1    5    5    0  503 -0.70476404016E+02 -0.20902904888E+03  0.32739470185E+03  0.39477507216E+03  0.00000000000E+00 0.  1.
         -3    1    6    6    0  502  0.53586867284E+03 -0.59235899301E+03 -0.74483607584E+02  0.80224199524E+03  0.00000000000E+00 0.  1.
<mgrwt>
<rscale>  0 0.30428622E+04</rscale>
<asrwt>0</asrwt>
<pdfrwt beam="1">  1        1 0.56980872E+00 0.30428622E+04</pdfrwt>
<pdfrwt beam="2">  1       -1 0.96149883E-01 0.30428622E+04</pdfrwt>
<totfact> 0.15123183E-01</totfact>
</mgrwt>
</event>
<event>
12    1  0.1397649E-007  0.1710913E+04  0.7818608E-02  0.8755165E-01
         -2   -1    0    0    0  501 -0.00000000000E+00  0.00000000000E+00  0.25023245554E+03  0.25023245554E+03  0.00000000000E+00 0. -1.
          2   -1    0    0  501    0  0.00000000000E+00 -0.00000000000E+00 -0.29245041239E+04  0.29245041239E+04  0.00000000000E+00 0.  1.
         23    2    1    2    0    0  0.16599652633E+03 -0.47321969793E+03 -0.16203543093E+04  0.16992568657E+04  0.10214733907E+03 0.  0.
        254    2    1    2    0    0 -0.16599652633E+03  0.47321969793E+03 -0.10539173590E+04  0.14754797137E+04  0.90266652564E+03 0.  0.
        -24    2    4    4    0    0 -0.39986774102E+03 -0.86627064730E+02 -0.37632945721E+03  0.56235481764E+03  0.84974242649E+02 0.  0.
         24    2    4    4    0    0  0.23387121468E+03  0.55984676266E+03 -0.67758790184E+03  0.91312489603E+03  0.80917045893E+02 0.  0.
         11    1    3    3    0    0  0.14000331376E+03 -0.25732870068E+03 -0.86752392222E+03  0.91565099447E+03  0.00000000000E+00 0. -1.
        -11    1    3    3    0    0  0.25993212577E+02 -0.21589099725E+03 -0.75283038705E+03  0.78360587125E+03  0.00000000000E+00 0.  1.
          2    1    6    6  502    0  0.54281964763E+02  0.70223288761E+02 -0.75051589213E+02  0.11623503356E+03  0.00000000000E+00 0. -1.
          3    1    5    5  503    0 -0.29384227022E+03 -0.52055310286E+02 -0.22194095131E+03  0.37190162807E+03  0.00000000000E+00 0. -1.
         -2    1    5    5    0  503 -0.10602547080E+03 -0.34571754444E+02 -0.15438850590E+03  0.19045318957E+03  0.00000000000E+00 0.  1.
         -1    1    6    6    0  502  0.17958924992E+03  0.48962347390E+03 -0.60253631263E+03  0.79688986247E+03  0.00000000000E+00 0.  1.
<mgrwt>
<rscale>  0 0.17109130E+04</rscale>
<asrwt>0</asrwt>
<pdfrwt beam="1">  1        2 0.44992371E+00 0.17109130E+04</pdfrwt>
<pdfrwt beam="2">  1       -2 0.38497301E-01 0.17109130E+04</pdfrwt>
<totfact> 0.11806464E+01</totfact>
</mgrwt>
</event>
<event>
12    1  0.1397649E-007  0.1468058E+04  0.7818608E-02  0.8905976E-01
         -1   -1    0    0    0  501 -0.00000000000E+00  0.00000000000E+00  0.30929709242E+03  0.30929709242E+03  0.00000000000E+00 0.  1.
          1   -1    0    0  501    0  0.00000000000E+00 -0.00000000000E+00 -0.17420090345E+04  0.17420090345E+04  0.00000000000E+00 0. -1.
         23    2    1    2    0    0  0.92838409381E+02 -0.30818377462E+03 -0.86875485554E+01  0.33552385569E+03  0.94364055887E+02 0.  0.
        254    2    1    2    0    0 -0.92838409381E+02  0.30818377462E+03 -0.14240243935E+04  0.17157822712E+04  0.90136957996E+03 0.  0.
        -24    2    4    4    0    0 -0.32329920778E+03  0.52473789921E+03 -0.10428909810E+04  0.12142113564E+04  0.82555309482E+02 0.  0.
         24    2    4    4    0    0  0.23046079840E+03 -0.21655412458E+03 -0.38113341247E+03  0.50157091478E+03  0.79390402292E+02 0.  0.
         13    1    3    3    0    0  0.31306110368E+02 -0.13434824243E+03 -0.49675289516E+02  0.14661908872E+03  0.00000000000E+00 0. -1.
        -13    1    3    3    0    0  0.61532299012E+02 -0.17383553219E+03  0.40987740961E+02  0.18890476697E+03  0.00000000000E+00 0.  1.
          4    1    6    6  502    0  0.55597326945E+02 -0.21635667215E+02 -0.10672952690E+03  0.12227165155E+03  0.00000000000E+00 0. -1.
          3    1    5    5  503    0 -0.25653797905E+03  0.35288476051E+03 -0.69784618299E+03  0.82299980803E+03  0.00000000000E+00 0. -1.
         -2    1    5    5    0  503 -0.66761228736E+02  0.17185313869E+03 -0.34504479805E+03  0.39121154840E+03  0.00000000000E+00 0.  1.
         -1    1    6    6    0  502  0.17486347146E+03 -0.19491845737E+03 -0.27440388557E+03  0.37929926324E+03  0.00000000000E+00 0.  1.
<mgrwt>
<rscale>  0 0.14680577E+04</rscale>
<asrwt>0</asrwt>
<pdfrwt beam="1">  1        1 0.26800139E+00 0.14680577E+04</pdfrwt>
<pdfrwt beam="2">  1       -1 0.47584168E-01 0.14680577E+04</pdfrwt>
<totfact> 0.19083013E+01</totfact>
</mgrwt>
</event>
<event>
12    1  0.1397649E-007  0.1123740E+04  0.7818608E-02  0.9182357E-01
         -2   -1    0    0    0  501 -0.00000000000E+00  0.00000000000E+00  0.52918395560E+03  0.52918395560E+03  0.00000000000E+00 0.  1.
          2   -1    0    0  501    0  0.00000000000E+00 -0.00000000000E+00 -0.59657532943E+03  0.59657532943E+03  0.00000000000E+00 0. -1.
         23    2    1    2    0    0 -0.57847818897E+02  0.11267419162E+03 -0.15691324025E+03  0.22028057875E+03  0.88656216938E+02 0.  0.
        254    2    1    2    0    0  0.57847818897E+02 -0.11267419162E+03  0.89521866420E+02  0.90547870628E+03  0.89209622763E+03 0.  0.
        -24    2    4    4    0    0  0.34206725751E+03 -0.25335130249E+03  0.29054128938E+03  0.52161817408E+03  0.80463579061E+02 0.  0.
         24    2    4    4    0    0 -0.28421943862E+03  0.14067711087E+03 -0.20101942296E+03  0.38386053220E+03  0.79808276291E+02 0.  0.
         13    1    3    3    0    0 -0.76993824350E-01  0.87891042187E+02 -0.11494184226E+03  0.14469439632E+03  0.00000000000E+00 0. -1.
        -13    1    3    3    0    0 -0.57770825073E+02  0.24783149432E+02 -0.41971397991E+02  0.75586182432E+02  0.00000000000E+00 0.  1.
          2    1    6    6  502    0 -0.12513253691E+03  0.20131291151E+02 -0.90187205389E+02  0.15555434000E+03  0.00000000000E+00 0. -1.
          1    1    5    5  503    0  0.21474602158E+01  0.55047279340E+01  0.48206556057E+01  0.76257678613E+01  0.00000000000E+00 0. -1.
         -2    1    5    5    0  503  0.33991979730E+03 -0.25885603042E+03  0.28572063378E+03  0.51399240621E+03  0.00000000000E+00 0.  1.
         -1    1    6    6    0  502 -0.15908690171E+03  0.12054581971E+03 -0.11083221758E+03  0.22830619220E+03  0.00000000000E+00 0.  1.
<mgrwt>
<rscale>  0 0.11237403E+04</rscale>
<asrwt>0</asrwt>
<pdfrwt beam="1">  1        2 0.91780819E-01 0.11237403E+04</pdfrwt>
<pdfrwt beam="2">  1       -2 0.81412917E-01 0.11237403E+04</pdfrwt>
<totfact> 0.65833057E+01</totfact>
</mgrwt>
</event>
<event>
12    1  0.1397649E-007  0.1094933E+04  0.7818608E-02  0.9210144E-01
          1   -1    0    0  501    0  0.00000000000E+00  0.00000000000E+00  0.13017575336E+04  0.13017575336E+04  0.00000000000E+00 0. -1.
         -1   -1    0    0    0  501 -0.00000000000E+00 -0.00000000000E+00 -0.23024228713E+03  0.23024228713E+03  0.00000000000E+00 0.  1.
         23    2    1    2    0    0 -0.29675516221E+02 -0.13656774521E+03  0.31139242218E+03  0.35284935026E+03  0.89476466684E+02 0.  0.
        254    2    1    2    0    0  0.29675516221E+02  0.13656774521E+03  0.76012282432E+03  0.11791504705E+04  0.89054912201E+03 0.  0.
        -24    2    4    4    0    0  0.18247550604E+03  0.34886979291E+03  0.34451948472E+02  0.40341385367E+03  0.80921924550E+02 0.  0.
         24    2    4    4    0    0 -0.15279998982E+03 -0.21230204770E+03  0.72567087585E+03  0.77573661682E+03  0.82152798346E+02 0.  0.
         11    1    3    3    0    0  0.28644009269E+02 -0.27370318983E+02  0.51471264824E+02  0.64953096391E+02  0.00000000000E+00 0.  1.
        -11    1    3    3    0    0 -0.58319525490E+02 -0.10919742623E+03  0.25992115736E+03  0.28789625387E+03  0.00000000000E+00 0. -1.
          4    1    6    6  502    0 -0.15211505600E+03 -0.19142132865E+03  0.70561737501E+03  0.74677774152E+03  0.00000000000E+00 0. -1.
          1    1    5    5  503    0  0.17771541600E+03  0.27454322115E+03  0.20877899344E+02  0.32770815681E+03  0.00000000000E+00 0. -1.
         -2    1    5    5    0  503  0.47600900398E+01  0.74326571763E+02  0.13574049128E+02  0.75705696860E+02  0.00000000000E+00 0.  1.
         -3    1    6    6    0  502 -0.68493381950E+00 -0.20880719055E+02  0.20053500844E+02  0.28958875300E+02  0.00000000000E+00 0.  1.
<mgrwt>
<rscale>  0 0.10949331E+04</rscale>
<asrwt>0</asrwt>
<pdfrwt beam="1">  1        1 0.20027039E+00 0.10949331E+04</pdfrwt>
<pdfrwt beam="2">  1       -1 0.35421891E-01 0.10949331E+04</pdfrwt>
<totfact> 0.68232757E+01</totfact>
</mgrwt>
</event>
<event>
12    1  0.1397649E-007  0.1841571E+04  0.7818608E-02  0.8684500E-01
          1   -1    0    0  501    0  0.00000000000E+00  0.00000000000E+00  0.22050344392E+04  0.22050344392E+04  0.00000000000E+00 0. -1.
         -1   -1    0    0    0  501 -0.00000000000E+00 -0.00000000000E+00 -0.38450446144E+03  0.38450446144E+03  0.00000000000E+00 0.  1.
         23    2    1    2    0    0  0.36900136456E+02 -0.69869401013E+03  0.73490171927E+03  0.10187251861E+04  0.90473907454E+02 0.  0.
        254    2    1    2    0    0 -0.36900136456E+02  0.69869401013E+03  0.10856282585E+04  0.15708137146E+04  0.89405372902E+03 0.  0.
        -24    2    4    4    0    0  0.41317944923E+03  0.39920763849E+03  0.65610087059E+03  0.87573760082E+03  0.79774665181E+02 0.  0.
         24    2    4    4    0    0 -0.45007958569E+03  0.29948637164E+03  0.42952738793E+03  0.69507611376E+03  0.79832992495E+02 0.  0.
         11    1    3    3    0    0  0.27467091073E+02 -0.45177699963E+03  0.53588516503E+03  0.70144836488E+03  0.00000000000E+00 0. -1.
        -11    1    3    3    0    0  0.94330453823E+01 -0.24691701050E+03  0.19901655423E+03  0.31727682121E+03  0.00000000000E+00 0.  1.
          2    1    6    6  502    0 -0.27623579876E+03  0.15013935140E+03  0.28333345943E+03  0.42323266721E+03  0.00000000000E+00 0. -1.
          3    1    5    5  503    0  0.39694946386E+03  0.37126711300E+03  0.63996326327E+03  0.83961963078E+03  0.00000000000E+00 0. -1.
         -4    1    5    5    0  503  0.16229985369E+02  0.27940525488E+02  0.16137607316E+02  0.36117970036E+02  0.00000000000E+00 0.  1.
         -1    1    6    6    0  502 -0.17384378692E+03  0.14934702023E+03  0.14619392850E+03  0.27184344656E+03  0.00000000000E+00 0.  1.
<mgrwt>
<rscale>  0 0.18415706E+04</rscale>
<asrwt>0</asrwt>
<pdfrwt beam="1">  1        1 0.33923606E+00 0.18415706E+04</pdfrwt>
<pdfrwt beam="2">  1       -1 0.59154534E-01 0.18415706E+04</pdfrwt>
<totfact> 0.58888016E+00</totfact>
</mgrwt>
</event>
<event>
12    1  0.1397649E-007  0.1623393E+04  0.7818608E-02  0.8806304E-01
          2   -1    0    0  501    0  0.00000000000E+00  0.00000000000E+00  0.34448105734E+04  0.34448105734E+04  0.00000000000E+00 0. -1.
         -2   -1    0    0    0  501 -0.00000000000E+00 -0.00000000000E+00 -0.19125916563E+03  0.19125916563E+03  0.00000000000E+00 0.  1.
         23    2    1    2    0    0  0.82226796854E+02  0.49713153112E+03  0.60388764694E+03  0.79169609712E+03  0.90561662426E+02 0.  0.
        254    2    1    2    0    0 -0.82226796854E+02 -0.49713153112E+03  0.26496637609E+04  0.28443736420E+04  0.90323992609E+03 0.  0.
        -24    2    4    4    0    0  0.34902113697E+02 -0.70680888216E+03  0.14165413629E+04  0.15855322948E+04  0.80785343006E+02 0.  0.
         24    2    4    4    0    0 -0.11712891055E+03  0.20967735104E+03  0.12331223979E+04  0.12588413471E+04  0.80043211493E+02 0.  0.
         13    1    3    3    0    0  0.97387003372E+02  0.34977914621E+03  0.40915186411E+03  0.54702369917E+03  0.00000000000E+00 0.  1.
        -13    1    3    3    0    0 -0.15160206518E+02  0.14735238491E+03  0.19473578283E+03  0.24467239795E+03  0.00000000000E+00 0. -1.
          4    1    6    6  502    0 -0.71449731946E+02  0.50339013902E+02  0.42856260548E+03  0.43738425593E+03  0.00000000000E+00 0. -1.
          1    1    5    5  503    0  0.15022098946E+02 -0.21770450993E+03  0.52281717238E+03  0.56653218164E+03  0.00000000000E+00 0. -1.
         -2    1    5    5    0  503  0.19880014751E+02 -0.48910437223E+03  0.89372419054E+03  0.10190001132E+04  0.00000000000E+00 0.  1.
         -3    1    6    6    0  502 -0.45679178605E+02  0.15933833714E+03  0.80455979247E+03  0.82145709121E+03  0.00000000000E+00 0.  1.
<mgrwt>
<rscale>  0 0.16233935E+04</rscale>
<asrwt>0</asrwt>
<pdfrwt beam="1">  1        2 0.52997081E+00 0.16233935E+04</pdfrwt>
<pdfrwt beam="2">  1       -2 0.29424490E-01 0.16233935E+04</pdfrwt>
<totfact> 0.91354265E+00</totfact>
</mgrwt>
</event>
<event>
12    1  0.1397649E-007  0.1556570E+04  0.7818608E-02  0.8847682E-01
         -1   -1    0    0    0  501 -0.00000000000E+00  0.00000000000E+00  0.72030195951E+03  0.72030195951E+03  0.00000000000E+00 0.  1.
          1   -1    0    0  501    0  0.00000000000E+00 -0.00000000000E+00 -0.84093595936E+03  0.84093595936E+03  0.00000000000E+00 0. -1.
         23    2    1    2    0    0  0.24605042852E+03  0.29355312638E+03  0.30429032395E+03  0.49767313639E+03  0.91496983828E+02 0.  0.
        254    2    1    2    0    0 -0.24605042852E+03 -0.29355312638E+03 -0.42492432380E+03  0.10635647825E+04  0.89660198204E+03 0.  0.
        -24    2    4    4    0    0  0.17862888866E+03 -0.29768430955E+03 -0.51089071664E+03  0.62276031672E+03  0.79352754880E+02 0.  0.
         24    2    4    4    0    0 -0.42467931718E+03  0.41311831719E+01  0.85966392847E+02  0.44080446576E+03  0.80924453776E+02 0.  0.
         11    1    3    3    0    0  0.76651057322E+00  0.27965729008E+02  0.51779882438E+01  0.28451381331E+02  0.00000000000E+00 0. -1.
        -11    1    3    3    0    0  0.24528391795E+03  0.26558739737E+03  0.29911233571E+03  0.46922175506E+03  0.00000000000E+00 0.  1.
          2    1    6    6  502    0 -0.98639448623E+02  0.33935897818E+02  0.10669356222E+02  0.10485810006E+03  0.00000000000E+00 0. -1.
          3    1    5    5  503    0  0.49984210836E+02 -0.72767362281E+02 -0.75788426252E+02  0.11635031543E+03  0.00000000000E+00 0. -1.
         -4    1    5    5    0  503  0.12864467783E+03 -0.22491694727E+03 -0.43510229039E+03  0.50641000129E+03  0.00000000000E+00 0.  1.
         -1    1    6    6    0  502 -0.32603986856E+03 -0.29804714646E+02  0.75297036624E+02  0.33594636570E+03  0.00000000000E+00 0.  1.
<mgrwt>
<rscale>  0 0.15565704E+04</rscale>
<asrwt>0</asrwt>
<pdfrwt beam="1">  1        1 0.12937476E+00 0.15565704E+04</pdfrwt>
<pdfrwt beam="2">  1       -1 0.11081569E+00 0.15565704E+04</pdfrwt>
<totfact> 0.14725374E+01</totfact>
</mgrwt>
</event>
<event>
12    1  0.1397649E-007  0.1375121E+04  0.7818608E-02  0.8972027E-01
         -1   -1    0    0    0  501 -0.00000000000E+00  0.00000000000E+00  0.10065938228E+04  0.10065938228E+04  0.00000000000E+00 0.  1.
          1   -1    0    0  501    0  0.00000000000E+00 -0.00000000000E+00 -0.46964285690E+03  0.46964285690E+03  0.00000000000E+00 0. -1.
         23    2    1    2    0    0 -0.29103469566E+03 -0.26858546075E+02 -0.11256413878E+03  0.32646412841E+03  0.92117133161E+02 0.  0.
        254    2    1    2    0    0  0.29103469566E+03  0.26858546075E+02  0.64951510464E+03  0.11497725513E+04  0.90259873304E+03 0.  0.
        -24    2    4    4    0    0 -0.17624290432E+03  0.29861916594E+03  0.43660525023E+03  0.56324552569E+03  0.79915017909E+02 0.  0.
         24    2    4    4    0    0  0.46727759999E+03 -0.27176061987E+03  0.21290985441E+03  0.58652702557E+03  0.80505624999E+02 0.  0.
         11    1    3    3    0    0 -0.51781758158E+02  0.23726993104E+02  0.70471307869E+00  0.56963297834E+02  0.00000000000E+00 0.  1.
        -11    1    3    3    0    0 -0.23925293751E+03 -0.50585539179E+02 -0.11326885186E+03  0.26950083058E+03  0.00000000000E+00 0. -1.
          2    1    6    6  502    0  0.22222923412E+03 -0.17500801103E+03  0.10240295501E+03  0.30083218182E+03  0.00000000000E+00 0. -1.
          1    1    5    5  503    0 -0.17368661319E+03  0.24180973475E+03  0.34819184419E+03  0.45812285229E+03  0.00000000000E+00 0. -1.
         -2    1    5    5    0  503 -0.25562911319E+01  0.56809431187E+02  0.88413406040E+02  0.10512267340E+03  0.00000000000E+00 0.  1.
         -1    1    6    6    0  502  0.24504836587E+03 -0.96752608838E+02  0.11050689939E+03  0.28569484375E+03  0.00000000000E+00 0.  1.
<mgrwt>
<rscale>  0 0.13751212E+04</rscale>
<asrwt>0</asrwt>
<pdfrwt beam="1">  1        1 0.72252747E-01 0.13751212E+04</pdfrwt>
<pdfrwt beam="2">  1       -1 0.15486059E+00 0.13751212E+04</pdfrwt>
<totfact> 0.15098846E+01</totfact>
</mgrwt>
</event>
<event>
12    1  0.1397649E-007  0.1656955E+04  0.7818608E-02  0.8786302E-01
          1   -1    0    0  501    0  0.00000000000E+00  0.00000000000E+00  0.31753254364E+04  0.31753254364E+04  0.00000000000E+00 0. -1.
         -1   -1    0    0    0  501 -0.00000000000E+00 -0.00000000000E+00 -0.21615898077E+03  0.21615898077E+03  0.00000000000E+00 0.  1.
         23    2    1    2    0    0 -0.19614295347E+03  0.25361385902E+03  0.53857015136E+02  0.33605853896E+03  0.85104147051E+02 0.  0.
        254    2    1    2    0    0  0.19614295347E+03 -0.25361385902E+03  0.29053094405E+04  0.30554258782E+04  0.88995073153E+03 0.  0.
        -24    2    4    4    0    0 -0.78534608815E+02  0.26203982881E+03  0.15689285770E+04  0.15945850724E+04  0.79574599214E+02 0.  0.
         24    2    4    4    0    0  0.27467756228E+03 -0.51565368783E+03  0.13363808635E+04  0.14608408058E+04  0.82435177704E+02 0.  0.
         13    1    3    3    0    0 -0.31973504358E+02  0.35286125062E+02 -0.22150294833E+02  0.52517151142E+02  0.00000000000E+00 0. -1.
        -13    1    3    3    0    0 -0.16416944911E+03  0.21832773396E+03  0.76007309969E+02  0.28354138782E+03  0.00000000000E+00 0.  1.
          2    1    6    6  502    0  0.13780308236E+03 -0.21140602691E+03  0.49203102932E+03  0.55297082341E+03  0.00000000000E+00 0. -1.
          3    1    5    5  503    0 -0.96885784377E+01  0.24652391640E+02  0.34100119357E+03  0.34202839500E+03  0.00000000000E+00 0. -1.
         -4    1    5    5    0  503 -0.68846030378E+02  0.23738743717E+03  0.12279273834E+04  0.12525566774E+04  0.00000000000E+00 0.  1.
         -1    1    6    6    0  502  0.13687447992E+03 -0.30424766092E+03  0.84434983419E+03  0.90786998240E+03  0.00000000000E+00 0.  1.
<mgrwt>
<rscale>  0 0.16569552E+04</rscale>
<asrwt>0</asrwt>
<pdfrwt beam="1">  1        1 0.48851157E+00 0.16569552E+04</pdfrwt>
<pdfrwt beam="2">  1       -1 0.33255230E-01 0.16569552E+04</pdfrwt>
<totfact> 0.36227338E+00</totfact>
</mgrwt>
</event>
<event>
12    1  0.1397649E-007  0.1217364E+04  0.7818608E-02  0.9097793E-01
         -1   -1    0    0    0  501 -0.00000000000E+00  0.00000000000E+00  0.86618604557E+03  0.86618604557E+03  0.00000000000E+00 0.  1.
          1   -1    0    0  501    0  0.00000000000E+00 -0.00000000000E+00 -0.42772973334E+03  0.42772973334E+03  0.00000000000E+00 0. -1.
         23    2    1    2    0    0  0.67561646114E+02  0.18642726975E+03  0.31340299489E+03  0.38297349763E+03  0.95538263274E+02 0.  0.
        254    2    1    2    0    0 -0.67561646114E+02 -0.18642726975E+03  0.12505331734E+03  0.91094228127E+03  0.88026007788E+03 0.  0.
        -24    2    4    4    0    0 -0.70386151024E+01  0.42628050226E+02  0.47373299670E+03  0.48181980344E+03  0.76555065536E+02 0.  0.
         24    2    4    4    0    0 -0.60523031012E+02 -0.22905531997E+03 -0.34867967936E+03  0.42912247783E+03  0.80244658933E+02 0.  0.
         11    1    3    3    0    0  0.21551676135E+02  0.11606560387E+02  0.10163219153E+03  0.10453845868E+03  0.00000000000E+00 0. -1.
        -11    1    3    3    0    0  0.46009969980E+02  0.17482070936E+03  0.21177080337E+03  0.27843503896E+03  0.00000000000E+00 0.  1.
          4    1    6    6  502    0 -0.43832090717E+02 -0.44240049157E+02 -0.63978893210E+02  0.89284561389E+02  0.00000000000E+00 0. -1.
          3    1    5    5  503    0 -0.14875639584E+02  0.44517170124E+01  0.15525011547E+02  0.21957422912E+02  0.00000000000E+00 0. -1.
         -4    1    5    5    0  503  0.78370244813E+01  0.38176333214E+02  0.45820798515E+03  0.45986238053E+03  0.00000000000E+00 0.  1.
         -3    1    6    6    0  502 -0.16690940295E+02 -0.18481527082E+03 -0.28470078615E+03  0.33983791644E+03  0.00000000000E+00 0.  1.
<mgrwt>
<rscale>  0 0.12173636E+04</rscale>
<asrwt>0</asrwt>
<pdfrwt beam="1">  1        1 0.65804574E-01 0.12173636E+04</pdfrwt>
<pdfrwt beam="2">  1       -1 0.13325939E+00 0.12173636E+04</pdfrwt>
<totfact> 0.25821185E+01</totfact>
</mgrwt>
</event>
<event>
12    1  0.1397649E-007  0.2084976E+04  0.7818608E-02  0.8567891E-01
          1   -1    0    0  501    0  0.00000000000E+00  0.00000000000E+00  0.27444229056E+04  0.27444229056E+04  0.00000000000E+00 0. -1.
         -1   -1    0    0    0  501 -0.00000000000E+00 -0.00000000000E+00 -0.39599620071E+03  0.39599620071E+03  0.00000000000E+00 0.  1.
         23    2    1    2    0    0 -0.79162197399E+03  0.29254406490E+03  0.85131294276E+03  0.12025303758E+04  0.95384477785E+02 0.  0.
        254    2    1    2    0    0  0.79162197399E+03 -0.29254406490E+03  0.14971137621E+04  0.19378887305E+04  0.89544164270E+03 0.  0.
        -24    2    4    4    0    0 -0.35451358765E+02  0.20458317656E+03  0.11544889143E+03  0.25071032778E+03  0.80100854901E+02 0.  0.
         24    2    4    4    0    0  0.82707333275E+03 -0.49712724145E+03  0.13816648707E+04  0.16871784027E+04  0.79920934494E+02 0.  0.
         13    1    3    3    0    0 -0.31792227610E+03  0.11975845873E+03  0.40991379217E+03  0.53239644917E+03  0.00000000000E+00 0.  1.
        -13    1    3    3    0    0 -0.47369969789E+03  0.17278560617E+03  0.44139915059E+03  0.67013392663E+03  0.00000000000E+00 0. -1.
          2    1    6    6  502    0  0.77030346187E+03 -0.44518608983E+03  0.12964068683E+04  0.15723322950E+04  0.00000000000E+00 0. -1.
          3    1    5    5  503    0  0.18996557966E+01  0.17469451437E+03  0.91302758280E+02  0.19712426465E+03  0.00000000000E+00 0. -1.
         -4    1    5    5    0  503 -0.37351014562E+02  0.29888662183E+02  0.24146133146E+02  0.53586063130E+02  0.00000000000E+00 0.  1.
         -1    1    6    6    0  502  0.56769870878E+02 -0.51941151627E+02  0.85258002432E+02  0.11484610769E+03  0.00000000000E+00 0.  1.
<mgrwt>
<rscale>  0 0.20849758E+04</rscale>
<asrwt>0</asrwt>
<pdfrwt beam="1">  1        1 0.42221890E+00 0.20849758E+04</pdfrwt>
<pdfrwt beam="2">  1       -1 0.60922494E-01 0.20849758E+04</pdfrwt>
<totfact> 0.22986278E+00</totfact>
</mgrwt>
</event>
<event>
12    1  0.1397649E-007  0.1788012E+04  0.7818608E-02  0.8712701E-01
         -1   -1    0    0    0  501 -0.00000000000E+00  0.00000000000E+00  0.21977115149E+03  0.21977115149E+03  0.00000000000E+00 0.  1.
          1   -1    0    0  501    0  0.00000000000E+00 -0.00000000000E+00 -0.36367218068E+04  0.36367218068E+04  0.00000000000E+00 0. -1.
         23    2    1    2    0    0  0.48313851341E+03  0.35127500735E+03 -0.64120777991E+03  0.88081634167E+03  0.88730247389E+02 0.  0.
        254    2    1    2    0    0 -0.48313851341E+03 -0.35127500735E+03 -0.27757428754E+04  0.29756766166E+04  0.89055368309E+03 0.  0.
        -24    2    4    4    0    0 -0.59073732656E+02 -0.11161747332E+03  0.65832270234E+01  0.14993968602E+03  0.80563045659E+02 0.  0.
         24    2    4    4    0    0 -0.42406478075E+03 -0.23965753403E+03 -0.27823261024E+04  0.28257369306E+04  0.78638342177E+02 0.  0.
         13    1    3    3    0    0  0.13181902473E+03  0.82520893655E+02 -0.22458354778E+03  0.27317343045E+03  0.00000000000E+00 0. -1.
        -13    1    3    3    0    0  0.35131948868E+03  0.26875411370E+03 -0.41662423213E+03  0.60764291122E+03  0.00000000000E+00 0.  1.
          4    1    6    6  502    0 -0.37810471584E+03 -0.20260549560E+03 -0.22847477690E+04  0.23246686927E+04  0.00000000000E+00 0. -1.
          3    1    5    5  503    0 -0.56508798408E+02 -0.11208495412E+03  0.27798091644E+02  0.12856521745E+03  0.00000000000E+00 0. -1.
         -4    1    5    5    0  503 -0.25649342481E+01  0.46748080059E+00 -0.21214864621E+02  0.21374468575E+02  0.00000000000E+00 0.  1.
         -3    1    6    6    0  502 -0.45960064913E+02 -0.37052038428E+02 -0.49757833338E+03  0.50106823784E+03  0.00000000000E+00 0.  1.
<mgrwt>
<rscale>  0 0.17880118E+04</rscale>
<asrwt>0</asrwt>
<pdfrwt beam="1">  1        1 0.55949563E+00 0.17880118E+04</pdfrwt>
<pdfrwt beam="2">  1       -1 0.33810949E-01 0.17880118E+04</pdfrwt>
<totfact> 0.15271912E+00</totfact>
</mgrwt>
</event>
<event>
12    1  0.1397649E-007  0.1427096E+04  0.7818608E-02  0.8934435E-01
         -2   -1    0    0    0  501 -0.00000000000E+00  0.00000000000E+00  0.24904001621E+03  0.24904001621E+03  0.00000000000E+00 0.  1.
          2   -1    0    0  501    0  0.00000000000E+00 -0.00000000000E+00 -0.20444537269E+04  0.20444537269E+04  0.00000000000E+00 0. -1.
         23    2    1    2    0    0  0.17767791151E+03 -0.51171165757E+02  0.67491295820E+02  0.21658687043E+03  0.90370730816E+02 0.  0.
        254    2    1    2    0    0 -0.17767791151E+03  0.51171165757E+02 -0.18629050065E+04  0.20769068727E+04  0.89941045472E+03 0.  0.
        -24    2    4    4    0    0 -0.46054947275E+03  0.25546581861E+03 -0.85539414775E+03  0.10077631656E+04  0.80739386917E+02 0.  0.
         24    2    4    4    0    0  0.28287156124E+03 -0.20429465285E+03 -0.10075108588E+04  0.10691437071E+04  0.78977911685E+02 0.  0.
         13    1    3    3    0    0  0.16606198024E+03 -0.56178470426E+02  0.31079914383E+02  0.17804090232E+03  0.00000000000E+00 0.  1.
        -13    1    3    3    0    0  0.11615931265E+02  0.50073046686E+01  0.36411381437E+02  0.38545968108E+02  0.00000000000E+00 0. -1.
          2    1    6    6  502    0  0.17491672125E+03 -0.14174872920E+03 -0.53508925037E+03  0.58052482072E+03  0.00000000000E+00 0. -1.
          1    1    5    5  503    0 -0.43230417964E+03  0.21550619766E+03 -0.75927457495E+03  0.89990427554E+03  0.00000000000E+00 0. -1.
         -2    1    5    5    0  503 -0.28245293105E+02  0.39959620951E+02 -0.96119572807E+02  0.10785889006E+03  0.00000000000E+00 0.  1.
         -1    1    6    6    0  502  0.10795483999E+03 -0.62545923651E+02 -0.47242160842E+03  0.48861888640E+03  0.00000000000E+00 0.  1.
<mgrwt>
<rscale>  0 0.14270961E+04</rscale>
<asrwt>0</asrwt>
<pdfrwt beam="1">  1        2 0.31453134E+00 0.14270961E+04</pdfrwt>
<pdfrwt beam="2">  1       -2 0.38313850E-01 0.14270961E+04</pdfrwt>
<totfact> 0.39466155E+01</totfact>
</mgrwt>
</event>
<event>
12    1  0.1397649E-007  0.3221189E+04  0.7818608E-02  0.8183244E-01
         -1   -1    0    0    0  501 -0.00000000000E+00  0.00000000000E+00  0.16431234120E+04  0.16431234120E+04  0.00000000000E+00 0.  1.
          1   -1    0    0  501    0  0.00000000000E+00 -0.00000000000E+00 -0.15787095682E+04  0.15787095682E+04  0.00000000000E+00 0. -1.
         23    2    1    2    0    0 -0.14238689837E+04 -0.31115100799E+03  0.29427266758E+03  0.14896664928E+04  0.91060554424E+02 0.  0.
        254    2    1    2    0    0  0.14238689837E+04  0.31115100799E+03 -0.22985882376E+03  0.17321664873E+04  0.90738515989E+03 0.  0.
        -24    2    4    4    0    0  0.74662479121E+03 -0.23613733646E+02 -0.52574898633E+03  0.91693000435E+03  0.79639493887E+02 0.  0.
         24    2    4    4    0    0  0.67724419247E+03  0.33476474164E+03  0.29589016256E+03  0.81523648295E+03  0.79576418277E+02 0.  0.
         13    1    3    3    0    0 -0.23722927032E+02  0.37683929287E+01 -0.25897883498E+01  0.24159574829E+02  0.00000000000E+00 0. -1.
        -13    1    3    3    0    0 -0.14001460566E+04 -0.31491940092E+03  0.29686245593E+03  0.14655069180E+04  0.00000000000E+00 0.  1.
          2    1    6    6  502    0  0.30258136813E+03  0.19381489130E+03  0.13755810054E+03  0.38476216999E+03  0.00000000000E+00 0. -1.
          1    1    5    5  503    0  0.35113379081E+03  0.14705353049E+02 -0.20996126897E+03  0.40938358653E+03  0.00000000000E+00 0. -1.
         -2    1    5    5    0  503  0.39549100040E+03 -0.38319086694E+02 -0.31578771736E+03  0.50754641781E+03  0.00000000000E+00 0.  1.
         -1    1    6    6    0  502  0.37466282434E+03  0.14094985034E+03  0.15833206202E+03  0.43047431296E+03  0.00000000000E+00 0.  1.
<mgrwt>
<rscale>  0 0.32211890E+04</rscale>
<asrwt>0</asrwt>
<pdfrwt beam="1">  1        1 0.24287840E+00 0.32211890E+04</pdfrwt>
<pdfrwt beam="2">  1       -1 0.25278822E+00 0.32211890E+04</pdfrwt>
<totfact> 0.32224867E-01</totfact>
</mgrwt>
</event>
<event>
12    1  0.1397649E-007  0.2576120E+04  0.7818608E-02  0.8376358E-01
          2   -1    0    0  501    0  0.00000000000E+00  0.00000000000E+00  0.16564585027E+04  0.16564585027E+04  0.00000000000E+00 0. -1.
         -2   -1    0    0    0  501 -0.00000000000E+00 -0.00000000000E+00 -0.10015939315E+04  0.10015939315E+04  0.00000000000E+00 0.  1.
         23    2    1    2    0    0  0.28855970405E+03 -0.52634065911E+03  0.12727483975E+04  0.14100396701E+04  0.89566709970E+02 0.  0.
        254    2    1    2    0    0 -0.28855970405E+03  0.52634065911E+03 -0.61788382637E+03  0.12480127641E+04  0.90302505179E+03 0.  0.
        -24    2    4    4    0    0 -0.43279162352E+03  0.25109982638E+03  0.48143745017E+02  0.50869726093E+03  0.78072856302E+02 0.  0.
         24    2    4    4    0    0  0.14423191948E+03  0.27524083273E+03 -0.66602757139E+03  0.73931550314E+03  0.80214242769E+02 0.  0.
         11    1    3    3    0    0  0.27125451817E+03 -0.50570663243E+03  0.11608755496E+04  0.12949711400E+04  0.00000000000E+00 0. -1.
        -11    1    3    3    0    0  0.17305185879E+02 -0.20634026685E+02  0.11187284793E+03  0.11506853010E+03  0.00000000000E+00 0.  1.
          4    1    6    6  502    0  0.12281760499E+03  0.26112250837E+03 -0.55698594351E+03  0.62729775206E+03  0.00000000000E+00 0. -1.
          3    1    5    5  503    0 -0.23517799890E+03  0.14762965663E+03  0.64391870863E+02  0.28504301380E+03  0.00000000000E+00 0. -1.
         -4    1    5    5    0  503 -0.19761362462E+03  0.10347016976E+03 -0.16248125846E+02  0.22365424713E+03  0.00000000000E+00 0.  1.
         -3    1    6    6    0  502  0.21414314486E+02  0.14118324362E+02 -0.10904162788E+03  0.11201775108E+03  0.00000000000E+00 0.  1.
<mgrwt>
<rscale>  0 0.25761202E+04</rscale>
<asrwt>0</asrwt>
<pdfrwt beam="1">  1        2 0.25483977E+00 0.25761202E+04</pdfrwt>
<pdfrwt beam="2">  1       -2 0.15409137E+00 0.25761202E+04</pdfrwt>
<totfact> 0.25637401E+00</totfact>
</mgrwt>
</event>
<event>
12    1  0.1397649E-007  0.2464087E+04  0.7818608E-02  0.8415893E-01
          2   -1    0    0  501    0  0.00000000000E+00  0.00000000000E+00  0.21186038768E+04  0.21186038768E+04  0.00000000000E+00 0. -1.
         -2   -1    0    0    0  501 -0.00000000000E+00 -0.00000000000E+00 -0.71647697088E+03  0.71647697088E+03  0.00000000000E+00 0.  1.
         23    2    1    2    0    0  0.40214177865E+03  0.55094702897E+03  0.15609880241E+04  0.17059424699E+04  0.91079418703E+02 0.  0.
        254    2    1    2    0    0 -0.40214177865E+03 -0.55094702897E+03 -0.15886111821E+03  0.11291383777E+04  0.88569519715E+03 0.  0.
        -24    2    4    4    0    0 -0.50714898860E+03 -0.17021554316E+02 -0.25068281521E+03  0.57171954971E+03  0.80817941862E+02 0.  0.
         24    2    4    4    0    0  0.10500720994E+03 -0.53392547465E+03  0.91821697004E+02  0.55741882800E+03  0.78623146349E+02 0.  0.
         11    1    3    3    0    0  0.80645421262E+02  0.10205169976E+03  0.39420889715E+03  0.41511310265E+03  0.00000000000E+00 0.  1.
        -11    1    3    3    0    0  0.32149635739E+03  0.44889532920E+03  0.11667791269E+04  0.12908293673E+04  0.00000000000E+00 0. -1.
          2    1    6    6  502    0  0.10238119334E+03 -0.42802607982E+03  0.99503973532E+02  0.45120868177E+03  0.00000000000E+00 0. -1.
          3    1    5    5  503    0 -0.43067268978E+03 -0.30576983958E+02 -0.23804176176E+03  0.49302920604E+03  0.00000000000E+00 0. -1.
         -4    1    5    5    0  503 -0.76476298821E+02  0.13555429641E+02 -0.12641053458E+02  0.78690343668E+02  0.00000000000E+00 0.  1.
         -1    1    6    6    0  502  0.26260166066E+01 -0.10589939483E+03 -0.76822765279E+01  0.10621014623E+03  0.00000000000E+00 0.  1.
<mgrwt>
<rscale>  0 0.24640868E+04</rscale>
<asrwt>0</asrwt>
<pdfrwt beam="1">  1        2 0.32593906E+00 0.24640868E+04</pdfrwt>
<pdfrwt beam="2">  1       -2 0.11022723E+00 0.24640868E+04</pdfrwt>
<totfact> 0.33544320E+00</totfact>
</mgrwt>
</event>
<event>
12    1  0.1397649E-007  0.1869028E+04  0.7818608E-02  0.8670429E-01
         -2   -1    0    0    0  501 -0.00000000000E+00  0.00000000000E+00  0.70377883512E+03  0.70377883512E+03  0.00000000000E+00 0.  1.
          2   -1    0    0  501    0  0.00000000000E+00 -0.00000000000E+00 -0.12408959390E+04  0.12408959390E+04  0.00000000000E+00 0. -1.
         23    2    1    2    0    0 -0.32272214199E+03 -0.24280168828E+03 -0.82461907030E+03  0.92263641518E+03  0.90327751877E+02 0.  0.
        254    2    1    2    0    0  0.32272214199E+03  0.24280168828E+03  0.28750196639E+03  0.10220383590E+04  0.89375767732E+03 0.  0.
        -24    2    4    4    0    0 -0.22752658125E+03  0.23223259773E+03  0.32072480851E+03  0.46371243084E+03  0.80402059004E+02 0.  0.
         24    2    4    4    0    0  0.55024872324E+03  0.10569090551E+02 -0.33222842129E+02  0.55832592814E+03  0.87970004488E+02 0.  0.
         13    1    3    3    0    0 -0.38447258272E+01  0.74039569074E+01 -0.13193789248E+02  0.15610143154E+02  0.00000000000E+00 0.  1.
        -13    1    3    3    0    0 -0.31887741616E+03 -0.25020564518E+03 -0.81142528105E+03  0.90702627203E+03  0.00000000000E+00 0. -1.
          2    1    6    6  502    0  0.34166145123E+03 -0.13678509729E+02 -0.58203429338E+02  0.34685341006E+03  0.00000000000E+00 0. -1.
          3    1    5    5  503    0 -0.10495939098E+03  0.16346085637E+03  0.18020791060E+03  0.26497323707E+03  0.00000000000E+00 0. -1.
         -4    1    5    5    0  503 -0.12256719027E+03  0.68771741361E+02  0.14051689791E+03  0.19873919376E+03  0.00000000000E+00 0.  1.
         -1    1    6    6    0  502  0.20858727201E+03  0.24247600281E+02  0.24980587209E+02  0.21147251808E+03  0.00000000000E+00 0.  1.
<mgrwt>
<rscale>  0 0.18690279E+04</rscale>
<asrwt>0</asrwt>
<pdfrwt beam="1">  1        2 0.19090707E+00 0.18690279E+04</pdfrwt>
<pdfrwt beam="2">  1       -2 0.10827367E+00 0.18690279E+04</pdfrwt>
<totfact> 0.11480197E+01</totfact>
</mgrwt>
</event>
<event>
12    1  0.1397649E-007  0.1614932E+04  0.7818608E-02  0.8811427E-01
         -1   -1    0    0    0  501 -0.00000000000E+00  0.00000000000E+00  0.64164863156E+03  0.64164863156E+03  0.00000000000E+00 0.  1.
          1   -1    0    0  501    0  0.00000000000E+00 -0.00000000000E+00 -0.10161342093E+04  0.10161342093E+04  0.00000000000E+00 0. -1.
         23    2    1    2    0    0  0.45362137272E+03 -0.34206399899E+02  0.19781430589E+03  0.50440880700E+03  0.91407425195E+02 0.  0.
        254    2    1    2    0    0 -0.45362137272E+03  0.34206399899E+02 -0.57229988367E+03  0.11533740339E+04  0.89207739443E+03 0.  0.
        -24    2    4    4    0    0 -0.27167402049E+03  0.42018593010E+03 -0.50286349921E+03  0.71371763761E+03  0.78474060284E+02 0.  0.
         24    2    4    4    0    0 -0.18194735223E+03 -0.38597953020E+03 -0.69436384461E+02  0.43965639630E+03  0.79945597753E+02 0.  0.
         11    1    3    3    0    0  0.44303086458E+03 -0.27981542225E+02  0.17246339476E+03  0.47623831871E+03  0.00000000000E+00 0.  1.
        -11    1    3    3    0    0  0.10590508149E+02 -0.62248576744E+01  0.25350911125E+02  0.28170488295E+02  0.00000000000E+00 0. -1.
          4    1    6    6  502    0 -0.15059522201E+03 -0.27859231715E+03 -0.19915876408E+02  0.31731568225E+03  0.00000000000E+00 0. -1.
          3    1    5    5  503    0 -0.20912421197E+03  0.36819731815E+03 -0.44225895326E+03  0.61228684688E+03  0.00000000000E+00 0. -1.
         -4    1    5    5    0  503 -0.62549808521E+02  0.51988611947E+02 -0.60604545950E+02  0.10143079073E+03  0.00000000000E+00 0.  1.
         -3    1    6    6    0  502 -0.31352130221E+02 -0.10738721305E+03 -0.49520508053E+02  0.12234071404E+03  0.00000000000E+00 0.  1.
<mgrwt>
<rscale>  0 0.16149317E+04</rscale>
<asrwt>0</asrwt>
<pdfrwt beam="1">  1        1 0.15632834E+00 0.16149317E+04</pdfrwt>
<pdfrwt beam="2">  1       -1 0.98715174E-01 0.16149317E+04</pdfrwt>
<totfact> 0.13831788E+01</totfact>
</mgrwt>
</event>
<event>
12    1  0.1397649E-007  0.3093451E+04  0.7818608E-02  0.8217538E-01
         -2   -1    0    0    0  501 -0.00000000000E+00  0.00000000000E+00  0.11070917752E+04  0.11070917752E+04  0.00000000000E+00 0.  1.
          2   -1    0    0  501    0  0.00000000000E+00 -0.00000000000E+00 -0.21609404381E+04  0.21609404381E+04  0.00000000000E+00 0. -1.
         23    2    1    2    0    0  0.13467872152E+04  0.65720499971E+02 -0.89752273584E+03  0.16222785417E+04  0.89920065836E+02 0.  0.
        254    2    1    2    0    0 -0.13467872152E+04 -0.65720499971E+02 -0.15632592711E+03  0.16457536716E+04  0.93054412302E+03 0.  0.
        -24    2    4    4    0    0 -0.13998850704E+04  0.10499802653E+03 -0.25248374300E+03  0.14282465407E+04  0.73738352760E+02 0.  0.
         24    2    4    4    0    0  0.53097855184E+02 -0.17071852650E+03  0.96157815884E+02  0.21750713088E+03  0.78094999276E+02 0.  0.
         11    1    3    3    0    0  0.89242847265E+03  0.26134468590E+01 -0.57852585214E+03  0.10635448136E+04  0.00000000000E+00 0. -1.
        -11    1    3    3    0    0  0.45435874260E+03  0.63107053112E+02 -0.31899688370E+03  0.55873372812E+03  0.00000000000E+00 0.  1.
          4    1    6    6  502    0  0.39549104026E+02 -0.17603238353E+03  0.86891447835E+02  0.20025397721E+03  0.00000000000E+00 0. -1.
          1    1    5    5  503    0 -0.10243366374E+04  0.56131399908E+02 -0.15851004567E+03  0.10380470680E+04  0.00000000000E+00 0. -1.
         -2    1    5    5    0  503 -0.37554843306E+03  0.48866626618E+02 -0.93973697324E+02  0.39019947278E+03  0.00000000000E+00 0.  1.
         -3    1    6    6    0  502  0.13548751158E+02  0.53138570374E+01  0.92663680489E+01  0.17253153665E+02  0.00000000000E+00 0.  1.
<mgrwt>
<rscale>  0 0.30934508E+04</rscale>
<asrwt>0</asrwt>
<pdfrwt beam="1">  1        2 0.33245237E+00 0.30934508E+04</pdfrwt>
<pdfrwt beam="2">  1       -2 0.17032181E+00 0.30934508E+04</pdfrwt>
<totfact> 0.97824169E-01</totfact>
</mgrwt>
</event>
<event>
12    1  0.1798483E-007  0.1262010E+04  0.7818608E-02  0.9060246E-01
         -1   -1    0    0    0  501 -0.00000000000E+00  0.00000000000E+00  0.31617507672E+03  0.31617507672E+03  0.00000000000E+00 0.  1.
          1   -1    0    0  501    0  0.00000000000E+00 -0.00000000000E+00 -0.12593248746E+04  0.12593248746E+04  0.00000000000E+00 0. -1.
         23    2    1    2    0    0  0.14302491441E+03 -0.17514888379E+03 -0.12151565836E+02  0.24573799455E+03  0.95426640828E+02 0.  0.
        254    2    1    2    0    0 -0.14302491441E+03  0.17514888379E+03 -0.93099823209E+03  0.13297619568E+04  0.92215828143E+03 0.  0.
        -24    2    4    4    0    0  0.71954054959E+02  0.47297455628E+03 -0.79248065828E+03  0.92911180476E+03  0.79629360622E+02 0.  0.
         24    2    4    4    0    0 -0.21497896937E+03 -0.29782567249E+03 -0.13851757380E+03  0.40065015206E+03  0.80108286842E+02 0.  0.
         11    1    3    3    0    0 -0.29572603634E+01 -0.59319243310E+01  0.18972463678E+02  0.20096952334E+02  0.00000000000E+00 0. -1.
        -11    1    3    3    0    0  0.14598217478E+03 -0.16921695946E+03 -0.31124029514E+02  0.22564104222E+03  0.00000000000E+00 0.  1.
          4    1    6    6  502    0 -0.14786058388E+03 -0.25598860743E+03 -0.95780588099E+02  0.31075205624E+03  0.00000000000E+00 0. -1.
          1    1    5    5  503    0  0.50010050285E+02  0.44672805990E+03 -0.75199547405E+03  0.87610738932E+03  0.00000000000E+00 0. -1.
         -2    1    5    5    0  503  0.21944004674E+02  0.26246496380E+02 -0.40485184235E+02  0.53004415438E+02  0.00000000000E+00 0.  1.
         -3    1    6    6    0  502 -0.67118385495E+02 -0.41837065061E+02 -0.42736985706E+02  0.89898095817E+02  0.00000000000E+00 0.  1.
<mgrwt>
<rscale>  0 0.12620097E+04</rscale>
<asrwt>0</asrwt>
<pdfrwt beam="1">  1        1 0.19374229E+00 0.12620097E+04</pdfrwt>
<pdfrwt beam="2">  1       -1 0.48642319E-01 0.12620097E+04</pdfrwt>
<totfact> 0.40311011E+01</totfact>
</mgrwt>
</event>
<event>
12    1  0.1397649E-007  0.1344137E+04  0.7818608E-02  0.8995278E-01
         -2   -1    0    0    0  501 -0.00000000000E+00  0.00000000000E+00  0.32816710422E+03  0.32816710422E+03  0.00000000000E+00 0.  1.
          2   -1    0    0  501    0  0.00000000000E+00 -0.00000000000E+00 -0.13763599356E+04  0.13763599356E+04  0.00000000000E+00 0. -1.
         23    2    1    2    0    0 -0.12825674346E+03  0.94343641611E+02 -0.71501969800E+03  0.73830893305E+03  0.92175903273E+02 0.  0.
        254    2    1    2    0    0  0.12825674346E+03 -0.94343641611E+02 -0.33317313333E+03  0.96621810673E+03  0.89287321498E+03 0.  0.
        -24    2    4    4    0    0  0.10331238277E+02 -0.71277693061E+02 -0.62895761623E+03  0.63783222836E+03  0.77814038026E+02 0.  0.
         24    2    4    4    0    0  0.11792550519E+03 -0.23065948551E+02  0.29578448290E+03  0.32838587836E+03  0.76878878958E+02 0.  0.
         13    1    3    3    0    0 -0.13540546296E+03  0.75572990847E+02 -0.68397684740E+03  0.70133461638E+03  0.00000000000E+00 0. -1.
        -13    1    3    3    0    0  0.71487194989E+01  0.18770650764E+02 -0.31042850597E+02  0.36974316678E+02  0.00000000000E+00 0.  1.
          4    1    6    6  502    0 -0.77147455127E+01 -0.12455104518E+02  0.50629423031E+02  0.52706597342E+02  0.00000000000E+00 0. -1.
          1    1    5    5  503    0  0.19192490435E+02 -0.45112891491E+02 -0.14454997704E+03  0.15263754626E+03  0.00000000000E+00 0. -1.
         -2    1    5    5    0  503 -0.88612521581E+01 -0.26164801570E+02 -0.48440763919E+03  0.48519468210E+03  0.00000000000E+00 0.  1.
         -3    1    6    6    0  502  0.12564025070E+03 -0.10610844033E+02  0.24515505986E+03  0.27567928102E+03  0.00000000000E+00 0.  1.
<mgrwt>
<rscale>  0 0.13441370E+04</rscale>
<asrwt>0</asrwt>
<pdfrwt beam="1">  1        2 0.21174769E+00 0.13441370E+04</pdfrwt>
<pdfrwt beam="2">  1       -2 0.50487246E-01 0.13441370E+04</pdfrwt>
<totfact> 0.54111922E+01</totfact>
</mgrwt>
</event>
<event>
12    1  0.1397649E-007  0.2488440E+04  0.7818608E-02  0.8407115E-01
          2   -1    0    0  501    0  0.00000000000E+00  0.00000000000E+00  0.15633981859E+04  0.15633981859E+04  0.00000000000E+00 0. -1.
         -2   -1    0    0    0  501 -0.00000000000E+00 -0.00000000000E+00 -0.99020406437E+03  0.99020406437E+03  0.00000000000E+00 0.  1.
         23    2    1    2    0    0 -0.10017279251E+04 -0.22308687895E+03  0.58459109665E+03  0.11845869558E+04  0.90955561319E+02 0.  0.
        254    2    1    2    0    0  0.10017279251E+04  0.22308687895E+03 -0.11396975109E+02  0.13690152944E+04  0.90600573608E+03 0.  0.
        -24    2    4    4    0    0  0.66837376465E+02  0.36557040206E+03  0.14196972513E+03  0.40774580656E+03  0.89399586985E+02 0.  0.
         24    2    4    4    0    0  0.93489054867E+03 -0.14248352312E+03 -0.15336670024E+03  0.96126948788E+03  0.78713348521E+02 0.  0.
         11    1    3    3    0    0 -0.90406884760E+03 -0.22722858722E+03  0.53808751820E+03  0.10763417159E+04  0.00000000000E+00 0. -1.
        -11    1    3    3    0    0 -0.97659077535E+02  0.41417082777E+01  0.46503578452E+02  0.10824523999E+03  0.00000000000E+00 0.  1.
          4    1    6    6  502    0  0.90083842935E+03 -0.15200649379E+03 -0.14634433191E+03  0.92522025131E+03  0.00000000000E+00 0. -1.
          1    1    5    5  503    0  0.68418034331E+02  0.29914272190E+03  0.80554516211E+02  0.31726396828E+03  0.00000000000E+00 0. -1.
         -2    1    5    5    0  503 -0.15806578664E+01  0.66427680165E+02  0.61415208918E+02  0.90481838277E+02  0.00000000000E+00 0.  1.
         -3    1    6    6    0  502  0.34052119321E+02  0.95229706698E+01 -0.70223683268E+01  0.36049236574E+02  0.00000000000E+00 0.  1.
<mgrwt>
<rscale>  0 0.24884399E+04</rscale>
<asrwt>0</asrwt>
<pdfrwt beam="1">  1        2 0.24052280E+00 0.24884399E+04</pdfrwt>
<pdfrwt beam="2">  1       -2 0.15233909E+00 0.24884399E+04</pdfrwt>
<totfact> 0.30016413E+00</totfact>
</mgrwt>
</event>
<event>
12    1  0.1397649E-007  0.1389162E+04  0.7818608E-02  0.8961701E-01
          1   -1    0    0  501    0  0.00000000000E+00  0.00000000000E+00  0.55556165849E+03  0.55556165849E+03  0.00000000000E+00 0.  1.
         -1   -1    0    0    0  501 -0.00000000000E+00 -0.00000000000E+00 -0.86838694197E+03  0.86838694197E+03  0.00000000000E+00 0. -1.
         23    2    1    2    0    0  0.37592437806E+03  0.28076530147E+02  0.12329936353E+03  0.40677445599E+03  0.90306674359E+02 0.  0.
        254    2    1    2    0    0 -0.37592437806E+03 -0.28076530147E+02 -0.43612464701E+03  0.10171741445E+04  0.83805196909E+03 0.  0.
        -24    2    4    4    0    0 -0.10926573220E+03  0.19486523713E+03  0.18497237685E+03  0.30057823826E+03  0.78873545895E+02 0.  0.
         24    2    4    4    0    0 -0.26665864586E+03 -0.22294176728E+03 -0.62109702386E+03  0.71659590621E+03  0.83296547011E+02 0.  0.
         11    1    3    3    0    0  0.17805577204E+03  0.13382913350E+02  0.11258560614E+02  0.17891259182E+03  0.00000000000E+00 0. -1.
        -11    1    3    3    0    0  0.19786860603E+03  0.14693616796E+02  0.11204080291E+03  0.22786186417E+03  0.00000000000E+00 0.  1.
          4    1    6    6  502    0 -0.67282954060E+02 -0.68400861980E+02 -0.10553978329E+03  0.14263351529E+03  0.00000000000E+00 0. -1.
          3    1    5    5  503    0 -0.43800056055E+02  0.20192510296E+02  0.22567446329E+02  0.53249150381E+02  0.00000000000E+00 0. -1.
         -4    1    5    5    0  503 -0.65465676149E+02  0.17467272684E+03  0.16240493052E+03  0.24732908788E+03  0.00000000000E+00 0.  1.
         -3    1    6    6    0  502 -0.19937569180E+03 -0.15454090530E+03 -0.51555724057E+03  0.57396239092E+03  0.00000000000E+00 0.  1.
<mgrwt>
<rscale>  0 0.13891616E+04</rscale>
<asrwt>0</asrwt>
<pdfrwt beam="1">  1        1 0.85471025E-01 0.13891616E+04</pdfrwt>
<pdfrwt beam="2">  1       -1 0.13359799E+00 0.13891616E+04</pdfrwt>
<totfact> 0.17661090E+01</totfact>
</mgrwt>
</event>
<event>
12    1  0.1397649E-007  0.1522254E+04  0.7818608E-02  0.8869788E-01
         -1   -1    0    0    0  501 -0.00000000000E+00  0.00000000000E+00  0.35113949501E+03  0.35113949501E+03  0.00000000000E+00 0.  1.
          1   -1    0    0  501    0  0.00000000000E+00 -0.00000000000E+00 -0.16498128092E+04  0.16498128092E+04  0.00000000000E+00 0. -1.
         23    2    1    2    0    0 -0.42904568821E+03 -0.89485878883E+02 -0.68355584877E+03  0.81695057459E+03  0.89842739517E+02 0.  0.
        254    2    1    2    0    0  0.42904568821E+03  0.89485878883E+02 -0.61511746539E+03  0.11840017296E+04  0.91181285052E+03 0.  0.
        -24    2    4    4    0    0  0.26158408694E+02  0.40509374697E+03 -0.50770604482E+03  0.65482518543E+03  0.79027775831E+02 0.  0.
         24    2    4    4    0    0  0.40288727951E+03 -0.31560786808E+03 -0.10741142057E+03  0.52917654417E+03  0.81019227565E+02 0.  0.
         11    1    3    3    0    0 -0.19908160189E+03 -0.21450309843E+02 -0.23863153631E+03  0.31151020870E+03  0.00000000000E+00 0.  1.
        -11    1    3    3    0    0 -0.22996408632E+03 -0.68035569040E+02 -0.44492431246E+03  0.50544036589E+03  0.00000000000E+00 0. -1.
          4    1    6    6  502    0  0.93434055581E+02 -0.86880865824E+02 -0.61513454777E+02  0.14164078758E+03  0.00000000000E+00 0. -1.
          1    1    5    5  503    0  0.12173063403E+02  0.18772419715E+03 -0.17355365308E+03  0.25594809663E+03  0.00000000000E+00 0. -1.
         -2    1    5    5    0  503  0.13985345291E+02  0.21736954981E+03 -0.33415239174E+03  0.39887708880E+03  0.00000000000E+00 0.  1.
         -3    1    6    6    0  502  0.30945322393E+03 -0.22872700226E+03 -0.45897965792E+02  0.38753575658E+03  0.00000000000E+00 0.  1.
<mgrwt>
<rscale>  0 0.15222542E+04</rscale>
<asrwt>0</asrwt>
<pdfrwt beam="1">  1        1 0.25381736E+00 0.15222542E+04</pdfrwt>
<pdfrwt beam="2">  1       -1 0.54021460E-01 0.15222542E+04</pdfrwt>
<totfact> 0.17229995E+01</totfact>
</mgrwt>
</event>
<event>
12    1  0.1397649E-007  0.2439169E+04  0.7818608E-02  0.8424983E-01
         -2   -1    0    0    0  501 -0.00000000000E+00  0.00000000000E+00  0.55329168671E+03  0.55329168671E+03  0.00000000000E+00 0.  1.
          2   -1    0    0  501    0  0.00000000000E+00 -0.00000000000E+00 -0.26882494429E+04  0.26882494429E+04  0.00000000000E+00 0. -1.
         23    2    1    2    0    0  0.33022971631E+03  0.76076032088E+03 -0.17786749288E+04  0.19646344864E+04  0.91083651021E+02 0.  0.
        254    2    1    2    0    0 -0.33022971631E+03 -0.76076032088E+03 -0.35628282740E+03  0.12769066432E+04  0.90318613309E+03 0.  0.
        -24    2    4    4    0    0  0.58426877998E+02 -0.63421747500E+03 -0.52324175918E+03  0.82826936618E+03  0.81256991909E+02 0.  0.
         24    2    4    4    0    0 -0.38865659431E+03 -0.12654284588E+03  0.16695893178E+03  0.44863727703E+03  0.79580659066E+02 0.  0.
         13    1    3    3    0    0  0.15132326934E+03  0.36766618450E+03 -0.74733733884E+03  0.84651654035E+03  0.00000000000E+00 0.  1.
        -13    1    3    3    0    0  0.17890644697E+03  0.39309413638E+03 -0.10313375900E+04  0.11181179461E+04  0.00000000000E+00 0. -1.
          2    1    6    6  502    0 -0.31491487064E+03 -0.13173582059E+03  0.14960808169E+03  0.37270401163E+03  0.00000000000E+00 0. -1.
          1    1    5    5  503    0  0.50142743148E+02 -0.62083758116E+03 -0.49367636936E+03  0.79477666960E+03  0.00000000000E+00 0. -1.
         -2    1    5    5    0  503  0.82841348500E+01 -0.13379893845E+02 -0.29565389815E+02  0.33492696583E+02  0.00000000000E+00 0.  1.
         -1    1    6    6    0  502 -0.73741723667E+02  0.51929747079E+01  0.17350850086E+02  0.75933265400E+02  0.00000000000E+00 0.  1.
<mgrwt>
<rscale>  0 0.24391688E+04</rscale>
<asrwt>0</asrwt>
<pdfrwt beam="1">  1        2 0.41357684E+00 0.24391688E+04</pdfrwt>
<pdfrwt beam="2">  1       -2 0.85121798E-01 0.24391688E+04</pdfrwt>
<totfact> 0.29049727E+00</totfact>
</mgrwt>
</event>
<event>
12    1  0.1397649E-007  0.1660580E+04  0.7818608E-02  0.8784172E-01
          1   -1    0    0  501    0  0.00000000000E+00  0.00000000000E+00  0.51616329793E+03  0.51616329793E+03  0.00000000000E+00 0. -1.
         -1   -1    0    0    0  501 -0.00000000000E+00 -0.00000000000E+00 -0.13355872937E+04  0.13355872937E+04  0.00000000000E+00 0.  1.
         23    2    1    2    0    0  0.38270418688E+03 -0.32339454844E+03  0.51843818997E+02  0.51223810805E+03  0.93024562129E+02 0.  0.
        254    2    1    2    0    0 -0.38270418688E+03  0.32339454844E+03 -0.87126781472E+03  0.13395124835E+04  0.88551654980E+03 0.  0.
        -24    2    4    4    0    0 -0.28336598099E+03  0.25788646340E+03  0.59921296708E+02  0.39732428737E+03  0.86454151715E+02 0.  0.
         24    2    4    4    0    0 -0.99338205891E+02  0.65508085036E+02 -0.93118911143E+03  0.94218819616E+03  0.80287280411E+02 0.  0.
         13    1    3    3    0    0  0.11781358576E+03 -0.62921948713E+02  0.44102400871E+02  0.14065644095E+03  0.00000000000E+00 0.  1.
        -13    1    3    3    0    0  0.26489060112E+03 -0.26047259972E+03  0.77414181254E+01  0.37158166710E+03  0.00000000000E+00 0. -1.
          2    1    6    6  502    0 -0.29954807070E+02  0.32604215088E+02 -0.62318745388E+03  0.62475829565E+03  0.00000000000E+00 0. -1.
          1    1    5    5  503    0 -0.25111485436E+03  0.25679802998E+03  0.63897938848E+02  0.36481069731E+03  0.00000000000E+00 0. -1.
         -2    1    5    5    0  503 -0.32251126625E+02  0.10884334216E+01 -0.39766421399E+01  0.32513590061E+02  0.00000000000E+00 0.  1.
         -1    1    6    6    0  502 -0.69383398821E+02  0.32903869948E+02 -0.30800165754E+03  0.31742990051E+03  0.00000000000E+00 0.  1.
<mgrwt>
<rscale>  0 0.16605796E+04</rscale>
<asrwt>0</asrwt>
<pdfrwt beam="1">  1        1 0.79409738E-01 0.16605796E+04</pdfrwt>
<pdfrwt beam="2">  1       -1 0.20547497E+00 0.16605796E+04</pdfrwt>
<totfact> 0.55870233E+00</totfact>
</mgrwt>
</event>
<event>
12    1  0.1397649E-007  0.1335315E+04  0.7818608E-02  0.9002019E-01
          1   -1    0    0  501    0  0.00000000000E+00  0.00000000000E+00  0.27569390896E+03  0.27569390896E+03  0.00000000000E+00 0. -1.
         -1   -1    0    0    0  501 -0.00000000000E+00 -0.00000000000E+00 -0.16168898021E+04  0.16168898021E+04  0.00000000000E+00 0.  1.
         23    2    1    2    0    0 -0.32268559869E+03  0.10675979428E+02 -0.16613132734E+03  0.37348642830E+03  0.87478694911E+02 0.  0.
        254    2    1    2    0    0  0.32268559869E+03 -0.10675979428E+02 -0.11750645658E+04  0.15190972828E+04  0.90699495509E+03 0.  0.
        -24    2    4    4    0    0 -0.28219016005E+03  0.15243911327E+03 -0.42956192479E+03  0.54193219610E+03  0.79360495567E+02 0.  0.
         24    2    4    4    0    0  0.60487575874E+03 -0.16311509270E+03 -0.74550264103E+03  0.97716508667E+03  0.81217004709E+02 0.  0.
         13    1    3    3    0    0 -0.75680092261E+02  0.13115326159E+02 -0.82441220107E+02  0.11267671861E+03  0.00000000000E+00 0.  1.
        -13    1    3    3    0    0 -0.24700550643E+03 -0.24393467307E+01 -0.83690107232E+02  0.26080970969E+03  0.00000000000E+00 0. -1.
          4    1    6    6  502    0  0.15922381514E+03 -0.48852475524E+02 -0.14604853944E+03  0.22151515421E+03  0.00000000000E+00 0. -1.
          3    1    5    5  503    0 -0.13546993585E+03  0.29476064081E+02 -0.19247387833E+03  0.23720694702E+03  0.00000000000E+00 0. -1.
         -4    1    5    5    0  503 -0.14672022420E+03  0.12296304919E+03 -0.23708804645E+03  0.30472524908E+03  0.00000000000E+00 0.  1.
         -3    1    6    6    0  502  0.44565194360E+03 -0.11426261718E+03 -0.59945410159E+03  0.75564993246E+03  0.00000000000E+00 0.  1.
<mgrwt>
<rscale>  0 0.13353152E+04</rscale>
<asrwt>0</asrwt>
<pdfrwt beam="1">  1        1 0.42414448E-01 0.13353152E+04</pdfrwt>
<pdfrwt beam="2">  1       -1 0.24875228E+00 0.13353152E+04</pdfrwt>
<totfact> 0.68239976E+00</totfact>
</mgrwt>
</event>
<event>
12    1  0.1397649E-007  0.1139300E+04  0.7818608E-02  0.9167712E-01
         -2   -1    0    0    0  501 -0.00000000000E+00  0.00000000000E+00  0.80243104208E+03  0.80243104208E+03  0.00000000000E+00 0.  1.
          2   -1    0    0  501    0  0.00000000000E+00 -0.00000000000E+00 -0.40439746782E+03  0.40439746782E+03  0.00000000000E+00 0. -1.
         23    2    1    2    0    0 -0.15294570271E+03  0.55597546252E+02 -0.56954458697E+02  0.19610634739E+03  0.93436684399E+02 0.  0.
        254    2    1    2    0    0  0.15294570271E+03 -0.55597546252E+02  0.45498803295E+03  0.10107221625E+04  0.88772839571E+03 0.  0.
        -24    2    4    4    0    0  0.18638975254E+03  0.10801426189E+03 -0.21586593110E+03  0.31506506099E+03  0.79118087845E+02 0.  0.
         24    2    4    4    0    0 -0.33444049822E+02 -0.16361180814E+03  0.67085396405E+03  0.69565710153E+03  0.77501184512E+02 0.  0.
         11    1    3    3    0    0 -0.75488294123E+01  0.24048502152E+01 -0.39519918685E+02  0.40306229083E+02  0.00000000000E+00 0.  1.
        -11    1    3    3    0    0 -0.14539687330E+03  0.53192696037E+02 -0.17434540012E+02  0.15580011830E+03  0.00000000000E+00 0. -1.
          4    1    6    6  502    0  0.51224349774E+01 -0.11205331600E+03  0.32373662997E+03  0.34261872476E+03  0.00000000000E+00 0. -1.
          3    1    5    5  503    0  0.18459318363E+03  0.10335392980E+03 -0.22232780825E+03  0.30689791881E+03  0.00000000000E+00 0. -1.
         -4    1    5    5    0  503  0.17965689043E+01  0.46603320917E+01  0.64618771523E+01  0.81671421785E+01  0.00000000000E+00 0.  1.
         -3    1    6    6    0  502 -0.38566484799E+02 -0.51558492142E+02  0.34711733407E+03  0.35303837677E+03  0.00000000000E+00 0.  1.
<mgrwt>
<rscale>  0 0.11392999E+04</rscale>
<asrwt>0</asrwt>
<pdfrwt beam="1">  1        2 0.62214995E-01 0.11392999E+04</pdfrwt>
<pdfrwt beam="2">  1       -2 0.12345093E+00 0.11392999E+04</pdfrwt>
<totfact> 0.38469293E+01</totfact>
</mgrwt>
</event>
<event>
12    1  0.1397649E-007  0.2248937E+04  0.7818608E-02  0.8498331E-01
          2   -1    0    0  501    0  0.00000000000E+00  0.00000000000E+00  0.33027898856E+04  0.33027898856E+04  0.00000000000E+00 0. -1.
         -2   -1    0    0    0  501 -0.00000000000E+00 -0.00000000000E+00 -0.38283674450E+03  0.38283674450E+03  0.00000000000E+00 0.  1.
         23    2    1    2    0    0 -0.47141122769E+03  0.57816545514E+03  0.20361127572E+04  0.21703831235E+04  0.91125758020E+02 0.  0.
        254    2    1    2    0    0  0.47141122769E+03 -0.57816545514E+03  0.88384038389E+03  0.15152435066E+04  0.97892043642E+03 0.  0.
        -24    2    4    4    0    0  0.59962861093E+03 -0.71711424271E+03  0.91129878236E+03  0.13078920846E+04  0.79428748987E+02 0.  0.
         24    2    4    4    0    0 -0.12821738324E+03  0.13894878757E+03 -0.27458398469E+02  0.20735142192E+03  0.80586510009E+02 0.  0.
         11    1    3    3    0    0 -0.82287665082E+02  0.53377278561E+02  0.28011977921E+03  0.29679535777E+03  0.00000000000E+00 0.  1.
        -11    1    3    3    0    0 -0.38912356261E+03  0.52478817658E+03  0.17559929780E+04  0.18735877658E+04  0.00000000000E+00 0. -1.
          4    1    6    6  502    0 -0.23033976632E+02  0.27960628783E+02  0.26839450264E+02  0.45085662155E+02  0.00000000000E+00 0. -1.
          3    1    5    5  503    0  0.16113293828E+03 -0.14101058240E+03  0.20396133619E+03  0.29571613890E+03  0.00000000000E+00 0. -1.
         -4    1    5    5    0  503  0.43849567265E+03 -0.57610366031E+03  0.70733744618E+03  0.10121759457E+04  0.00000000000E+00 0.  1.
         -3    1    6    6    0  502 -0.10518340661E+03  0.11098815879E+03 -0.54297848733E+02  0.16226575977E+03  0.00000000000E+00 0.  1.
<mgrwt>
<rscale>  0 0.22489369E+04</rscale>
<asrwt>0</asrwt>
<pdfrwt beam="1">  1        2 0.50812150E+00 0.22489369E+04</pdfrwt>
<pdfrwt beam="2">  1       -2 0.58897963E-01 0.22489369E+04</pdfrwt>
<totfact> 0.27253351E+00</totfact>
</mgrwt>
</event>
<event>
12    1  0.1397649E-007  0.1448531E+04  0.7818608E-02  0.8919419E-01
          1   -1    0    0  501    0  0.00000000000E+00  0.00000000000E+00  0.43949454758E+03  0.43949454758E+03  0.00000000000E+00 0. -1.
         -1   -1    0    0    0  501 -0.00000000000E+00 -0.00000000000E+00 -0.11935545161E+04  0.11935545161E+04  0.00000000000E+00 0.  1.
         23    2    1    2    0    0 -0.18734173049E+03 -0.27592768527E+03 -0.57738836634E+03  0.67307402922E+03  0.91751358261E+02 0.  0.
        254    2    1    2    0    0  0.18734173049E+03  0.27592768527E+03 -0.17667160216E+03  0.95997503445E+03  0.88266992713E+03 0.  0.
        -24    2    4    4    0    0  0.42417812822E+03  0.17184213060E+03 -0.39668656058E+03  0.61086616265E+03  0.79626873759E+02 0.  0.
         24    2    4    4    0    0 -0.23683639773E+03  0.10408555468E+03  0.22001495842E+03  0.34910887179E+03  0.80902042352E+02 0.  0.
         11    1    3    3    0    0 -0.18065116436E+03 -0.26310706801E+03 -0.57604556471E+03  0.65855042711E+03  0.00000000000E+00 0.  1.
        -11    1    3    3    0    0 -0.66905661373E+01 -0.12820617263E+02 -0.13428016333E+01  0.14523602117E+02  0.00000000000E+00 0. -1.
          4    1    6    6  502    0 -0.21781582714E+03  0.71189065757E+02  0.20739085125E+03  0.30906727878E+03  0.00000000000E+00 0. -1.
          3    1    5    5  503    0  0.41607699778E+03  0.17972692119E+03 -0.38711409270E+03  0.59605298007E+03  0.00000000000E+00 0. -1.
         -4    1    5    5    0  503  0.81011304349E+01 -0.78847905894E+01 -0.95724678758E+01  0.14813182582E+02  0.00000000000E+00 0.  1.
         -3    1    6    6    0  502 -0.19020570588E+02  0.32896488919E+02  0.12624107172E+02  0.40041593008E+02  0.00000000000E+00 0.  1.
<mgrwt>
<rscale>  0 0.14485313E+04</rscale>
<asrwt>0</asrwt>
<pdfrwt beam="1">  1        1 0.67614546E-01 0.14485313E+04</pdfrwt>
<pdfrwt beam="2">  1       -1 0.18362377E+00 0.14485313E+04</pdfrwt>
<totfact> 0.10066145E+01</totfact>
</mgrwt>
</event>
<event>
12    1  0.1397649E-007  0.1617497E+04  0.7818608E-02  0.8809870E-01
         -1   -1    0    0    0  501 -0.00000000000E+00  0.00000000000E+00  0.37593765015E+03  0.37593765015E+03  0.00000000000E+00 0.  1.
          1   -1    0    0  501    0  0.00000000000E+00 -0.00000000000E+00 -0.17398479434E+04  0.17398479434E+04  0.00000000000E+00 0. -1.
         23    2    1    2    0    0  0.49386274853E+03  0.20697792297E+03 -0.60999649021E+03  0.81674021688E+03  0.90711569416E+02 0.  0.
        254    2    1    2    0    0 -0.49386274853E+03 -0.20697792297E+03 -0.75391380302E+03  0.12990453766E+04  0.91235551910E+03 0.  0.
        -24    2    4    4    0    0 -0.21323253207E+03  0.19313723071E+03  0.99591834311E+02  0.31233323737E+03  0.69738189594E+02 0.  0.
         24    2    4    4    0    0 -0.28063021646E+03 -0.40011515368E+03 -0.85350563733E+03  0.98671213928E+03  0.79268646083E+02 0.  0.
         11    1    3    3    0    0  0.67197165545E+02  0.24258360298E+02 -0.40726949876E+02  0.82235099245E+02  0.00000000000E+00 0.  1.
        -11    1    3    3    0    0  0.42666558298E+03  0.18271956267E+03 -0.56926954034E+03  0.73450511764E+03  0.00000000000E+00 0. -1.
          2    1    6    6  502    0 -0.21712636224E+03 -0.28345459700E+03 -0.68170831611E+03  0.76955610192E+03  0.00000000000E+00 0. -1.
          3    1    5    5  503    0 -0.88276272417E+02  0.55081628415E+02  0.65723737202E+02  0.12307028761E+03  0.00000000000E+00 0. -1.
         -4    1    5    5    0  503 -0.12495625965E+03  0.13805560229E+03  0.33868097109E+02  0.18926294976E+03  0.00000000000E+00 0.  1.
         -1    1    6    6    0  502 -0.63503854215E+02 -0.11666055668E+03 -0.17179732122E+03  0.21715603736E+03  0.00000000000E+00 0.  1.
<mgrwt>
<rscale>  0 0.16174973E+04</rscale>
<asrwt>0</asrwt>
<pdfrwt beam="1">  1        1 0.26766892E+00 0.16174973E+04</pdfrwt>
<pdfrwt beam="2">  1       -1 0.57836560E-01 0.16174973E+04</pdfrwt>
<totfact> 0.12990601E+01</totfact>
</mgrwt>
</event>
<event>
12    1  0.1397649E-007  0.2802447E+04  0.7818608E-02  0.8302509E-01
          2   -1    0    0  501    0  0.00000000000E+00  0.00000000000E+00  0.28116460106E+04  0.28116460106E+04  0.00000000000E+00 0. -1.
         -2   -1    0    0    0  501 -0.00000000000E+00 -0.00000000000E+00 -0.69831941746E+03  0.69831941746E+03  0.00000000000E+00 0.  1.
         23    2    1    2    0    0 -0.35283864032E+02 -0.10806896715E+04  0.17174627351E+04  0.20318835191E+04  0.98677614546E+02 0.  0.
        254    2    1    2    0    0  0.35283864032E+02  0.10806896715E+04  0.39586385807E+03  0.14780819090E+04  0.92675930976E+03 0.  0.
        -24    2    4    4    0    0 -0.28962543289E+03  0.10429488170E+04  0.26479078079E+03  0.11167965396E+04  0.74129798157E+02 0.  0.
         24    2    4    4    0    0  0.32490929692E+03  0.37740854545E+02  0.13107307729E+03  0.36128536938E+03  0.79727932456E+02 0.  0.
         13    1    3    3    0    0 -0.95596584047E+01 -0.86436312653E+03  0.13030500513E+04  0.15636989600E+04  0.00000000000E+00 0. -1.
        -13    1    3    3    0    0 -0.25724205627E+02 -0.21632654501E+03  0.41441268384E+03  0.46818455908E+03  0.00000000000E+00 0.  1.
          4    1    6    6  502    0  0.13278053336E+02  0.15271018738E+02  0.23109896703E+02  0.30717715399E+02  0.00000000000E+00 0. -1.
          3    1    5    5  503    0 -0.44779850560E+02  0.11879607538E+03  0.53038719161E+02  0.13758941918E+03  0.00000000000E+00 0. -1.
         -4    1    5    5    0  503 -0.24484558233E+03  0.92415274162E+03  0.21175206163E+03  0.97920712039E+03  0.00000000000E+00 0.  1.
         -3    1    6    6    0  502  0.31163124358E+03  0.22469835807E+02  0.10796318058E+03  0.33056765398E+03  0.00000000000E+00 0.  1.
<mgrwt>
<rscale>  0 0.28024468E+04</rscale>
<asrwt>0</asrwt>
<pdfrwt beam="1">  1        2 0.43256092E+00 0.28024468E+04</pdfrwt>
<pdfrwt beam="2">  1       -2 0.10743376E+00 0.28024468E+04</pdfrwt>
<totfact> 0.13763275E+00</totfact>
</mgrwt>
</event>
<event>
12    1  0.1397649E-007  0.1541577E+04  0.7818608E-02  0.8857266E-01
         -1   -1    0    0    0  501 -0.00000000000E+00  0.00000000000E+00  0.24135808571E+03  0.24135808571E+03  0.00000000000E+00 0. -1.
          1   -1    0    0  501    0  0.00000000000E+00 -0.00000000000E+00 -0.24615509957E+04  0.24615509957E+04  0.00000000000E+00 0.  1.
         23    2    1    2    0    0 -0.29217763926E+03  0.38932150625E+03 -0.94905162293E+03  0.10702800851E+04  0.88664927691E+02 0.  0.
        254    2    1    2    0    0  0.29217763926E+03 -0.38932150625E+03 -0.12711412870E+04  0.16326289963E+04  0.90151997201E+03 0.  0.
        -24    2    4    4    0    0 -0.30634355738E+03 -0.50138386888E+02 -0.52155357372E+03  0.61210849460E+03  0.79362748898E+02 0.  0.
         24    2    4    4    0    0  0.59852119664E+03 -0.33918311936E+03 -0.74958771333E+03  0.10205205017E+04  0.79420042791E+02 0.  0.
         11    1    3    3    0    0 -0.87036072236E+02  0.11968142484E+03 -0.38281397545E+03  0.41042107782E+03  0.00000000000E+00 0. -1.
        -11    1    3    3    0    0 -0.20514156702E+03  0.26964008140E+03 -0.56623764748E+03  0.65985900724E+03  0.00000000000E+00 0.  1.
          2    1    6    6  502    0  0.64265287199E+02 -0.10600379961E+02 -0.64048182247E+02  0.91348589716E+02  0.00000000000E+00 0. -1.
          1    1    5    5  503    0 -0.16363599956E+03 -0.64612448467E+02 -0.31157523464E+03  0.35781368851E+03  0.00000000000E+00 0. -1.
         -2    1    5    5    0  503 -0.14270755783E+03  0.14474061579E+02 -0.20997833908E+03  0.25429480608E+03  0.00000000000E+00 0.  1.
         -1    1    6    6    0  502  0.53425590944E+03 -0.32858273940E+03 -0.68553953108E+03  0.92917191202E+03  0.00000000000E+00 0.  1.
<mgrwt>
<rscale>  0 0.15415774E+04</rscale>
<asrwt>0</asrwt>
<pdfrwt beam="1">  1        1 0.37870014E+00 0.15415774E+04</pdfrwt>
<pdfrwt beam="2">  1       -1 0.37132015E-01 0.15415774E+04</pdfrwt>
<totfact> 0.97078633E+00</totfact>
</mgrwt>
</event>
<event>
12    1  0.1397649E-007  0.1285328E+04  0.7818608E-02  0.9041282E-01
          2   -1    0    0  501    0  0.00000000000E+00  0.00000000000E+00  0.12816546926E+04  0.12816546926E+04  0.00000000000E+00 0. -1.
         -2   -1    0    0    0  501 -0.00000000000E+00 -0.00000000000E+00 -0.32225272528E+03  0.32225272528E+03  0.00000000000E+00 0.  1.
         23    2    1    2    0    0 -0.18712956262E+03 -0.25296740734E+03  0.16900061734E+03  0.37206409223E+03  0.10421371161E+03 0.  0.
        254    2    1    2    0    0  0.18712956262E+03  0.25296740734E+03  0.79040135003E+03  0.12318433257E+04  0.89089488861E+03 0.  0.
        -24    2    4    4    0    0  0.39324338197E+03  0.41917468448E+03  0.75619075705E+03  0.95312574711E+03  0.79224082089E+02 0.  0.
         24    2    4    4    0    0 -0.20611381935E+03 -0.16620727714E+03  0.34210592981E+02  0.27871757859E+03  0.80033483241E+02 0.  0.
         11    1    3    3    0    0 -0.13125233519E+03 -0.91154062874E+02  0.91573032301E+02  0.18417887750E+03  0.00000000000E+00 0. -1.
        -11    1    3    3    0    0 -0.55877227426E+02 -0.16181334446E+03  0.77427585036E+02  0.18788521473E+03  0.00000000000E+00 0.  1.
          4    1    6    6  502    0 -0.94786831205E+02 -0.93688453937E+02 -0.20852893346E+02  0.13489593371E+03  0.00000000000E+00 0. -1.
          3    1    5    5  503    0  0.21257305007E+02  0.56578851960E+02  0.88200408822E+02  0.10692217554E+03  0.00000000000E+00 0. -1.
         -4    1    5    5    0  503  0.37198607696E+03  0.36259583252E+03  0.66799034822E+03  0.84620357157E+03  0.00000000000E+00 0.  1.
         -3    1    6    6    0  502 -0.11132698815E+03 -0.72518823206E+02  0.55063486327E+02  0.14382164488E+03  0.00000000000E+00 0.  1.
<mgrwt>
<rscale>  0 0.12853275E+04</rscale>
<asrwt>0</asrwt>
<pdfrwt beam="1">  1        2 0.19717764E+00 0.12853275E+04</pdfrwt>
<pdfrwt beam="2">  1       -2 0.49577343E-01 0.12853275E+04</pdfrwt>
<totfact> 0.63997991E+01</totfact>
</mgrwt>
</event>
<event>
12    1  0.1397649E-007  0.1543406E+04  0.7818608E-02  0.8856091E-01
         -2   -1    0    0    0  501 -0.00000000000E+00  0.00000000000E+00  0.98831061081E+03  0.98831061081E+03  0.00000000000E+00 0.  1.
          2   -1    0    0  501    0  0.00000000000E+00 -0.00000000000E+00 -0.60256884331E+03  0.60256884331E+03  0.00000000000E+00 0. -1.
         23    2    1    2    0    0 -0.27444393923E+03  0.73846733863E+02 -0.20382156402E+03  0.36212187408E+03  0.93894652938E+02 0.  0.
        254    2    1    2    0    0  0.27444393923E+03 -0.73846733863E+02  0.58956333152E+03  0.12287575800E+04  0.10399458893E+04 0.  0.
        -24    2    4    4    0    0  0.14779850430E+03  0.36967327646E+03 -0.77848525826E+02  0.41350825903E+03  0.80162074043E+02 0.  0.
         24    2    4    4    0    0  0.12664543492E+03 -0.44352001032E+03  0.66741185734E+03  0.81524932100E+03  0.80273297688E+02 0.  0.
         11    1    3    3    0    0 -0.62727664236E+02 -0.93760543691E+01 -0.83252901489E+02  0.10466000125E+03  0.00000000000E+00 0.  1.
        -11    1    3    3    0    0 -0.21171627499E+03  0.83222788232E+02 -0.12056866253E+03  0.25746187283E+03  0.00000000000E+00 0. -1.
          2    1    6    6  502    0  0.83424474825E+02 -0.36909953128E+03  0.58043360450E+03  0.69289052254E+03  0.00000000000E+00 0. -1.
          3    1    5    5  503    0  0.14840320336E+03  0.37316377421E+03 -0.74134341332E+02  0.40837557923E+03  0.00000000000E+00 0. -1.
         -4    1    5    5    0  503 -0.60469905999E+00 -0.34904977490E+01 -0.37141844946E+01  0.51326798019E+01  0.00000000000E+00 0.  1.
         -1    1    6    6    0  502  0.43220960100E+02 -0.74420479043E+02  0.86978252846E+02  0.12235879846E+03  0.00000000000E+00 0.  1.
<mgrwt>
<rscale>  0 0.15434056E+04</rscale>
<asrwt>0</asrwt>
<pdfrwt beam="1">  1        2 0.92702898E-01 0.15434056E+04</pdfrwt>
<pdfrwt beam="2">  1       -2 0.15204779E+00 0.15434056E+04</pdfrwt>
<totfact> 0.13722447E+01</totfact>
</mgrwt>
</event>
<event>
12    1  0.1397649E-007  0.1883310E+04  0.7818608E-02  0.8663209E-01
          2   -1    0    0  501    0  0.00000000000E+00  0.00000000000E+00  0.24932584629E+04  0.24932584629E+04  0.00000000000E+00 0. -1.
         -2   -1    0    0    0  501 -0.00000000000E+00 -0.00000000000E+00 -0.35564452348E+03  0.35564452348E+03  0.00000000000E+00 0.  1.
         23    2    1    2    0    0  0.68225444207E+03 -0.99509643617E+02  0.92219016969E+03  0.11550347610E+04  0.91089500942E+02 0.  0.
        254    2    1    2    0    0 -0.68225444207E+03  0.99509643617E+02  0.12154237697E+04  0.16938682253E+04  0.95737209693E+03 0.  0.
        -24    2    4    4    0    0 -0.50247985553E+03 -0.35505973514E+03  0.94238938255E+03  0.11281497378E+04  0.77914451432E+02 0.  0.
         24    2    4    4    0    0 -0.17977458654E+03  0.45456937876E+03  0.27303438716E+03  0.56571848759E+03  0.80854242650E+02 0.  0.
         13    1    3    3    0    0  0.64933746692E+03 -0.85781097720E+02  0.89973844426E+03  0.11128911945E+04  0.00000000000E+00 0.  1.
        -13    1    3    3    0    0  0.32916975153E+02 -0.13728545897E+02  0.22451725433E+02  0.42143566538E+02  0.00000000000E+00 0. -1.
          4    1    6    6  502    0 -0.85668123407E+02  0.27988926254E+03  0.12556953569E+03  0.31850390099E+03  0.00000000000E+00 0. -1.
          3    1    5    5  503    0 -0.33648741659E+03 -0.19194783160E+03  0.58024836032E+03  0.69767894567E+03  0.00000000000E+00 0. -1.
         -4    1    5    5    0  503 -0.16599243894E+03 -0.16311190355E+03  0.36214102223E+03  0.43047079209E+03  0.00000000000E+00 0.  1.
         -3    1    6    6    0  502 -0.94106463131E+02  0.17468011621E+03  0.14746485147E+03  0.24721458659E+03  0.00000000000E+00 0.  1.
<mgrwt>
<rscale>  0 0.18833096E+04</rscale>
<asrwt>0</asrwt>
<pdfrwt beam="1">  1        2 0.38357821E+00 0.18833096E+04</pdfrwt>
<pdfrwt beam="2">  1       -2 0.54714544E-01 0.18833096E+04</pdfrwt>
<totfact> 0.10361847E+01</totfact>
</mgrwt>
</event>
<event>
12    1  0.1397649E-007  0.1821455E+04  0.7818608E-02  0.8694973E-01
         -2   -1    0    0    0  501 -0.00000000000E+00  0.00000000000E+00  0.45450493077E+03  0.45450493077E+03  0.00000000000E+00 0.  1.
          2   -1    0    0  501    0  0.00000000000E+00 -0.00000000000E+00 -0.18248957716E+04  0.18248957716E+04  0.00000000000E+00 0. -1.
         23    2    1    2    0    0  0.20003293399E+03 -0.41148025721E+03 -0.12246700245E+04  0.13105252820E+04  0.91272499271E+02 0.  0.
        254    2    1    2    0    0 -0.20003293399E+03  0.41148025721E+03 -0.14572081634E+03  0.96887542036E+03  0.84151996240E+03 0.  0.
        -24    2    4    4    0    0 -0.32667971111E+03  0.61356131739E+03 -0.54849646538E+02  0.70134410374E+03  0.75484728760E+02 0.  0.
         24    2    4    4    0    0  0.12664677712E+03 -0.20208106017E+03 -0.90871169801E+02  0.26753131663E+03  0.80245092314E+02 0.  0.
         13    1    3    3    0    0  0.19725154342E+02 -0.15858296755E+02 -0.13442511416E+03  0.13678698259E+03  0.00000000000E+00 0.  1.
        -13    1    3    3    0    0  0.18030777965E+03 -0.39562196046E+03 -0.10902449103E+04  0.11737382994E+04  0.00000000000E+00 0. -1.
          2    1    6    6  502    0  0.11406822901E+03 -0.12691393128E+03 -0.86194024164E+02  0.19117561723E+03  0.00000000000E+00 0. -1.
          1    1    5    5  503    0 -0.15732387530E+03  0.25826728020E+03  0.93173193143E+01  0.30255512258E+03  0.00000000000E+00 0. -1.
         -2    1    5    5    0  503 -0.16935583581E+03  0.35529403719E+03 -0.64166965852E+02  0.39878898115E+03  0.00000000000E+00 0.  1.
         -1    1    6    6    0  502  0.12578548102E+02 -0.75167128894E+02 -0.46771456375E+01  0.76355699393E+02  0.00000000000E+00 0.  1.
<mgrwt>
<rscale>  0 0.18214545E+04</rscale>
<asrwt>0</asrwt>
<pdfrwt beam="1">  1        2 0.28075320E+00 0.18214545E+04</pdfrwt>
<pdfrwt beam="2">  1       -2 0.69923836E-01 0.18214545E+04</pdfrwt>
<totfact> 0.14677008E+01</totfact>
</mgrwt>
</event>
<event>
12    1  0.1397649E-007  0.1319610E+04  0.7818608E-02  0.9014157E-01
         -1   -1    0    0    0  501 -0.00000000000E+00  0.00000000000E+00  0.10539971829E+04  0.10539971829E+04  0.00000000000E+00 0.  1.
          1   -1    0    0  501    0  0.00000000000E+00 -0.00000000000E+00 -0.41303961874E+03  0.41303961874E+03  0.00000000000E+00 0. -1.
         23    2    1    2    0    0  0.21492900478E+03  0.23199789529E+03  0.17612375506E+02  0.32841607108E+03  0.86772227454E+02 0.  0.
        254    2    1    2    0    0 -0.21492900478E+03 -0.23199789529E+03  0.62334518865E+03  0.11386207306E+04  0.89882169720E+03 0.  0.
        -24    2    4    4    0    0 -0.17675058206E+03 -0.47313389668E+03  0.70346523072E+03  0.86967720737E+03  0.79866524534E+02 0.  0.
         24    2    4    4    0    0 -0.38178422721E+02  0.24113600140E+03 -0.80120042061E+02  0.26894352320E+03  0.79418098699E+02 0.  0.
         11    1    3    3    0    0  0.17891572802E+03  0.19500761554E+03 -0.18684839096E+02  0.26530723900E+03  0.00000000000E+00 0. -1.
        -11    1    3    3    0    0  0.36013276765E+02  0.36990279742E+02  0.36297214602E+02  0.63108832081E+02  0.00000000000E+00 0.  1.
          4    1    6    6  502    0 -0.61578578440E+02  0.17784105907E+03 -0.48097912076E+02  0.19424925421E+03  0.00000000000E+00 0. -1.
          3    1    5    5  503    0 -0.94239620425E+01 -0.10639066301E+02  0.48908349277E+02  0.50931595511E+02  0.00000000000E+00 0. -1.
         -4    1    5    5    0  503 -0.16732662002E+03 -0.46249483038E+03  0.65455688144E+03  0.81874561186E+03  0.00000000000E+00 0.  1.
         -3    1    6    6    0  502  0.23400155719E+02  0.63294942328E+02 -0.32022129985E+02  0.74694268995E+02  0.00000000000E+00 0.  1.
<mgrwt>
<rscale>  0 0.13196099E+04</rscale>
<asrwt>0</asrwt>
<pdfrwt beam="1">  1        1 0.63544557E-01 0.13196099E+04</pdfrwt>
<pdfrwt beam="2">  1       -1 0.16215341E+00 0.13196099E+04</pdfrwt>
<totfact> 0.15872641E+01</totfact>
</mgrwt>
</event>
<event>
12    1  0.1397649E-007  0.1122225E+04  0.7818608E-02  0.9183796E-01
         -1   -1    0    0    0  501 -0.00000000000E+00  0.00000000000E+00  0.26269465996E+03  0.26269465996E+03  0.00000000000E+00 0.  1.
          1   -1    0    0  501    0  0.00000000000E+00 -0.00000000000E+00 -0.11985299438E+04  0.11985299438E+04  0.00000000000E+00 0. -1.
         23    2    1    2    0    0 -0.96811388825E+02 -0.66563571104E+02  0.10306058070E+02  0.14929613825E+03  0.91542165467E+02 0.  0.
        254    2    1    2    0    0  0.96811388825E+02  0.66563571104E+02 -0.94614134189E+03  0.13119284655E+04  0.90120458596E+03 0.  0.
        -24    2    4    4    0    0  0.47726337285E+03  0.40581962861E+02 -0.34497889656E+03  0.59578022770E+03  0.80724332565E+02 0.  0.
         24    2    4    4    0    0 -0.38045198403E+03  0.25981608242E+02 -0.60116244532E+03  0.71614823780E+03  0.77802678078E+02 0.  0.
         13    1    3    3    0    0 -0.70221907282E+02 -0.42204002015E+02  0.49751497797E+02  0.95851476679E+02  0.00000000000E+00 0.  1.
        -13    1    3    3    0    0 -0.26589481543E+02 -0.24359569089E+02 -0.39445439727E+02  0.53444661569E+02  0.00000000000E+00 0. -1.
          2    1    6    6  502    0 -0.30514747421E+03 -0.10866099103E+02 -0.46890265386E+03  0.55955585237E+03  0.00000000000E+00 0. -1.
          1    1    5    5  503    0  0.34963534693E+03  0.62614937418E+02 -0.26960190078E+03  0.44592677775E+03  0.00000000000E+00 0. -1.
         -2    1    5    5    0  503  0.12762802592E+03 -0.22032974556E+02 -0.75376995789E+02  0.14985344995E+03  0.00000000000E+00 0.  1.
         -1    1    6    6    0  502 -0.75304509817E+02  0.36847707345E+02 -0.13225979146E+03  0.15659238542E+03  0.00000000000E+00 0.  1.
<mgrwt>
<rscale>  0 0.11222253E+04</rscale>
<asrwt>0</asrwt>
<pdfrwt beam="1">  1        1 0.18438922E+00 0.11222253E+04</pdfrwt>
<pdfrwt beam="2">  1       -1 0.40414563E-01 0.11222253E+04</pdfrwt>
<totfact> 0.63665079E+01</totfact>
</mgrwt>
</event>
<event>
12    1  0.1397649E-007  0.1795750E+04  0.7818608E-02  0.8708563E-01
          1   -1    0    0  501    0  0.00000000000E+00  0.00000000000E+00  0.11673456429E+04  0.11673456429E+04  0.00000000000E+00 0. -1.
         -1   -1    0    0    0  501 -0.00000000000E+00 -0.00000000000E+00 -0.69060888193E+03  0.69060888193E+03  0.00000000000E+00 0.  1.
         23    2    1    2    0    0  0.26970600265E+03 -0.83203620828E+02  0.80189625959E+03  0.85536387617E+03  0.94581071728E+02 0.  0.
        254    2    1    2    0    0 -0.26970600265E+03  0.83203620828E+02 -0.32515949861E+03  0.10025906487E+04  0.90542539112E+03 0.  0.
        -24    2    4    4    0    0 -0.44490526203E+02  0.17995337051E+02 -0.61431727306E+03  0.62251709648E+03  0.88535780018E+02 0.  0.
         24    2    4    4    0    0 -0.22521547645E+03  0.65208283776E+02  0.28915777445E+03  0.38007355219E+03  0.76613024012E+02 0.  0.
         11    1    3    3    0    0  0.10138286766E+03 -0.68786285822E+02  0.42562530805E+03  0.44290737386E+03  0.00000000000E+00 0. -1.
        -11    1    3    3    0    0  0.16832313498E+03 -0.14417335006E+02  0.37627095154E+03  0.41245650230E+03  0.00000000000E+00 0.  1.
          2    1    6    6  502    0 -0.13860820062E+03  0.26914166383E+02  0.11609342944E+03  0.18279576031E+03  0.00000000000E+00 0. -1.
          1    1    5    5  503    0  0.79128648092E+01  0.42233012573E+02 -0.26040391536E+03  0.26392506496E+03  0.00000000000E+00 0. -1.
         -2    1    5    5    0  503 -0.52403391012E+02 -0.24237675522E+02 -0.35391335770E+03  0.35859203151E+03  0.00000000000E+00 0.  1.
         -1    1    6    6    0  502 -0.86607275826E+02  0.38294117393E+02  0.17306434502E+03  0.19727779188E+03  0.00000000000E+00 0.  1.
<mgrwt>
<rscale>  0 0.17957497E+04</rscale>
<asrwt>0</asrwt>
<pdfrwt beam="1">  1        1 0.17959164E+00 0.17957497E+04</pdfrwt>
<pdfrwt beam="2">  1       -1 0.10624752E+00 0.17957497E+04</pdfrwt>
<totfact> 0.88297136E+00</totfact>
</mgrwt>
</event>
<event>
12    1  0.1397649E-007  0.1471079E+04  0.7818608E-02  0.8903916E-01
          2   -1    0    0  501    0  0.00000000000E+00  0.00000000000E+00  0.97074617467E+03  0.97074617467E+03  0.00000000000E+00 0. -1.
         -2   -1    0    0    0  501 -0.00000000000E+00 -0.00000000000E+00 -0.55732226384E+03  0.55732226384E+03  0.00000000000E+00 0.  1.
         23    2    1    2    0    0  0.10456262292E+03  0.49002685200E+02  0.57741273408E+03  0.59590738642E+03  0.91463339296E+02 0.  0.
        254    2    1    2    0    0 -0.10456262292E+03 -0.49002685200E+02 -0.16398882325E+03  0.93216105210E+03  0.91032812086E+03 0.  0.
        -24    2    4    4    0    0  0.14198091531E+03 -0.12351371848E+03  0.31892378608E+03  0.37864081503E+03  0.79008015505E+02 0.  0.
         24    2    4    4    0    0 -0.24654353823E+03  0.74511033279E+02 -0.48291260934E+03  0.55352023707E+03  0.82731216985E+02 0.  0.
         11    1    3    3    0    0  0.10712238003E+03  0.17092930370E+02  0.50822079502E+03  0.51966888406E+03  0.00000000000E+00 0. -1.
        -11    1    3    3    0    0 -0.25597571127E+01  0.31909754829E+02  0.69191939064E+02  0.76238502354E+02  0.00000000000E+00 0.  1.
          2    1    6    6  502    0 -0.98802848908E+02  0.54680192915E+01 -0.11919847619E+03  0.15491991129E+03  0.00000000000E+00 0. -1.
          1    1    5    5  503    0  0.26065064218E+02 -0.92819384606E+01  0.99061058092E+01  0.29388312074E+02  0.00000000000E+00 0. -1.
         -2    1    5    5    0  503  0.11591585109E+03 -0.11423178002E+03  0.30901768027E+03  0.34925250296E+03  0.00000000000E+00 0.  1.
         -3    1    6    6    0  502 -0.14774068932E+03  0.69043013988E+02 -0.36371413314E+03  0.39860032578E+03  0.00000000000E+00 0.  1.
<mgrwt>
<rscale>  0 0.14710791E+04</rscale>
<asrwt>0</asrwt>
<pdfrwt beam="1">  1        2 0.14934557E+00 0.14710791E+04</pdfrwt>
<pdfrwt beam="2">  1       -2 0.85741887E-01 0.14710791E+04</pdfrwt>
<totfact> 0.30103316E+01</totfact>
</mgrwt>
</event>
<event>
12    1  0.1397649E-007  0.2045823E+04  0.7818608E-02  0.8585492E-01
          2   -1    0    0  501    0  0.00000000000E+00  0.00000000000E+00  0.10349504336E+04  0.10349504336E+04  0.00000000000E+00 0. -1.
         -2   -1    0    0    0  501 -0.00000000000E+00 -0.00000000000E+00 -0.10110126198E+04  0.10110126198E+04  0.00000000000E+00 0.  1.
         23    2    1    2    0    0  0.65920939674E+03  0.49283716514E+03 -0.76234763657E+02  0.83185050912E+03  0.93370392682E+02 0.  0.
        254    2    1    2    0    0 -0.65920939674E+03 -0.49283716514E+03  0.10017257747E+03  0.12141125442E+04  0.88689865524E+03 0.  0.
        -24    2    4    4    0    0 -0.27856883301E+03 -0.47513060452E+03  0.43083052264E+03  0.70352654526E+03  0.77362617409E+02 0.  0.
         24    2    4    4    0    0 -0.38064056373E+03 -0.17706560629E+02 -0.33065794517E+03  0.51058599897E+03  0.78502385872E+02 0.  0.
         11    1    3    3    0    0  0.65454639647E+02  0.20717746506E+02  0.55328494821E+01  0.68877770688E+02  0.00000000000E+00 0.  1.
        -11    1    3    3    0    0  0.59375475709E+03  0.47211941864E+03 -0.81767613139E+02  0.76297273843E+03  0.00000000000E+00 0. -1.
          4    1    6    6  502    0 -0.70288043613E+02  0.16452351158E+02 -0.95477023427E+02  0.11969524191E+03  0.00000000000E+00 0. -1.
          3    1    5    5  503    0 -0.27973875428E+03 -0.47757156948E+03  0.42887506656E+03  0.70018725877E+03  0.00000000000E+00 0. -1.
         -4    1    5    5    0  503  0.11699212736E+01  0.24409649686E+01  0.19554560789E+01  0.33392864868E+01  0.00000000000E+00 0.  1.
         -3    1    6    6    0  502 -0.31035252012E+03 -0.34158911787E+02 -0.23518092175E+03  0.39089075706E+03  0.00000000000E+00 0.  1.
<mgrwt>
<rscale>  0 0.20458230E+04</rscale>
<asrwt>0</asrwt>
<pdfrwt beam="1">  1        2 0.15922314E+00 0.20458230E+04</pdfrwt>
<pdfrwt beam="2">  1       -2 0.15554040E+00 0.20458230E+04</pdfrwt>
<totfact> 0.60225643E+00</totfact>
</mgrwt>
</event>
<event>
12    1  0.1397649E-007  0.2448629E+04  0.7818608E-02  0.8421519E-01
          1   -1    0    0  501    0  0.00000000000E+00  0.00000000000E+00  0.12697726266E+04  0.12697726266E+04  0.00000000000E+00 0. -1.
         -1   -1    0    0    0  501 -0.00000000000E+00 -0.00000000000E+00 -0.11804841050E+04  0.11804841050E+04  0.00000000000E+00 0.  1.
         23    2    1    2    0    0  0.20271134981E+03 -0.36877334588E+03  0.10068483172E+04  0.10950630969E+04  0.91290636492E+02 0.  0.
        254    2    1    2    0    0 -0.20271134981E+03  0.36877334588E+03 -0.91755979563E+03  0.13551936348E+04  0.90418368556E+03 0.  0.
        -24    2    4    4    0    0 -0.13732209591E+03  0.30386058089E+03  0.78378484548E+02  0.35202699008E+03  0.81186231976E+02 0.  0.
         24    2    4    4    0    0 -0.65389253901E+02  0.64912764992E+02 -0.99593828018E+03  0.10031666447E+04  0.77206460444E+02 0.  0.
         13    1    3    3    0    0  0.31425471308E+02 -0.16962592148E+02  0.13103575113E+03  0.13581479246E+03  0.00000000000E+00 0.  1.
        -13    1    3    3    0    0  0.17128587850E+03 -0.35181075373E+03  0.87581256610E+03  0.95924830443E+03  0.00000000000E+00 0. -1.
          4    1    6    6  502    0 -0.81185466321E+01 -0.15271936812E+02 -0.74830848060E+02  0.76803637119E+02  0.00000000000E+00 0. -1.
          1    1    5    5  503    0 -0.72167564852E+02  0.24445635099E+03  0.53918608821E+02  0.26052693015E+03  0.00000000000E+00 0. -1.
         -2    1    5    5    0  503 -0.65154531056E+02  0.59404229903E+02  0.24459875727E+02  0.91500059934E+02  0.00000000000E+00 0.  1.
         -3    1    6    6    0  502 -0.57270707268E+02  0.80184701804E+02 -0.92110743212E+03  0.92636300759E+03  0.00000000000E+00 0.  1.
<mgrwt>
<rscale>  0 0.24486293E+04</rscale>
<asrwt>0</asrwt>
<pdfrwt beam="1">  1        1 0.19534963E+00 0.24486293E+04</pdfrwt>
<pdfrwt beam="2">  1       -1 0.18161294E+00 0.24486293E+04</pdfrwt>
<totfact> 0.17195884E+00</totfact>
</mgrwt>
</event>
<event>
12    1  0.1397649E-007  0.1594232E+04  0.7818608E-02  0.8824100E-01
          1   -1    0    0  501    0  0.00000000000E+00  0.00000000000E+00  0.73290849750E+03  0.73290849750E+03  0.00000000000E+00 0. -1.
         -1   -1    0    0    0  501 -0.00000000000E+00 -0.00000000000E+00 -0.86694815016E+03  0.86694815016E+03  0.00000000000E+00 0.  1.
         23    2    1    2    0    0 -0.28926000393E+03  0.45165368951E+03 -0.59503283243E+02  0.54738146188E+03  0.91779185945E+02 0.  0.
        254    2    1    2    0    0  0.28926000393E+03 -0.45165368951E+03 -0.74536369420E+02  0.10524751858E+04  0.90248874851E+03 0.  0.
        -24    2    4    4    0    0 -0.13288110282E+03  0.20872355479E+03  0.80837632227E+01  0.26038773685E+03  0.80706359515E+02 0.  0.
         24    2    4    4    0    0  0.42214110675E+03 -0.66037724430E+03 -0.82620132643E+02  0.79208744892E+03  0.79216296489E+02 0.  0.
         11    1    3    3    0    0 -0.95310123363E+02  0.15484364354E+03 -0.64094454480E+02  0.19279178575E+03  0.00000000000E+00 0. -1.
        -11    1    3    3    0    0 -0.19394988056E+03  0.29681004597E+03  0.45911712362E+01  0.35458967613E+03  0.00000000000E+00 0.  1.
          4    1    6    6  502    0  0.32828866804E+03 -0.45902028592E+03 -0.79531751889E+02  0.56991084567E+03  0.00000000000E+00 0. -1.
          3    1    5    5  503    0 -0.11163591794E+03  0.15233242729E+03  0.38718961981E+02  0.19278720029E+03  0.00000000000E+00 0. -1.
         -4    1    5    5    0  503 -0.21245184883E+02  0.56391127497E+02 -0.30635198758E+02  0.67600536566E+02  0.00000000000E+00 0.  1.
         -3    1    6    6    0  502  0.93852438706E+02 -0.20135695838E+03 -0.30883807537E+01  0.22217660325E+03  0.00000000000E+00 0.  1.
<mgrwt>
<rscale>  0 0.15942317E+04</rscale>
<asrwt>0</asrwt>
<pdfrwt beam="1">  1        1 0.11275515E+00 0.15942317E+04</pdfrwt>
<pdfrwt beam="2">  1       -1 0.13337664E+00 0.15942317E+04</pdfrwt>
<totfact> 0.11582160E+01</totfact>
</mgrwt>
</event>
<event>
12    1  0.1397649E-007  0.1203261E+04  0.7818608E-02  0.9110007E-01
          1   -1    0    0  501    0  0.00000000000E+00  0.00000000000E+00  0.36463241314E+03  0.36463241314E+03  0.00000000000E+00 0. -1.
         -1   -1    0    0    0  501 -0.00000000000E+00 -0.00000000000E+00 -0.99266843849E+03  0.99266843849E+03  0.00000000000E+00 0.  1.
         23    2    1    2    0    0 -0.44593329118E+01 -0.10163360269E+02  0.14625664050E+03  0.17219735741E+03  0.90209453299E+02 0.  0.
        254    2    1    2    0    0  0.44593329118E+01  0.10163360269E+02 -0.77429266585E+03  0.11851034942E+04  0.89711648078E+03 0.  0.
        -24    2    4    4    0    0  0.24609346447E+02  0.42973275778E+03 -0.23504727487E+03  0.49691604262E+03  0.80015429443E+02 0.  0.
         24    2    4    4    0    0 -0.20150013535E+02 -0.41956939751E+03 -0.53924539098E+03  0.68818745160E+03  0.79824021872E+02 0.  0.
         11    1    3    3    0    0 -0.12119782458E+02  0.32473027407E+02  0.11118007509E+03  0.11645769933E+03  0.00000000000E+00 0.  1.
        -11    1    3    3    0    0  0.76604495458E+01 -0.42636387676E+02  0.35076565409E+02  0.55739658074E+02  0.00000000000E+00 0. -1.
          2    1    6    6  502    0 -0.23235833849E+02 -0.37404751987E+03 -0.51376239036E+03  0.63592707510E+03  0.00000000000E+00 0. -1.
          1    1    5    5  503    0  0.23394293782E+02  0.35854156552E+03 -0.22760316047E+03  0.42532639918E+03  0.00000000000E+00 0. -1.
         -2    1    5    5    0  503  0.12150526656E+01  0.71191192261E+02 -0.74441144016E+01  0.71589643439E+02  0.00000000000E+00 0.  1.
         -1    1    6    6    0  502  0.30858203137E+01 -0.45521877647E+02 -0.25483000624E+02  0.52260376504E+02  0.00000000000E+00 0.  1.
<mgrwt>
<rscale>  0 0.12032607E+04</rscale>
<asrwt>0</asrwt>
<pdfrwt beam="1">  1        1 0.56097294E-01 0.12032607E+04</pdfrwt>
<pdfrwt beam="2">  1       -1 0.15271822E+00 0.12032607E+04</pdfrwt>
<totfact> 0.22311505E+01</totfact>
</mgrwt>
</event>
<event>
12    1  0.1397649E-007  0.1762525E+04  0.7818608E-02  0.8726486E-01
         -2   -1    0    0    0  501 -0.00000000000E+00  0.00000000000E+00  0.57054432596E+03  0.57054432596E+03  0.00000000000E+00 0. -1.
          2   -1    0    0  501    0  0.00000000000E+00 -0.00000000000E+00 -0.13611969225E+04  0.13611969225E+04  0.00000000000E+00 0.  1.
         23    2    1    2    0    0 -0.35020910521E+03  0.30607642697E+03  0.19896524916E+03  0.51501410401E+03  0.96556514217E+02 0.  0.
        254    2    1    2    0    0  0.35020910521E+03 -0.30607642697E+03 -0.98961784573E+03  0.14167271445E+04  0.90080137921E+03 0.  0.
        -24    2    4    4    0    0  0.63808389543E+03 -0.11593249611E+03 -0.71504346813E+03  0.96858484091E+03  0.79234029685E+02 0.  0.
         24    2    4    4    0    0 -0.28787479022E+03 -0.19014393085E+03 -0.27457437760E+03  0.44814230357E+03  0.80086366708E+02 0.  0.
         13    1    3    3    0    0 -0.26598663494E+03  0.22925341073E+03  0.19339044516E+03  0.40088137969E+03  0.00000000000E+00 0. -1.
        -13    1    3    3    0    0 -0.84222470268E+02  0.76823016237E+02  0.55748039993E+01  0.11413272432E+03  0.00000000000E+00 0.  1.
          2    1    6    6  502    0 -0.22491702039E+03 -0.11814873502E+03 -0.22967662981E+03  0.34248816611E+03  0.00000000000E+00 0. -1.
          1    1    5    5  503    0  0.59357667731E+03 -0.99893947688E+02 -0.63039608082E+03  0.87161418721E+03  0.00000000000E+00 0. -1.
         -2    1    5    5    0  503  0.44507218116E+02 -0.16038548422E+02 -0.84647387309E+02  0.96970653695E+02  0.00000000000E+00 0.  1.
         -1    1    6    6    0  502 -0.62957769821E+02 -0.71995195838E+02 -0.44897747792E+02  0.10565413745E+03  0.00000000000E+00 0.  1.
<mgrwt>
<rscale>  0 0.17625245E+04</rscale>
<asrwt>0</asrwt>
<pdfrwt beam="1">  1        2 0.20941491E+00 0.17625245E+04</pdfrwt>
<pdfrwt beam="2">  1       -2 0.87776050E-01 0.17625245E+04</pdfrwt>
<totfact> 0.16149278E+01</totfact>
</mgrwt>
</event>
<event>
12    1  0.1397649E-007  0.1356937E+04  0.7818608E-02  0.8985594E-01
         -2   -1    0    0    0  501 -0.00000000000E+00  0.00000000000E+00  0.34025436054E+03  0.34025436054E+03  0.00000000000E+00 0.  1.
          2   -1    0    0  501    0  0.00000000000E+00 -0.00000000000E+00 -0.13528680087E+04  0.13528680087E+04  0.00000000000E+00 0. -1.
         23    2    1    2    0    0 -0.10659943506E+03 -0.32073768393E+03 -0.86473057480E+02  0.36061412198E+03  0.91262554494E+02 0.  0.
        254    2    1    2    0    0  0.10659943506E+03  0.32073768393E+03 -0.92614059065E+03  0.13325082472E+04  0.89644059137E+03 0.  0.
        -24    2    4    4    0    0 -0.93298876223E+02  0.48677897310E+03 -0.17212033093E+03  0.53105954938E+03  0.82099864273E+02 0.  0.
         24    2    4    4    0    0  0.19989831129E+03 -0.16604128917E+03 -0.75402025972E+03  0.80144869786E+03  0.79021634154E+02 0.  0.
         13    1    3    3    0    0 -0.48505556235E+02 -0.94468707244E+02  0.12457060081E+02  0.10692195275E+03  0.00000000000E+00 0.  1.
        -13    1    3    3    0    0 -0.58093878828E+02 -0.22626897668E+03 -0.98930117561E+02  0.25369216923E+03  0.00000000000E+00 0. -1.
          4    1    6    6  502    0  0.17442416666E+02 -0.31561769805E+02 -0.48660298663E+02  0.60565731882E+02  0.00000000000E+00 0. -1.
          1    1    5    5  503    0  0.57980346667E+01  0.70747727042E+02 -0.26474248098E+01  0.71034265997E+02  0.00000000000E+00 0. -1.
         -2    1    5    5    0  503 -0.99096910890E+02  0.41603124606E+03 -0.16947290612E+03  0.46002528338E+03  0.00000000000E+00 0.  1.
         -3    1    6    6    0  502  0.18245589462E+03 -0.13447951937E+03 -0.70535996106E+03  0.74088296598E+03  0.00000000000E+00 0.  1.
<mgrwt>
<rscale>  0 0.13569366E+04</rscale>
<asrwt>0</asrwt>
<pdfrwt beam="1">  1        2 0.20813354E+00 0.13569366E+04</pdfrwt>
<pdfrwt beam="2">  1       -2 0.52346825E-01 0.13569366E+04</pdfrwt>
<totfact> 0.51783969E+01</totfact>
</mgrwt>
</event>
<event>
12    1  0.1397649E-007  0.1443589E+04  0.7818608E-02  0.8922858E-01
         -1   -1    0    0    0  501 -0.00000000000E+00  0.00000000000E+00  0.45273993880E+03  0.45273993880E+03  0.00000000000E+00 0.  1.
          1   -1    0    0  501    0  0.00000000000E+00 -0.00000000000E+00 -0.11507422123E+04  0.11507422123E+04  0.00000000000E+00 0. -1.
         23    2    1    2    0    0 -0.28508132627E+03 -0.32487396273E+03 -0.82184591428E+02  0.44978595450E+03  0.93480712171E+02 0.  0.
        254    2    1    2    0    0  0.28508132627E+03  0.32487396273E+03 -0.61581768209E+03  0.11536961966E+04  0.87462508669E+03 0.  0.
        -24    2    4    4    0    0  0.48581141654E+03 -0.92766894858E+02 -0.26371498966E+03  0.56606323322E+03  0.79142649760E+02 0.  0.
         24    2    4    4    0    0 -0.20073009026E+03  0.41764085758E+03 -0.35210269243E+03  0.58763296339E+03  0.81361775991E+02 0.  0.
         11    1    3    3    0    0 -0.26687023562E+03 -0.29395130447E+03 -0.47459870014E+02  0.39984938580E+03  0.00000000000E+00 0. -1.
        -11    1    3    3    0    0 -0.18211090652E+02 -0.30922658254E+02 -0.34724721413E+02  0.49936568700E+02  0.00000000000E+00 0.  1.
          4    1    6    6  502    0 -0.69034328751E+02  0.20558186024E+03 -0.12587271798E+03  0.25074604870E+03  0.00000000000E+00 0. -1.
          3    1    5    5  503    0  0.11162153407E+03 -0.19305659467E+02 -0.24463970353E+02  0.11589029813E+03  0.00000000000E+00 0. -1.
         -4    1    5    5    0  503  0.37418988247E+03 -0.73461235391E+02 -0.23925101931E+03  0.45017293509E+03  0.00000000000E+00 0.  1.
         -3    1    6    6    0  502 -0.13169576151E+03  0.21205899734E+03 -0.22622997445E+03  0.33688691470E+03  0.00000000000E+00 0.  1.
<mgrwt>
<rscale>  0 0.14435885E+04</rscale>
<asrwt>0</asrwt>
<pdfrwt beam="1">  1        1 0.17703726E+00 0.14435885E+04</pdfrwt>
<pdfrwt beam="2">  1       -1 0.69652299E-01 0.14435885E+04</pdfrwt>
<totfact> 0.23533484E+01</totfact>
</mgrwt>
</event>
<event>
12    1  0.1432480E-007  0.2448359E+04  0.7818608E-02  0.8421617E-01
         -2   -1    0    0    0  501 -0.00000000000E+00  0.00000000000E+00  0.82719746438E+03  0.82719746438E+03  0.00000000000E+00 0. -1.
          2   -1    0    0  501    0  0.00000000000E+00 -0.00000000000E+00 -0.18116781040E+04  0.18116781040E+04  0.00000000000E+00 0.  1.
         23    2    1    2    0    0  0.52423001215E+03  0.59682102091E+03 -0.11515986443E+04  0.14021574024E+04  0.94093075917E+02 0.  0.
        254    2    1    2    0    0 -0.52423001215E+03 -0.59682102091E+03  0.16711800469E+03  0.12367181660E+04  0.93302248519E+03 0.  0.
        -24    2    4    4    0    0 -0.20818969507E+03 -0.76477148771E+02  0.48916001319E+03  0.54307181205E+03  0.80360258343E+02 0.  0.
         24    2    4    4    0    0 -0.31604031708E+03 -0.52034387213E+03 -0.32204200850E+03  0.69364635390E+03  0.82431679315E+02 0.  0.
         13    1    3    3    0    0  0.30286439219E+03  0.37720817996E+03 -0.77016163888E+03  0.90948436000E+03  0.00000000000E+00 0.  1.
        -13    1    3    3    0    0  0.22136561996E+03  0.21961284095E+03 -0.38143700543E+03  0.49267304241E+03  0.00000000000E+00 0. -1.
          4    1    6    6  502    0 -0.93893641262E+02 -0.12903480700E+03 -0.47347154127E+02  0.16645645163E+03  0.00000000000E+00 0. -1.
          3    1    5    5  503    0 -0.16066369477E+01 -0.21937279961E+02  0.38870115807E+02  0.44662192481E+02  0.00000000000E+00 0. -1.
         -4    1    5    5    0  503 -0.20658305812E+03 -0.54539868810E+02  0.45028989738E+03  0.49840961957E+03  0.00000000000E+00 0.  1.
         -3    1    6    6    0  502 -0.22214667582E+03 -0.39130906514E+03 -0.27469485437E+03  0.52718990227E+03  0.00000000000E+00 0.  1.
<mgrwt>
<rscale>  0 0.24483591E+04</rscale>
<asrwt>0</asrwt>
<pdfrwt beam="1">  1        2 0.27871970E+00 0.24483591E+04</pdfrwt>
<pdfrwt beam="2">  1       -2 0.12726115E+00 0.24483591E+04</pdfrwt>
<totfact> 0.34900368E+00</totfact>
</mgrwt>
</event>
<event>
12    1  0.1397649E-007  0.1744007E+04  0.7818608E-02  0.8736656E-01
          2   -1    0    0  501    0  0.00000000000E+00  0.00000000000E+00  0.21717350552E+04  0.21717350552E+04  0.00000000000E+00 0. -1.
         -2   -1    0    0    0  501 -0.00000000000E+00 -0.00000000000E+00 -0.35013029234E+03  0.35013029234E+03  0.00000000000E+00 0.  1.
         23    2    1    2    0    0  0.40266813895E+03  0.38707842227E+03  0.11052996641E+04  0.12416221610E+04  0.89257538740E+02 0.  0.
        254    2    1    2    0    0 -0.40266813895E+03 -0.38707842227E+03  0.71630509884E+03  0.12802431866E+04  0.90219636831E+03 0.  0.
        -24    2    4    4    0    0 -0.56287960050E+03 -0.27191576362E+03  0.11256916248E+03  0.64008269462E+03  0.79135405772E+02 0.  0.
         24    2    4    4    0    0  0.16021146155E+03 -0.11516265866E+03  0.60373593636E+03  0.64016049194E+03  0.79863785466E+02 0.  0.
         11    1    3    3    0    0  0.38853670097E+03  0.39023217252E+03  0.10842187829E+04  0.12160478139E+04  0.00000000000E+00 0. -1.
        -11    1    3    3    0    0  0.14131437977E+02 -0.31537502476E+01  0.21080881117E+02  0.25574347081E+02  0.00000000000E+00 0.  1.
          4    1    6    6  502    0  0.13048234441E+03 -0.11643656095E+03  0.43528276439E+03  0.46909934971E+03  0.00000000000E+00 0. -1.
          1    1    5    5  503    0 -0.42848017599E+02 -0.14550340088E+02 -0.11596818956E+02  0.46713501460E+02  0.00000000000E+00 0. -1.
         -2    1    5    5    0  503 -0.52003158290E+03 -0.25736542353E+03  0.12416598144E+03  0.59336919316E+03  0.00000000000E+00 0.  1.
         -3    1    6    6    0  502  0.29729117144E+02  0.12739022919E+01  0.16845317197E+03  0.17106114223E+03  0.00000000000E+00 0.  1.
<mgrwt>
<rscale>  0 0.17440071E+04</rscale>
<asrwt>0</asrwt>
<pdfrwt beam="1">  1        2 0.33411308E+00 0.17440071E+04</pdfrwt>
<pdfrwt beam="2">  1       -2 0.53866200E-01 0.17440071E+04</pdfrwt>
<totfact> 0.16495276E+01</totfact>
</mgrwt>
</event>
<event>
12    1  0.1397649E-007  0.1587111E+04  0.7818608E-02  0.8828506E-01
         -1   -1    0    0    0  501 -0.00000000000E+00  0.00000000000E+00  0.18160083900E+03  0.18160083900E+03  0.00000000000E+00 0.  1.
          1   -1    0    0  501    0  0.00000000000E+00 -0.00000000000E+00 -0.34676599626E+04  0.34676599626E+04  0.00000000000E+00 0. -1.
         23    2    1    2    0    0 -0.38176449258E+03 -0.26587069404E+03 -0.52612918386E+03  0.70753246085E+03  0.85784097008E+02 0.  0.
        254    2    1    2    0    0  0.38176449258E+03  0.26587069404E+03 -0.27599299398E+04  0.29417283408E+04  0.90560532505E+03 0.  0.
        -24    2    4    4    0    0  0.55091563066E+02  0.54079367787E+03 -0.19053354188E+04  0.19829849345E+04  0.80207918212E+02 0.  0.
         24    2    4    4    0    0  0.32667292952E+03 -0.27492298383E+03 -0.85459452097E+03  0.95874340624E+03  0.80989343838E+02 0.  0.
         11    1    3    3    0    0 -0.47915162845E+01 -0.20408053911E+02 -0.40271464460E+02  0.45400860592E+02  0.00000000000E+00 0. -1.
        -11    1    3    3    0    0 -0.37697297630E+03 -0.24546264013E+03 -0.48585771941E+03  0.66213160026E+03  0.00000000000E+00 0.  1.
          4    1    6    6  502    0  0.24516894640E+03 -0.20825144640E+03 -0.55892256314E+03  0.64488053839E+03  0.00000000000E+00 0. -1.
          3    1    5    5  503    0  0.12972915895E+02  0.38802558510E+03 -0.14393214918E+04  0.14907644039E+04  0.00000000000E+00 0. -1.
         -4    1    5    5    0  503  0.42118647171E+02  0.15276809277E+03 -0.46601392700E+03  0.49222053063E+03  0.00000000000E+00 0.  1.
         -3    1    6    6    0  502  0.81503983118E+02 -0.66671537433E+02 -0.29567195783E+03  0.31386286785E+03  0.00000000000E+00 0.  1.
<mgrwt>
<rscale>  0 0.15871105E+04</rscale>
<asrwt>0</asrwt>
<pdfrwt beam="1">  1        1 0.53348617E+00 0.15871105E+04</pdfrwt>
<pdfrwt beam="2">  1       -1 0.27938589E-01 0.15871105E+04</pdfrwt>
<totfact> 0.29698150E+00</totfact>
</mgrwt>
</event>
<event>
12    1  0.1397649E-007  0.3586866E+04  0.7818608E-02  0.8093507E-01
          2   -1    0    0  501    0  0.00000000000E+00  0.00000000000E+00  0.15642764076E+04  0.15642764076E+04  0.00000000000E+00 0. -1.
         -2   -1    0    0    0  501 -0.00000000000E+00 -0.00000000000E+00 -0.20561598805E+04  0.20561598805E+04  0.00000000000E+00 0.  1.
         23    2    1    2    0    0 -0.12661339766E+04 -0.75816707310E+03  0.53770473565E+03  0.15734047578E+04  0.92539675846E+02 0.  0.
        254    2    1    2    0    0  0.12661339766E+04  0.75816707310E+03 -0.10295882085E+04  0.20470315304E+04  0.97589633150E+03 0.  0.
        -24    2    4    4    0    0  0.60571685561E+03 -0.15501302508E+03 -0.46886555286E+03  0.78573821782E+03  0.81410645357E+02 0.  0.
         24    2    4    4    0    0  0.66041712097E+03  0.91318009818E+03 -0.56072265565E+03  0.12612933125E+04  0.80014113291E+02 0.  0.
         11    1    3    3    0    0 -0.11553322461E+04 -0.71922689526E+03  0.50370835090E+03  0.14511381838E+04  0.00000000000E+00 0. -1.
        -11    1    3    3    0    0 -0.11080173051E+03 -0.38940177837E+02  0.33996384750E+02  0.12226657397E+03  0.00000000000E+00 0.  1.
          2    1    6    6  502    0  0.21283805020E+03  0.25683691694E+03 -0.19876418920E+03  0.38829427040E+03  0.00000000000E+00 0. -1.
          1    1    5    5  503    0  0.31400631902E+03 -0.11689491575E+03 -0.22476498907E+03  0.40346460814E+03  0.00000000000E+00 0. -1.
         -2    1    5    5    0  503  0.29171053659E+03 -0.38118109330E+02 -0.24410056378E+03  0.38227360968E+03  0.00000000000E+00 0.  1.
         -1    1    6    6    0  502  0.44757907078E+03  0.65634318124E+03 -0.36195846645E+03  0.87299904215E+03  0.00000000000E+00 0.  1.
<mgrwt>
<rscale>  0 0.35868663E+04</rscale>
<asrwt>0</asrwt>
<pdfrwt beam="1">  1        2 0.24065791E+00 0.35868663E+04</pdfrwt>
<pdfrwt beam="2">  1       -2 0.31633229E+00 0.35868663E+04</pdfrwt>
<totfact> 0.24031906E-01</totfact>
</mgrwt>
</event>
<event>
12    1  0.1397649E-007  0.2990255E+04  0.7818608E-02  0.8246519E-01
          2   -1    0    0  501    0  0.00000000000E+00  0.00000000000E+00  0.14175336905E+04  0.14175336905E+04  0.00000000000E+00 0. -1.
         -2   -1    0    0    0  501 -0.00000000000E+00 -0.00000000000E+00 -0.15769689303E+04  0.15769689303E+04  0.00000000000E+00 0.  1.
         23    2    1    2    0    0 -0.18368627732E+03  0.47649118660E+03  0.11874482608E+04  0.12958244165E+04  0.91340280048E+02 0.  0.
        254    2    1    2    0    0  0.18368627732E+03 -0.47649118660E+03 -0.13468835006E+04  0.16986782043E+04  0.90034880922E+03 0.  0.
        -24    2    4    4    0    0  0.23956678794E+03  0.21489260814E+03 -0.51917545574E+03  0.61579503568E+03  0.78033923458E+02 0.  0.
         24    2    4    4    0    0 -0.55880510624E+02 -0.69138379475E+03 -0.82770804484E+03  0.10828831686E+04  0.80007288944E+02 0.  0.
         11    1    3    3    0    0 -0.23010812756E+02  0.47487805308E+02  0.20719538324E+03  0.21380953204E+03  0.00000000000E+00 0.  1.
        -11    1    3    3    0    0 -0.16067546456E+03  0.42900338129E+03  0.98025287759E+03  0.10820148844E+04  0.00000000000E+00 0. -1.
          2    1    6    6  502    0 -0.44943851483E+02 -0.47941826310E+03 -0.62886689197E+03  0.79204506728E+03  0.00000000000E+00 0. -1.
          1    1    5    5  503    0  0.17867074843E+03  0.10991086068E+03 -0.33166340561E+03  0.39243375016E+03  0.00000000000E+00 0. -1.
         -2    1    5    5    0  503  0.60896039510E+02  0.10498174747E+03 -0.18751205013E+03  0.22336128553E+03  0.00000000000E+00 0.  1.
         -1    1    6    6    0  502 -0.10936659141E+02 -0.21196553164E+03 -0.19884115287E+03  0.29083810134E+03  0.00000000000E+00 0.  1.
<mgrwt>
<rscale>  0 0.29902552E+04</rscale>
<asrwt>0</asrwt>
<pdfrwt beam="1">  1        2 0.21808211E+00 0.29902552E+04</pdfrwt>
<pdfrwt beam="2">  1       -2 0.24261060E+00 0.29902552E+04</pdfrwt>
<totfact> 0.86459847E-01</totfact>
</mgrwt>
</event>
<event>
12    1  0.1397649E-007  0.1735950E+04  0.7818608E-02  0.8741122E-01
          2   -1    0    0  501    0  0.00000000000E+00  0.00000000000E+00  0.11705804236E+04  0.11705804236E+04  0.00000000000E+00 0. -1.
         -2   -1    0    0    0  501 -0.00000000000E+00 -0.00000000000E+00 -0.64359573452E+03  0.64359573452E+03  0.00000000000E+00 0.  1.
         23    2    1    2    0    0 -0.36904775217E+02  0.43767253908E+03  0.65119222416E+03  0.79081125372E+03  0.91716477852E+02 0.  0.
        254    2    1    2    0    0  0.36904775217E+02 -0.43767253908E+03 -0.12420753511E+03  0.10233649044E+04  0.91593067522E+03 0.  0.
        -24    2    4    4    0    0  0.44147287594E+03 -0.40033960703E+03 -0.79931636104E+02  0.60655673887E+03  0.79698869994E+02 0.  0.
         24    2    4    4    0    0 -0.40456810072E+03 -0.37332932053E+02 -0.44275899003E+02  0.41680816549E+03  0.81851057735E+02 0.  0.
         13    1    3    3    0    0  0.15633380707E-01  0.35354195866E+03  0.47530432225E+03  0.59237329069E+03  0.00000000000E+00 0. -1.
        -13    1    3    3    0    0 -0.36920408598E+02  0.84130580421E+02  0.17588790191E+03  0.19843796303E+03  0.00000000000E+00 0.  1.
          2    1    6    6  502    0 -0.12361453438E+03 -0.41508525160E+02  0.94262994830E+01  0.13073777531E+03  0.00000000000E+00 0. -1.
          3    1    5    5  503    0  0.14943364144E+03 -0.12251375476E+03 -0.62527948987E+02  0.20310041286E+03  0.00000000000E+00 0. -1.
         -2    1    5    5    0  503  0.29203923450E+03 -0.27782585227E+03 -0.17403687117E+02  0.40345632602E+03  0.00000000000E+00 0.  1.
         -1    1    6    6    0  502 -0.28095356634E+03  0.41755931071E+01 -0.53702198486E+02  0.28607039018E+03  0.00000000000E+00 0.  1.
<mgrwt>
<rscale>  0 0.17359500E+04</rscale>
<asrwt>0</asrwt>
<pdfrwt beam="1">  1        2 0.18008930E+00 0.17359500E+04</pdfrwt>
<pdfrwt beam="2">  1       -2 0.99014728E-01 0.17359500E+04</pdfrwt>
<totfact> 0.15831725E+01</totfact>
</mgrwt>
</event>
<event>
12    1  0.1397649E-007  0.1501086E+04  0.7818608E-02  0.8883731E-01
          1   -1    0    0  501    0  0.00000000000E+00  0.00000000000E+00  0.37711055088E+03  0.37711055088E+03  0.00000000000E+00 0. -1.
         -1   -1    0    0    0  501 -0.00000000000E+00 -0.00000000000E+00 -0.14937651908E+04  0.14937651908E+04  0.00000000000E+00 0.  1.
         23    2    1    2    0    0 -0.11308252945E+03  0.43650096351E+03 -0.51206049129E+03  0.69228803550E+03  0.11720080099E+03 0.  0.
        254    2    1    2    0    0  0.11308252945E+03 -0.43650096351E+03 -0.60459414867E+03  0.11785877062E+04  0.90565674902E+03 0.  0.
        -24    2    4    4    0    0  0.39737578977E+03 -0.52645032125E+03 -0.25579013664E+03  0.71278333659E+03  0.87028914006E+02 0.  0.
         24    2    4    4    0    0 -0.28429326032E+03  0.89949357746E+02 -0.34880401203E+03  0.46580436963E+03  0.79974540592E+02 0.  0.
         13    1    3    3    0    0 -0.11563432917E+03  0.25244170790E+03 -0.35216772988E+03  0.44846429505E+03  0.00000000000E+00 0.  1.
        -13    1    3    3    0    0  0.25517997165E+01  0.18405925561E+03 -0.15989276141E+03  0.24382374045E+03  0.00000000000E+00 0. -1.
          2    1    6    6  502    0 -0.21088470141E+03  0.42546956061E+02 -0.28741678561E+03  0.35901394041E+03  0.00000000000E+00 0. -1.
          1    1    5    5  503    0  0.28642398287E+03 -0.34577744733E+03 -0.13542374399E+03  0.46897796481E+03  0.00000000000E+00 0. -1.
         -2    1    5    5    0  503  0.11095180690E+03 -0.18067287393E+03 -0.12036639265E+03  0.24380537177E+03  0.00000000000E+00 0.  1.
         -1    1    6    6    0  502 -0.73408558910E+02  0.47402401685E+02 -0.61387226416E+02  0.10679042922E+03  0.00000000000E+00 0.  1.
<mgrwt>
<rscale>  0 0.15010858E+04</rscale>
<asrwt>0</asrwt>
<pdfrwt beam="1">  1        1 0.58017008E-01 0.15010858E+04</pdfrwt>
<pdfrwt beam="2">  1       -1 0.22981003E+00 0.15010858E+04</pdfrwt>
<totfact> 0.59428384E+00</totfact>
</mgrwt>
</event>
<event>
12    1  0.1397649E-007  0.2076774E+04  0.7818608E-02  0.8571544E-01
          1   -1    0    0  501    0  0.00000000000E+00  0.00000000000E+00  0.12596797859E+04  0.12596797859E+04  0.00000000000E+00 0. -1.
         -1   -1    0    0    0  501 -0.00000000000E+00 -0.00000000000E+00 -0.85596924015E+03  0.85596924015E+03  0.00000000000E+00 0.  1.
         23    2    1    2    0    0  0.13687120500E+03  0.46874007616E+01 -0.68059522209E+03  0.70033467210E+03  0.92212244980E+02 0.  0.
        254    2    1    2    0    0 -0.13687120500E+03 -0.46874007616E+01  0.10843057678E+04  0.14153143539E+04  0.89924414028E+03 0.  0.
        -24    2    4    4    0    0 -0.45229932591E+03 -0.22351778600E+03  0.52720863442E+03  0.73375800247E+03  0.76921915668E+02 0.  0.
         24    2    4    4    0    0  0.31542812091E+03  0.21883038524E+03  0.55709713342E+03  0.68155635147E+03  0.82342013591E+02 0.  0.
         11    1    3    3    0    0  0.26457422169E+02 -0.38284118506E+02 -0.18199859023E+03  0.18785408104E+03  0.00000000000E+00 0. -1.
        -11    1    3    3    0    0  0.11041378283E+03  0.42971519268E+02 -0.49859663186E+03  0.51248059106E+03  0.00000000000E+00 0.  1.
          4    1    6    6  502    0  0.22846915485E+02  0.49585003004E+02  0.74421077717E+02  0.92299246360E+02  0.00000000000E+00 0. -1.
          1    1    5    5  503    0 -0.78172032625E+02 -0.54579662934E+02  0.14050205277E+03  0.16979585721E+03  0.00000000000E+00 0. -1.
         -2    1    5    5    0  503 -0.37412729329E+03 -0.16893812306E+03  0.38670658165E+03  0.56396214527E+03  0.00000000000E+00 0.  1.
         -3    1    6    6    0  502  0.29258120542E+03  0.16924538223E+03  0.48267605570E+03  0.58925710511E+03  0.00000000000E+00 0.  1.
<mgrwt>
<rscale>  0 0.20767736E+04</rscale>
<asrwt>0</asrwt>
<pdfrwt beam="1">  1        1 0.19379689E+00 0.20767736E+04</pdfrwt>
<pdfrwt beam="2">  1       -1 0.13168758E+00 0.20767736E+04</pdfrwt>
<totfact> 0.43740874E+00</totfact>
</mgrwt>
</event>
<event>
12    1  0.1397649E-007  0.2071766E+04  0.7818608E-02  0.8573784E-01
         -2   -1    0    0    0  501 -0.00000000000E+00  0.00000000000E+00  0.15303494016E+04  0.15303494016E+04  0.00000000000E+00 0.  1.
          2   -1    0    0  501    0  0.00000000000E+00 -0.00000000000E+00 -0.70118186739E+03  0.70118186739E+03  0.00000000000E+00 0. -1.
         23    2    1    2    0    0  0.35539727406E+03  0.20879036699E+03  0.11209418775E+04  0.11976831390E+04  0.89630178807E+02 0.  0.
        254    2    1    2    0    0 -0.35539727406E+03 -0.20879036699E+03 -0.29177434330E+03  0.10338481300E+04  0.90211365620E+03 0.  0.
        -24    2    4    4    0    0  0.13692472122E+03  0.12032627726E+03  0.18326164055E+03  0.27047551736E+03  0.79657920596E+02 0.  0.
         24    2    4    4    0    0 -0.49232199528E+03 -0.32911664425E+03 -0.47503598384E+03  0.76337261262E+03  0.79873945654E+02 0.  0.
         11    1    3    3    0    0  0.17262709706E+03  0.71807411487E+02  0.40243373393E+03  0.44374466666E+03  0.00000000000E+00 0.  1.
        -11    1    3    3    0    0  0.18277017700E+03  0.13698295550E+03  0.71850814354E+03  0.75393847232E+03  0.00000000000E+00 0. -1.
          4    1    6    6  502    0 -0.15838109031E+03 -0.99595143556E+02 -0.10455649337E+03  0.21432643956E+03  0.00000000000E+00 0. -1.
          1    1    5    5  503    0  0.10744438997E+03  0.80434448941E+02  0.80857960865E+02  0.15669080174E+03  0.00000000000E+00 0. -1.
         -2    1    5    5    0  503  0.29480331246E+02  0.39891828322E+02  0.10240367968E+03  0.11378471562E+03  0.00000000000E+00 0.  1.
         -3    1    6    6    0  502 -0.33394090497E+03 -0.22952150070E+03 -0.37047949047E+03  0.54904617306E+03  0.00000000000E+00 0.  1.
<mgrwt>
<rscale>  0 0.20717657E+04</rscale>
<asrwt>0</asrwt>
<pdfrwt beam="1">  1        2 0.10787413E+00 0.20717657E+04</pdfrwt>
<pdfrwt beam="2">  1       -2 0.23543837E+00 0.20717657E+04</pdfrwt>
<totfact> 0.29848701E+00</totfact>
</mgrwt>
</event>
<event>
12    1  0.1397649E-007  0.1730168E+04  0.7818608E-02  0.8744343E-01
         -1   -1    0    0    0  501 -0.00000000000E+00  0.00000000000E+00  0.95196804436E+03  0.95196804436E+03  0.00000000000E+00 0.  1.
          1   -1    0    0  501    0  0.00000000000E+00 -0.00000000000E+00 -0.78612981575E+03  0.78612981575E+03  0.00000000000E+00 0. -1.
         23    2    1    2    0    0  0.57508609828E+02  0.22088355123E+03 -0.53357658833E+03  0.58738983059E+03  0.90697596723E+02 0.  0.
        254    2    1    2    0    0 -0.57508609828E+02 -0.22088355123E+03  0.69941481693E+03  0.11507080295E+04  0.88478873165E+03 0.  0.
        -24    2    4    4    0    0  0.28456033455E+03  0.18676996594E+03  0.41303912116E+03  0.54104453892E+03  0.79185057344E+02 0.  0.
         24    2    4    4    0    0 -0.34206894438E+03 -0.40765351717E+03  0.28637569578E+03  0.60966349061E+03  0.80535581428E+02 0.  0.
         13    1    3    3    0    0  0.30008102329E+02  0.91428074534E+01 -0.54456106646E+02  0.62845403050E+02  0.00000000000E+00 0.  1.
        -13    1    3    3    0    0  0.27500507500E+02  0.21174074378E+03 -0.47912048169E+03  0.52454442754E+03  0.00000000000E+00 0. -1.
          2    1    6    6  502    0 -0.53772847482E+02 -0.91791324675E+02  0.27936277284E+02  0.10998909946E+03  0.00000000000E+00 0. -1.
          1    1    5    5  503    0  0.14002640285E+03  0.65012946240E+02  0.13634647189E+03  0.20597193273E+03  0.00000000000E+00 0. -1.
         -2    1    5    5    0  503  0.14453393170E+03  0.12175701970E+03  0.27669264927E+03  0.33507260619E+03  0.00000000000E+00 0.  1.
         -1    1    6    6    0  502 -0.28829609690E+03 -0.31586219250E+03  0.25843941849E+03  0.49967439115E+03  0.00000000000E+00 0.  1.
<mgrwt>
<rscale>  0 0.17301682E+04</rscale>
<asrwt>0</asrwt>
<pdfrwt beam="1">  1        1 0.12094305E+00 0.17301682E+04</pdfrwt>
<pdfrwt beam="2">  1       -1 0.14645662E+00 0.17301682E+04</pdfrwt>
<totfact> 0.80304649E+00</totfact>
</mgrwt>
</event>
<event>
12    1  0.1562892E-007  0.1330587E+04  0.7818608E-02  0.9005655E-01
          1   -1    0    0  501    0  0.00000000000E+00  0.00000000000E+00  0.21829109082E+04  0.21829109082E+04  0.00000000000E+00 0. -1.
         -1   -1    0    0    0  501 -0.00000000000E+00 -0.00000000000E+00 -0.20276399274E+03  0.20276399274E+03  0.00000000000E+00 0.  1.
         23    2    1    2    0    0  0.41774422871E+02 -0.47293612408E+02  0.12456153446E+04  0.12506339431E+04  0.92443954389E+02 0.  0.
        254    2    1    2    0    0 -0.41774422871E+02  0.47293612408E+02  0.73453157088E+03  0.11350409579E+04  0.86301770507E+03 0.  0.
        -24    2    4    4    0    0 -0.35942398201E+03  0.17550790752E+02  0.71704113234E+03  0.80624772695E+03  0.79961132067E+02 0.  0.
         24    2    4    4    0    0  0.31764955914E+03  0.29742821657E+02  0.17490438533E+02  0.32879323093E+03  0.77544796087E+02 0.  0.
         13    1    3    3    0    0  0.65256030809E+02 -0.52803273526E+02  0.10818711327E+04  0.10851228884E+04  0.00000000000E+00 0. -1.
        -13    1    3    3    0    0 -0.23481607937E+02  0.55096611180E+01  0.16374421192E+03  0.16551105466E+03  0.00000000000E+00 0.  1.
          2    1    6    6  502    0  0.24187346826E+03  0.52697616150E+02 -0.72336280475E+00  0.24754865511E+03  0.00000000000E+00 0. -1.
          1    1    5    5  503    0 -0.31159536433E+03  0.28570368130E+02  0.66369998987E+03  0.73376127832E+03  0.00000000000E+00 0. -1.
         -2    1    5    5    0  503 -0.47828617683E+02 -0.11019577378E+02  0.53341142473E+02  0.72486448633E+02  0.00000000000E+00 0.  1.
         -3    1    6    6    0  502  0.75776090886E+02 -0.22954794493E+02  0.18213801338E+02  0.81244575815E+02  0.00000000000E+00 0.  1.
<mgrwt>
<rscale>  0 0.13305874E+04</rscale>
<asrwt>0</asrwt>
<pdfrwt beam="1">  1        1 0.33583243E+00 0.13305874E+04</pdfrwt>
<pdfrwt beam="2">  1       -1 0.31194462E-01 0.13305874E+04</pdfrwt>
<totfact> 0.20938887E+01</totfact>
</mgrwt>
</event>
<event>
12    1  0.1586525E-007  0.2377977E+04  0.7818608E-02  0.8447795E-01
         -2   -1    0    0    0  501 -0.00000000000E+00  0.00000000000E+00  0.60173297360E+03  0.60173297360E+03  0.00000000000E+00 0.  1.
          2   -1    0    0  501    0  0.00000000000E+00 -0.00000000000E+00 -0.23493713491E+04  0.23493713491E+04  0.00000000000E+00 0. -1.
         23    2    1    2    0    0 -0.62288362404E+03 -0.72815201015E+02  0.24175730264E+03  0.67802998950E+03  0.89398046358E+02 0.  0.
        254    2    1    2    0    0  0.62288362404E+03  0.72815201015E+02 -0.19893956781E+04  0.22730743332E+04  0.90326391347E+03 0.  0.
        -24    2    4    4    0    0  0.28773074614E+03  0.44809500657E+03 -0.13648674982E+04  0.14670851339E+04  0.76794433799E+02 0.  0.
         24    2    4    4    0    0  0.33515287790E+03 -0.37527980556E+03 -0.62452817989E+03  0.80598919931E+03  0.80129631899E+02 0.  0.
         11    1    3    3    0    0 -0.54884090023E+03 -0.83429187412E+02  0.18876341527E+03  0.58636029028E+03  0.00000000000E+00 0.  1.
        -11    1    3    3    0    0 -0.74042723809E+02  0.10613986397E+02  0.52993887377E+02  0.91669699223E+02  0.00000000000E+00 0. -1.
          4    1    6    6  502    0  0.40616169215E+02 -0.57894839161E+02 -0.50198251103E+02  0.86725717160E+02  0.00000000000E+00 0. -1.
          1    1    5    5  503    0  0.24419759940E-01  0.32788260546E+02 -0.80704120342E+02  0.87110422259E+02  0.00000000000E+00 0. -1.
         -2    1    5    5    0  503  0.28770632638E+03  0.41530674603E+03 -0.12841633779E+04  0.13799747116E+04  0.00000000000E+00 0.  1.
         -3    1    6    6    0  502  0.29453670868E+03 -0.31738496640E+03 -0.57432992879E+03  0.71926348215E+03  0.00000000000E+00 0.  1.
<mgrwt>
<rscale>  0 0.23779775E+04</rscale>
<asrwt>0</asrwt>
<pdfrwt beam="1">  1        2 0.36144174E+00 0.23779775E+04</pdfrwt>
<pdfrwt beam="2">  1       -2 0.92574304E-01 0.23779775E+04</pdfrwt>
<totfact> 0.37892792E+00</totfact>
</mgrwt>
</event>
<event>
12    1  0.1397649E-007  0.1588131E+04  0.7818608E-02  0.8827873E-01
         -1   -1    0    0    0  501 -0.00000000000E+00  0.00000000000E+00  0.66464592147E+03  0.66464592147E+03  0.00000000000E+00 0.  1.
          1   -1    0    0  501    0  0.00000000000E+00 -0.00000000000E+00 -0.94868554789E+03  0.94868554789E+03  0.00000000000E+00 0. -1.
         23    2    1    2    0    0  0.40352397834E+03  0.12787361434E+03  0.23126286782E+03  0.49069193415E+03  0.90071071195E+02 0.  0.
        254    2    1    2    0    0 -0.40352397834E+03 -0.12787361434E+03 -0.51530249424E+03  0.11226395352E+04  0.90310553265E+03 0.  0.
        -24    2    4    4    0    0 -0.57382693933E+03  0.56591739145E+02 -0.45315186254E+02  0.58377212331E+03  0.79097690253E+02 0.  0.
         24    2    4    4    0    0  0.17030296100E+03 -0.18446535348E+03 -0.46998730799E+03  0.53886741190E+03  0.80370720881E+02 0.  0.
         13    1    3    3    0    0  0.11937827878E+03  0.60011325259E+02  0.32992351194E+02  0.13762640677E+03  0.00000000000E+00 0. -1.
        -13    1    3    3    0    0  0.28414569956E+03  0.67862289080E+02  0.19827051663E+03  0.35306552738E+03  0.00000000000E+00 0.  1.
          4    1    6    6  502    0  0.12528484470E+03 -0.17851898424E+03 -0.38310738799E+03  0.44083624032E+03  0.00000000000E+00 0. -1.
          1    1    5    5  503    0 -0.43147326130E+03  0.80406653134E+01 -0.37182092150E+02  0.43314701372E+03  0.00000000000E+00 0. -1.
         -2    1    5    5    0  503 -0.14235367803E+03  0.48551073831E+02 -0.81330941035E+01  0.15062510959E+03  0.00000000000E+00 0.  1.
         -3    1    6    6    0  502  0.45018116294E+02 -0.59463692393E+01 -0.86879919996E+02  0.98031171574E+02  0.00000000000E+00 0.  1.
<mgrwt>
<rscale>  0 0.15881310E+04</rscale>
<asrwt>0</asrwt>
<pdfrwt beam="1">  1        1 0.14595162E+00 0.15881310E+04</pdfrwt>
<pdfrwt beam="2">  1       -1 0.10225322E+00 0.15881310E+04</pdfrwt>
<totfact> 0.14452763E+01</totfact>
</mgrwt>
</event>
<event>
12    1  0.1397649E-007  0.2144399E+04  0.7818608E-02  0.8541933E-01
          2   -1    0    0  501    0  0.00000000000E+00  0.00000000000E+00  0.16573787409E+04  0.16573787409E+04  0.00000000000E+00 0. -1.
         -2   -1    0    0    0  501 -0.00000000000E+00 -0.00000000000E+00 -0.69363270820E+03  0.69363270820E+03  0.00000000000E+00 0.  1.
         23    2    1    2    0    0  0.53298340225E+03  0.11094870885E+03 -0.35261852618E+03  0.65496857039E+03  0.90901485794E+02 0.  0.
        254    2    1    2    0    0 -0.53298340225E+03 -0.11094870885E+03  0.13163645589E+04  0.16960428787E+04  0.92052423731E+03 0.  0.
        -24    2    4    4    0    0 -0.52352503511E+02 -0.33918470216E+01  0.11729489621E+04  0.11767804471E+04  0.79061137992E+02 0.  0.
         24    2    4    4    0    0 -0.48063089874E+03 -0.10755686183E+03  0.14341559672E+03  0.51926243164E+03  0.80566123032E+02 0.  0.
         13    1    3    3    0    0  0.34392382011E+03  0.96017943081E+02 -0.18646227854E+03  0.40282902173E+03  0.00000000000E+00 0.  1.
        -13    1    3    3    0    0  0.18905958214E+03  0.14930765772E+02 -0.16615624764E+03  0.25213954865E+03  0.00000000000E+00 0. -1.
          4    1    6    6  502    0 -0.45662658219E+03 -0.11796896863E+03  0.12716833955E+03  0.48846320199E+03  0.00000000000E+00 0. -1.
          3    1    5    5  503    0 -0.85393555727E+01 -0.64227280478E+01  0.91898466260E+03  0.91904677907E+03  0.00000000000E+00 0. -1.
         -4    1    5    5    0  503 -0.43813147938E+02  0.30308810262E+01  0.25396429954E+03  0.25773366798E+03  0.00000000000E+00 0.  1.
         -3    1    6    6    0  502 -0.24004316553E+02  0.10412106798E+02  0.16247257175E+02  0.30799229647E+02  0.00000000000E+00 0.  1.
<mgrwt>
<rscale>  0 0.21443993E+04</rscale>
<asrwt>0</asrwt>
<pdfrwt beam="1">  1        2 0.25498134E+00 0.21443993E+04</pdfrwt>
<pdfrwt beam="2">  1       -2 0.10671273E+00 0.21443993E+04</pdfrwt>
<totfact> 0.67249706E+00</totfact>
</mgrwt>
</event>
<event>
12    1  0.1542032E-007  0.1111851E+04  0.7818608E-02  0.9193718E-01
         -1   -1    0    0    0  501 -0.00000000000E+00  0.00000000000E+00  0.21715758498E+03  0.21715758498E+03  0.00000000000E+00 0.  1.
          1   -1    0    0  501    0  0.00000000000E+00 -0.00000000000E+00 -0.14231736333E+04  0.14231736333E+04  0.00000000000E+00 0. -1.
         23    2    1    2    0    0 -0.15005099404E+03  0.27990409368E+02 -0.27477544285E+00  0.17815992185E+03  0.91881001425E+02 0.  0.
        254    2    1    2    0    0  0.15005099404E+03 -0.27990409368E+02 -0.12057412729E+04  0.14621712965E+04  0.81291704324E+03 0.  0.
        -24    2    4    4    0    0  0.11980474168E+03  0.31048818347E+03 -0.19799680370E+03  0.39562727954E+03  0.81006924584E+02 0.  0.
         24    2    4    4    0    0  0.30246252353E+02 -0.33847859284E+03 -0.10077444692E+04  0.10665440169E+04  0.80527208100E+02 0.  0.
         13    1    3    3    0    0 -0.10994095427E+03  0.45185118047E+02  0.32909544528E+02  0.12333590897E+03  0.00000000000E+00 0.  1.
        -13    1    3    3    0    0 -0.40110039764E+02 -0.17194708679E+02 -0.33184319971E+02  0.54824012881E+02  0.00000000000E+00 0. -1.
          2    1    6    6  502    0  0.24626308918E+02 -0.34537121604E+02 -0.84666315117E+02  0.94697691499E+02  0.00000000000E+00 0. -1.
          3    1    5    5  503    0 -0.57739543761E+01  0.54305507867E+02 -0.14845589249E+02  0.56593447094E+02  0.00000000000E+00 0. -1.
         -4    1    5    5    0  503  0.12557869606E+03  0.25618267561E+03 -0.18315121445E+03  0.33903383244E+03  0.00000000000E+00 0.  1.
         -1    1    6    6    0  502  0.56199434349E+01 -0.30394147124E+03 -0.92307815407E+03  0.97184632542E+03  0.00000000000E+00 0.  1.
<mgrwt>
<rscale>  0 0.11118506E+04</rscale>
<asrwt>0</asrwt>
<pdfrwt beam="1">  1        1 0.21894979E+00 0.11118506E+04</pdfrwt>
<pdfrwt beam="2">  1       -1 0.33408860E-01 0.11118506E+04</pdfrwt>
<totfact> 0.62115064E+01</totfact>
</mgrwt>
</event>
<event>
12    1  0.1397649E-007  0.1261868E+04  0.7818608E-02  0.9060363E-01
          2   -1    0    0  501    0  0.00000000000E+00  0.00000000000E+00  0.71889926122E+03  0.71889926122E+03  0.00000000000E+00 0. -1.
         -2   -1    0    0    0  501 -0.00000000000E+00 -0.00000000000E+00 -0.55373262882E+03  0.55373262882E+03  0.00000000000E+00 0.  1.
         23    2    1    2    0    0  0.42478892259E+02 -0.18273606472E+03 -0.19248688428E+03  0.28279284894E+03  0.87884407925E+02 0.  0.
        254    2    1    2    0    0 -0.42478892259E+02  0.18273606472E+03  0.35765351669E+03  0.98983904110E+03  0.90369705302E+03 0.  0.
        -24    2    4    4    0    0  0.37987045793E+03 -0.61162523358E+02  0.22234383504E+02  0.39247040477E+03  0.74136574918E+02 0.  0.
         24    2    4    4    0    0 -0.42234935019E+03  0.24389858808E+03  0.33541913318E+03  0.59736863632E+03  0.80484768019E+02 0.  0.
         13    1    3    3    0    0  0.32962664048E+01 -0.13896372943E+03 -0.92965346361E+02  0.16722541401E+03  0.00000000000E+00 0.  1.
        -13    1    3    3    0    0  0.39182625854E+02 -0.43772335292E+02 -0.99521537921E+02  0.11556743493E+03  0.00000000000E+00 0. -1.
          4    1    6    6  502    0 -0.15244459512E+03  0.10416274463E+03  0.83636585117E+02  0.20269264990E+03  0.00000000000E+00 0. -1.
          3    1    5    5  503    0  0.25844490367E+02 -0.24911529882E+02 -0.53845957884E-01  0.35896029067E+02  0.00000000000E+00 0. -1.
         -4    1    5    5    0  503  0.35402596757E+03 -0.36250993476E+02  0.22288229462E+02  0.35657437571E+03  0.00000000000E+00 0.  1.
         -3    1    6    6    0  502 -0.26990475507E+03  0.13973584345E+03  0.25178254806E+03  0.39467598643E+03  0.00000000000E+00 0.  1.
<mgrwt>
<rscale>  0 0.12618684E+04</rscale>
<asrwt>0</asrwt>
<pdfrwt beam="1">  1        2 0.11059989E+00 0.12618684E+04</pdfrwt>
<pdfrwt beam="2">  1       -2 0.85189635E-01 0.12618684E+04</pdfrwt>
<totfact> 0.46679075E+01</totfact>
</mgrwt>
</event>
<event>
12    1  0.1397649E-007  0.2296804E+04  0.7818608E-02  0.8479182E-01
         -1   -1    0    0    0  501 -0.00000000000E+00  0.00000000000E+00  0.69089956757E+03  0.69089956757E+03  0.00000000000E+00 0.  1.
          1   -1    0    0  501    0  0.00000000000E+00 -0.00000000000E+00 -0.19088554244E+04  0.19088554244E+04  0.00000000000E+00 0. -1.
         23    2    1    2    0    0 -0.89828199613E+03  0.18845423739E+02 -0.92374710742E+03  0.12917034328E+04  0.89013174258E+02 0.  0.
        254    2    1    2    0    0  0.89828199613E+03 -0.18845423739E+02 -0.29420874945E+03  0.13080515592E+04  0.90397699019E+03 0.  0.
        -24    2    4    4    0    0  0.16172956913E+03  0.20185560727E+03 -0.44459892775E+03  0.52055490233E+03  0.80044113243E+02 0.  0.
         24    2    4    4    0    0  0.73655242700E+03 -0.22070103101E+03  0.15039017830E+03  0.78749665691E+03  0.79469214808E+02 0.  0.
         11    1    3    3    0    0 -0.29339574920E+03  0.35003557535E+02 -0.34716014354E+03  0.45587989641E+03  0.00000000000E+00 0.  1.
        -11    1    3    3    0    0 -0.60488624693E+03 -0.16158133796E+02 -0.57658696388E+03  0.83582353636E+03  0.00000000000E+00 0. -1.
          2    1    6    6  502    0  0.81473249796E+02 -0.46761905740E+02  0.33372387976E+02  0.99690935094E+02  0.00000000000E+00 0. -1.
          3    1    5    5  503    0  0.12673262793E+03  0.11739002574E+03 -0.23303913057E+03  0.29008414900E+03  0.00000000000E+00 0. -1.
         -4    1    5    5    0  503  0.34996941203E+02  0.84465581528E+02 -0.21155979718E+03  0.23047075333E+03  0.00000000000E+00 0.  1.
         -1    1    6    6    0  502  0.65507917721E+03 -0.17393912527E+03  0.11701779032E+03  0.68780572181E+03  0.00000000000E+00 0.  1.
<mgrwt>
<rscale>  0 0.22968042E+04</rscale>
<asrwt>0</asrwt>
<pdfrwt beam="1">  1        1 0.29367006E+00 0.22968042E+04</pdfrwt>
<pdfrwt beam="2">  1       -1 0.10629224E+00 0.22968042E+04</pdfrwt>
<totfact> 0.25700303E+00</totfact>
</mgrwt>
</event>
<event>
12    1  0.1397649E-007  0.1678566E+04  0.7818608E-02  0.8773684E-01
          1   -1    0    0  501    0  0.00000000000E+00  0.00000000000E+00  0.13987824198E+04  0.13987824198E+04  0.00000000000E+00 0. -1.
         -1   -1    0    0    0  501 -0.00000000000E+00 -0.00000000000E+00 -0.50357788898E+03  0.50357788898E+03  0.00000000000E+00 0.  1.
         23    2    1    2    0    0 -0.24256138917E+02 -0.10652594203E+03  0.94238895025E+03  0.95333868705E+03  0.93923277661E+02 0.  0.
        254    2    1    2    0    0  0.24256138917E+02  0.10652594203E+03 -0.47184419416E+02  0.94902162174E+03  0.94153042038E+03 0.  0.
        -24    2    4    4    0    0  0.24091559202E+03 -0.24740245625E+03 -0.29355142628E+03  0.46046011971E+03  0.81257517420E+02 0.  0.
         24    2    4    4    0    0 -0.21665945310E+03  0.35392839828E+03  0.24636700687E+03  0.48856150203E+03  0.76085540425E+02 0.  0.
         11    1    3    3    0    0 -0.16249764145E+02 -0.52821337601E+02  0.16405841732E+03  0.17311647187E+03  0.00000000000E+00 0. -1.
        -11    1    3    3    0    0 -0.80063747719E+01 -0.53704604428E+02  0.77833053293E+03  0.78022221518E+03  0.00000000000E+00 0.  1.
          4    1    6    6  502    0 -0.21443959319E+03  0.33116627493E+03  0.21371739379E+03  0.44869874658E+03  0.00000000000E+00 0. -1.
          1    1    5    5  503    0  0.24674624641E+03 -0.23471774997E+03 -0.28512510956E+03  0.44415364501E+03  0.00000000000E+00 0. -1.
         -2    1    5    5    0  503 -0.58306543876E+01 -0.12684706280E+02 -0.84263167197E+01  0.16306474709E+02  0.00000000000E+00 0.  1.
         -3    1    6    6    0  502 -0.22198599190E+01  0.22762123353E+02  0.32649613081E+02  0.39862755448E+02  0.00000000000E+00 0.  1.
<mgrwt>
<rscale>  0 0.16785659E+04</rscale>
<asrwt>0</asrwt>
<pdfrwt beam="1">  1        1 0.21519729E+00 0.16785659E+04</pdfrwt>
<pdfrwt beam="2">  1       -1 0.77473522E-01 0.16785659E+04</pdfrwt>
<totfact> 0.12254682E+01</totfact>
</mgrwt>
</event>
<event>
12    1  0.1397649E-007  0.2312465E+04  0.7818608E-02  0.8473023E-01
          2   -1    0    0  501    0  0.00000000000E+00  0.00000000000E+00  0.12748337167E+04  0.12748337167E+04  0.00000000000E+00 0. -1.
         -2   -1    0    0    0  501 -0.00000000000E+00 -0.00000000000E+00 -0.10486646558E+04  0.10486646558E+04  0.00000000000E+00 0.  1.
         23    2    1    2    0    0 -0.41726361223E+03  0.31905066493E+03 -0.73742270245E+03  0.91097131730E+03  0.10086748721E+03 0.  0.
        254    2    1    2    0    0  0.41726361223E+03 -0.31905066493E+03  0.96359176341E+03  0.14125270552E+04  0.88928136502E+03 0.  0.
        -24    2    4    4    0    0  0.62853539742E+03 -0.40382616383E+03  0.54060464738E+03  0.92567874018E+03  0.80594223455E+02 0.  0.
         24    2    4    4    0    0 -0.21127178519E+03  0.84775498891E+02  0.42298711603E+03  0.48684831498E+03  0.79249788914E+02 0.  0.
         11    1    3    3    0    0 -0.18920045734E+02  0.89799959505E+01 -0.76542863574E+02  0.79356275252E+02  0.00000000000E+00 0. -1.
        -11    1    3    3    0    0 -0.39834356650E+03  0.31007066898E+03 -0.66087983888E+03  0.83161504205E+03  0.00000000000E+00 0.  1.
          2    1    6    6  502    0 -0.21371017431E+03  0.90856713624E+02  0.41934851114E+03  0.47935389308E+03  0.00000000000E+00 0. -1.
          3    1    5    5  503    0  0.62359540934E+03 -0.39643341253E+03  0.54235958755E+03  0.91661584501E+03  0.00000000000E+00 0. -1.
         -4    1    5    5    0  503  0.49399880874E+01 -0.73927512961E+01 -0.17549401633E+01  0.90628951780E+01  0.00000000000E+00 0.  1.
         -1    1    6    6    0  502  0.24383891149E+01 -0.60812147330E+01  0.36386048836E+01  0.74944218993E+01  0.00000000000E+00 0.  1.
<mgrwt>
<rscale>  0 0.23124645E+04</rscale>
<asrwt>0</asrwt>
<pdfrwt beam="1">  1        2 0.19612827E+00 0.23124645E+04</pdfrwt>
<pdfrwt beam="2">  1       -2 0.16133302E+00 0.23124645E+04</pdfrwt>
<totfact> 0.38145660E+00</totfact>
</mgrwt>
</event>
<event>
12    1  0.1828204E-007  0.1912309E+04  0.7818608E-02  0.8648753E-01
         -2   -1    0    0    0  501 -0.00000000000E+00  0.00000000000E+00  0.43388497773E+03  0.43388497773E+03  0.00000000000E+00 0.  1.
          2   -1    0    0  501    0  0.00000000000E+00 -0.00000000000E+00 -0.21070828573E+04  0.21070828573E+04  0.00000000000E+00 0. -1.
         23    2    1    2    0    0  0.16720179282E+03 -0.43049208522E+03 -0.14333079337E+04  0.15085468246E+04  0.89788720275E+02 0.  0.
        254    2    1    2    0    0 -0.16720179282E+03  0.43049208522E+03 -0.23988994582E+03  0.10324210104E+04  0.89166478095E+03 0.  0.
        -24    2    4    4    0    0 -0.21697750042E+03  0.63172518091E+03  0.41048136209E+02  0.67437703336E+03  0.83327628995E+02 0.  0.
         24    2    4    4    0    0  0.49775707602E+02 -0.20123309568E+03 -0.28093808203E+03  0.35804397701E+03  0.79353031917E+02 0.  0.
         13    1    3    3    0    0  0.15804707763E+03 -0.29767932698E+03 -0.10024608412E+04  0.10576008693E+04  0.00000000000E+00 0. -1.
        -13    1    3    3    0    0  0.91547151889E+01 -0.13281275824E+03 -0.43084709248E+03  0.45094595536E+03  0.00000000000E+00 0.  1.
          2    1    6    6  502    0  0.30463803038E+02 -0.20033013633E+03 -0.25622053940E+03  0.32666369806E+03  0.00000000000E+00 0. -1.
          3    1    5    5  503    0 -0.18206254433E+03  0.59159492498E+03  0.47491346993E+02  0.62079525880E+03  0.00000000000E+00 0. -1.
         -2    1    5    5    0  503 -0.34914956087E+02  0.40130255923E+02 -0.64432107846E+01  0.53581774552E+02  0.00000000000E+00 0.  1.
         -1    1    6    6    0  502  0.19311904564E+02 -0.90295934811E+00 -0.24717542631E+02  0.31380278953E+02  0.00000000000E+00 0.  1.
<mgrwt>
<rscale>  0 0.19123092E+04</rscale>
<asrwt>0</asrwt>
<pdfrwt beam="1">  1        2 0.32416659E+00 0.19123092E+04</pdfrwt>
<pdfrwt beam="2">  1       -2 0.66751537E-01 0.19123092E+04</pdfrwt>
<totfact> 0.11230046E+01</totfact>
</mgrwt>
</event>
<event>
12    1  0.1397649E-007  0.1556482E+04  0.7818608E-02  0.8847738E-01
         -1   -1    0    0    0  501 -0.00000000000E+00  0.00000000000E+00  0.28853502330E+03  0.28853502330E+03  0.00000000000E+00 0.  1.
          1   -1    0    0  501    0  0.00000000000E+00 -0.00000000000E+00 -0.20990837075E+04  0.20990837075E+04  0.00000000000E+00 0. -1.
         23    2    1    2    0    0 -0.22023258437E+03 -0.34009838102E+03 -0.11140146790E+04  0.11890638949E+04  0.93139363955E+02 0.  0.
        254    2    1    2    0    0  0.22023258437E+03  0.34009838102E+03 -0.69653400520E+03  0.11985548359E+04  0.88724561102E+03 0.  0.
        -24    2    4    4    0    0  0.33564681570E+03  0.28089518687E+03  0.39637692498E+02  0.44681759474E+03  0.80708893016E+02 0.  0.
         24    2    4    4    0    0 -0.11541423133E+03  0.59203194152E+02 -0.73617169770E+03  0.75173724116E+03  0.79590503601E+02 0.  0.
         13    1    3    3    0    0 -0.14364223929E+03 -0.15565247439E+03 -0.48851925962E+03  0.53245831077E+03  0.00000000000E+00 0. -1.
        -13    1    3    3    0    0 -0.76590345082E+02 -0.18444590663E+03 -0.62549541934E+03  0.65660558408E+03  0.00000000000E+00 0.  1.
          2    1    6    6  502    0 -0.12412753816E+03  0.39001037819E+02 -0.62125465811E+03  0.63473307531E+03  0.00000000000E+00 0. -1.
          3    1    5    5  503    0  0.33135330800E+03  0.27947877383E+03  0.28056586937E+02  0.43438528039E+03  0.00000000000E+00 0. -1.
         -4    1    5    5    0  503  0.42935076959E+01  0.14164130346E+01  0.11581105561E+02  0.12432314355E+02  0.00000000000E+00 0.  1.
         -1    1    6    6    0  502  0.87133068294E+01  0.20202156333E+02 -0.11491703959E+03  0.11700416584E+03  0.00000000000E+00 0.  1.
<mgrwt>
<rscale>  0 0.15564821E+04</rscale>
<asrwt>0</asrwt>
<pdfrwt beam="1">  1        1 0.32293596E+00 0.15564821E+04</pdfrwt>
<pdfrwt beam="2">  1       -1 0.44390002E-01 0.15564821E+04</pdfrwt>
<totfact> 0.12355697E+01</totfact>
</mgrwt>
</event>
<event>
12    1  0.1397649E-007  0.2307727E+04  0.7818608E-02  0.8474881E-01
         -2   -1    0    0    0  501 -0.00000000000E+00  0.00000000000E+00  0.35727210784E+03  0.35727210784E+03  0.00000000000E+00 0.  1.
          2   -1    0    0  501    0  0.00000000000E+00 -0.00000000000E+00 -0.37265728657E+04  0.37265728657E+04  0.00000000000E+00 0. -1.
         23    2    1    2    0    0  0.33961403347E+03  0.81942342585E+03 -0.21618989153E+04  0.23385741522E+04  0.91267204439E+02 0.  0.
        254    2    1    2    0    0 -0.33961403347E+03 -0.81942342585E+03 -0.12074018426E+04  0.17452708214E+04  0.89518634260E+03 0.  0.
        -24    2    4    4    0    0 -0.11337469076E+03 -0.68724895979E+02 -0.87712827518E+03  0.89082150346E+03  0.81437141939E+02 0.  0.
         24    2    4    4    0    0 -0.22623934271E+03 -0.75069852987E+03 -0.33027356739E+03  0.85444931792E+03  0.79186391743E+02 0.  0.
         13    1    3    3    0    0  0.77293609437E+02  0.19444311377E+03 -0.41440026382E+03  0.46423055178E+03  0.00000000000E+00 0. -1.
        -13    1    3    3    0    0  0.26232042403E+03  0.62498031208E+03 -0.17474986515E+04  0.18743436004E+04  0.00000000000E+00 0.  1.
          4    1    6    6  502    0 -0.19590190531E+03 -0.67024520741E+03 -0.31909696003E+03  0.76774283745E+03  0.00000000000E+00 0. -1.
          1    1    5    5  503    0 -0.11453563835E+03 -0.34737844360E+02 -0.73501567863E+03  0.74469670210E+03  0.00000000000E+00 0. -1.
         -2    1    5    5    0  503  0.11609475920E+01 -0.33987051619E+02 -0.14211259654E+03  0.14612480136E+03  0.00000000000E+00 0.  1.
         -3    1    6    6    0  502 -0.30337437398E+02 -0.80453322457E+02 -0.11176607361E+02  0.86706480463E+02  0.00000000000E+00 0.  1.
<mgrwt>
<rscale>  0 0.23077266E+04</rscale>
<asrwt>0</asrwt>
<pdfrwt beam="1">  1        2 0.57331889E+00 0.23077266E+04</pdfrwt>
<pdfrwt beam="2">  1       -2 0.54964941E-01 0.23077266E+04</pdfrwt>
<totfact> 0.15794095E+00</totfact>
</mgrwt>
</event>
<event>
12    1  0.1397649E-007  0.1509970E+04  0.7818608E-02  0.8877850E-01
         -1   -1    0    0    0  501 -0.00000000000E+00  0.00000000000E+00  0.26853813456E+03  0.26853813456E+03  0.00000000000E+00 0.  1.
          1   -1    0    0  501    0  0.00000000000E+00 -0.00000000000E+00 -0.21226111111E+04  0.21226111111E+04  0.00000000000E+00 0. -1.
         23    2    1    2    0    0  0.27782598034E+02 -0.16244046908E+02 -0.13068259170E+04  0.13104712478E+04  0.92223490183E+02 0.  0.
        254    2    1    2    0    0 -0.27782598034E+02  0.16244046908E+02 -0.54724705955E+03  0.10806779979E+04  0.93131619179E+03 0.  0.
        -24    2    4    4    0    0 -0.39327619541E+03  0.24564342101E+03 -0.39635334023E+03  0.61584647441E+03  0.84640732323E+02 0.  0.
         24    2    4    4    0    0  0.36549359738E+03 -0.22939937410E+03 -0.15089371932E+03  0.46483152347E+03  0.84200879535E+02 0.  0.
         11    1    3    3    0    0  0.16868825384E+02 -0.51335867012E+02 -0.52295560651E+03  0.52573994987E+03  0.00000000000E+00 0.  1.
        -11    1    3    3    0    0  0.10913772650E+02  0.35091820104E+02 -0.78387031046E+03  0.78473129789E+03  0.00000000000E+00 0. -1.
          4    1    6    6  502    0  0.36528936389E+03 -0.23254983679E+03 -0.15474671112E+03  0.45985029147E+03  0.00000000000E+00 0. -1.
          3    1    5    5  503    0 -0.20207478763E+03  0.77503189643E+02 -0.19320169934E+03  0.29011697783E+03  0.00000000000E+00 0. -1.
         -4    1    5    5    0  503 -0.19120140778E+03  0.16814023137E+03 -0.20315164090E+03  0.32572949658E+03  0.00000000000E+00 0.  1.
         -3    1    6    6    0  502  0.20423348819E+00  0.31504626823E+01  0.38529917989E+01  0.49812319995E+01  0.00000000000E+00 0.  1.
<mgrwt>
<rscale>  0 0.15099696E+04</rscale>
<asrwt>0</asrwt>
<pdfrwt beam="1">  1        1 0.32655556E+00 0.15099696E+04</pdfrwt>
<pdfrwt beam="2">  1       -1 0.41313559E-01 0.15099696E+04</pdfrwt>
<totfact> 0.13659342E+01</totfact>
</mgrwt>
</event>
<event>
12    1  0.1397649E-007  0.1640747E+04  0.7818608E-02  0.8795899E-01
         -1   -1    0    0    0  501 -0.00000000000E+00  0.00000000000E+00  0.34301119092E+03  0.34301119092E+03  0.00000000000E+00 0.  1.
          1   -1    0    0  501    0  0.00000000000E+00 -0.00000000000E+00 -0.19620716728E+04  0.19620716728E+04  0.00000000000E+00 0. -1.
         23    2    1    2    0    0 -0.29385113836E+03  0.48586628267E+03 -0.61442450204E+03  0.84155015971E+03  0.90965193639E+02 0.  0.
        254    2    1    2    0    0  0.29385113836E+03 -0.48586628267E+03 -0.10046359798E+04  0.14635327040E+04  0.90012220703E+03 0.  0.
        -24    2    4    4    0    0  0.46433459766E+03 -0.61552950937E+03 -0.53719461284E+03  0.94322931126E+03  0.81365140372E+02 0.  0.
         24    2    4    4    0    0 -0.17048345931E+03  0.12966322670E+03 -0.46744136700E+03  0.52030339276E+03  0.79605443736E+02 0.  0.
         11    1    3    3    0    0 -0.29899297414E+03  0.46426437869E+03 -0.59773362172E+03  0.81377127895E+03  0.00000000000E+00 0. -1.
        -11    1    3    3    0    0  0.51418357787E+01  0.21601903980E+02 -0.16690880322E+02  0.27778880766E+02  0.00000000000E+00 0.  1.
          4    1    6    6  502    0 -0.16487240644E+03  0.11646420950E+03 -0.46331615798E+03  0.50537974311E+03  0.00000000000E+00 0. -1.
          1    1    5    5  503    0  0.28459074486E+03 -0.39673773219E+03 -0.29374910026E+03  0.56980808533E+03  0.00000000000E+00 0. -1.
         -2    1    5    5    0  503  0.17974385280E+03 -0.21879177718E+03 -0.24344551258E+03  0.37342122593E+03  0.00000000000E+00 0.  1.
         -3    1    6    6    0  502 -0.56110528685E+01  0.13199017196E+02 -0.41252090202E+01  0.14923649644E+02  0.00000000000E+00 0.  1.
<mgrwt>
<rscale>  0 0.16407468E+04</rscale>
<asrwt>0</asrwt>
<pdfrwt beam="1">  1        1 0.30185718E+00 0.16407468E+04</pdfrwt>
<pdfrwt beam="2">  1       -1 0.52770952E-01 0.16407468E+04</pdfrwt>
<totfact> 0.10948424E+01</totfact>
</mgrwt>
</event>
<event>
12    1  0.1397649E-007  0.2340552E+04  0.7818608E-02  0.8462101E-01
          1   -1    0    0  501    0  0.00000000000E+00  0.00000000000E+00  0.96980452435E+03  0.96980452435E+03  0.00000000000E+00 0. -1.
         -1   -1    0    0    0  501 -0.00000000000E+00 -0.00000000000E+00 -0.14121881811E+04  0.14121881811E+04  0.00000000000E+00 0.  1.
         23    2    1    2    0    0 -0.49348468087E+03 -0.52388161506E+03  0.51460195243E+03  0.88928316145E+03  0.89611912919E+02 0.  0.
        254    2    1    2    0    0  0.49348468087E+03  0.52388161506E+03 -0.95698560921E+03  0.14927095440E+04  0.89128067955E+03 0.  0.
        -24    2    4    4    0    0 -0.16109156434E+03 -0.24329849683E+02 -0.47587541656E+03  0.50942940079E+03  0.80737033751E+02 0.  0.
         24    2    4    4    0    0  0.65457624521E+03  0.54821146474E+03 -0.48111019265E+03  0.98328014323E+03  0.79793181022E+02 0.  0.
         13    1    3    3    0    0 -0.82489650209E+02 -0.59618507188E+02  0.44048329740E+02  0.11090159667E+03  0.00000000000E+00 0.  1.
        -13    1    3    3    0    0 -0.41099503066E+03 -0.46426310787E+03  0.47055362269E+03  0.77838156478E+03  0.00000000000E+00 0. -1.
          4    1    6    6  502    0  0.61759009722E+03  0.50658130091E+03 -0.42749036077E+03  0.90597469676E+03  0.00000000000E+00 0. -1.
          1    1    5    5  503    0 -0.16491986935E+03 -0.21367565838E+02 -0.39723259555E+03  0.43063774933E+03  0.00000000000E+00 0. -1.
         -2    1    5    5    0  503  0.38283050076E+01 -0.29622838449E+01 -0.78642821008E+02  0.78791651467E+02  0.00000000000E+00 0.  1.
         -3    1    6    6    0  502  0.36986147988E+02  0.41630163831E+02 -0.53619831878E+02  0.77305446472E+02  0.00000000000E+00 0.  1.
<mgrwt>
<rscale>  0 0.23405525E+04</rscale>
<asrwt>0</asrwt>
<pdfrwt beam="1">  1        1 0.14920070E+00 0.23405525E+04</pdfrwt>
<pdfrwt beam="2">  1       -1 0.21725972E+00 0.23405525E+04</pdfrwt>
<totfact> 0.16528569E+00</totfact>
</mgrwt>
</event>
<event>
12    1  0.1397649E-007  0.1502732E+04  0.7818608E-02  0.8882638E-01
         -1   -1    0    0    0  501 -0.00000000000E+00  0.00000000000E+00  0.16543797356E+03  0.16543797356E+03  0.00000000000E+00 0.  1.
          1   -1    0    0  501    0  0.00000000000E+00 -0.00000000000E+00 -0.34124637313E+04  0.34124637313E+04  0.00000000000E+00 0. -1.
         23    2    1    2    0    0 -0.20529084180E+03  0.40764515116E+03 -0.74408923024E+03  0.87763604699E+03  0.90869958887E+02 0.  0.
        254    2    1    2    0    0  0.20529084180E+03 -0.40764515116E+03 -0.25029365275E+04  0.27002656579E+04  0.90466815096E+03 0.  0.
        -24    2    4    4    0    0 -0.45557650846E+02 -0.45774848980E+03 -0.51894956569E+03  0.69833139711E+03  0.82151743768E+02 0.  0.
         24    2    4    4    0    0  0.25084849265E+03  0.50103338640E+02 -0.19839869618E+04  0.20019342608E+04  0.78110235698E+02 0.  0.
         13    1    3    3    0    0 -0.11971616780E+02  0.38088747779E+00 -0.38527898453E+02  0.40346792225E+02  0.00000000000E+00 0. -1.
        -13    1    3    3    0    0 -0.19331922502E+03  0.40726426368E+03 -0.70556133178E+03  0.83728925476E+03  0.00000000000E+00 0.  1.
          4    1    6    6  502    0  0.21251957374E+03  0.62156862859E+02 -0.14962225971E+04  0.15125178031E+04  0.00000000000E+00 0. -1.
          3    1    5    5  503    0 -0.17738161181E+02 -0.14836245616E+03 -0.11389574376E+03  0.18787842134E+03  0.00000000000E+00 0. -1.
         -4    1    5    5    0  503 -0.27819489665E+02 -0.30938603364E+03 -0.40505382193E+03  0.51045297577E+03  0.00000000000E+00 0.  1.
         -3    1    6    6    0  502  0.38328918905E+02 -0.12053524220E+02 -0.48776436477E+03  0.48941645764E+03  0.00000000000E+00 0.  1.
<mgrwt>
<rscale>  0 0.15027323E+04</rscale>
<asrwt>0</asrwt>
<pdfrwt beam="1">  1        1 0.52499442E+00 0.15027323E+04</pdfrwt>
<pdfrwt beam="2">  1       -1 0.25451996E-01 0.15027323E+04</pdfrwt>
<totfact> 0.38844111E+00</totfact>
</mgrwt>
</event>
<event>
12    1  0.1397649E-007  0.1307848E+04  0.7818608E-02  0.9023365E-01
          1   -1    0    0  501    0  0.00000000000E+00  0.00000000000E+00  0.10493823984E+04  0.10493823984E+04  0.00000000000E+00 0. -1.
         -1   -1    0    0    0  501 -0.00000000000E+00 -0.00000000000E+00 -0.40749336744E+03  0.40749336744E+03  0.00000000000E+00 0.  1.
         23    2    1    2    0    0  0.91199009152E+02  0.21034487706E+03 -0.89717129264E+02  0.26321648198E+03  0.93121031616E+02 0.  0.
        254    2    1    2    0    0 -0.91199009152E+02 -0.21034487706E+03  0.73160616027E+03  0.11936592839E+04  0.91488397391E+03 0.  0.
        -24    2    4    4    0    0  0.35539573220E+03 -0.23059684310E+03  0.15207293491E+03  0.45730316874E+03  0.80740201183E+02 0.  0.
         24    2    4    4    0    0 -0.44659474136E+03  0.20251966044E+02  0.57953322536E+03  0.73635611516E+03  0.80650876640E+02 0.  0.
         11    1    3    3    0    0  0.82525719064E+02  0.18020851451E+03 -0.10920072579E+03  0.22629715315E+03  0.00000000000E+00 0.  1.
        -11    1    3    3    0    0  0.86732900885E+01  0.30136362544E+02  0.19483596521E+02  0.36919328836E+02  0.00000000000E+00 0. -1.
          4    1    6    6  502    0 -0.29382162636E+03  0.52404666881E+01  0.43870866066E+03  0.52803778231E+03  0.00000000000E+00 0. -1.
          1    1    5    5  503    0  0.13082176416E+03 -0.78875251239E+02  0.14732528503E+02  0.15346884581E+03  0.00000000000E+00 0. -1.
         -2    1    5    5    0  503  0.22457396804E+03 -0.15172159186E+03  0.13734040641E+03  0.30383432293E+03  0.00000000000E+00 0.  1.
         -3    1    6    6    0  502 -0.15277311500E+03  0.15011499356E+02  0.14082456470E+03  0.20831833285E+03  0.00000000000E+00 0.  1.
<mgrwt>
<rscale>  0 0.13078476E+04</rscale>
<asrwt>0</asrwt>
<pdfrwt beam="1">  1        1 0.16144345E+00 0.13078476E+04</pdfrwt>
<pdfrwt beam="2">  1       -1 0.62691288E-01 0.13078476E+04</pdfrwt>
<totfact> 0.35110547E+01</totfact>
</mgrwt>
</event>
<event>
12    1  0.1397649E-007  0.2439466E+04  0.7818608E-02  0.8424874E-01
          1   -1    0    0  501    0  0.00000000000E+00  0.00000000000E+00  0.25830856026E+04  0.25830856026E+04  0.00000000000E+00 0. -1.
         -1   -1    0    0    0  501 -0.00000000000E+00 -0.00000000000E+00 -0.57595776869E+03  0.57595776869E+03  0.00000000000E+00 0.  1.
         23    2    1    2    0    0  0.59560255836E+03  0.63949170096E+03  0.16148820103E+04  0.18385604171E+04  0.93640040269E+02 0.  0.
        254    2    1    2    0    0 -0.59560255836E+03 -0.63949170096E+03  0.39224582368E+03  0.13204829542E+04  0.90891495920E+03 0.  0.
        -24    2    4    4    0    0 -0.53128818484E+03 -0.10349815056E+03  0.52545077824E+03  0.75867039212E+03  0.80642674836E+02 0.  0.
         24    2    4    4    0    0 -0.64314373517E+02 -0.53599355040E+03 -0.13320495456E+03  0.56181256209E+03  0.80401307796E+02 0.  0.
         11    1    3    3    0    0  0.90854510192E+02  0.14306195991E+03  0.35540914491E+03  0.39374728784E+03  0.00000000000E+00 0.  1.
        -11    1    3    3    0    0  0.50474804817E+03  0.49642974105E+03  0.12594728654E+04  0.14448131293E+04  0.00000000000E+00 0. -1.
          4    1    6    6  502    0 -0.37848336340E+00 -0.33075525728E+03 -0.85155919054E+02  0.34154167244E+03  0.00000000000E+00 0. -1.
          1    1    5    5  503    0 -0.36054609119E+03 -0.31404974473E+02  0.34723335372E+03  0.50154836081E+03  0.00000000000E+00 0. -1.
         -2    1    5    5    0  503 -0.17074209365E+03 -0.72093176091E+02  0.17821742453E+03  0.25712203132E+03  0.00000000000E+00 0.  1.
         -3    1    6    6    0  502 -0.63935890154E+02 -0.20523829312E+03 -0.48049035510E+02  0.22027088965E+03  0.00000000000E+00 0.  1.
<mgrwt>
<rscale>  0 0.24394657E+04</rscale>
<asrwt>0</asrwt>
<pdfrwt beam="1">  1        1 0.39739778E+00 0.24394657E+04</pdfrwt>
<pdfrwt beam="2">  1       -1 0.88608889E-01 0.24394657E+04</pdfrwt>
<totfact> 0.13235030E+00</totfact>
</mgrwt>
</event>
<event>
12    1  0.1397649E-007  0.1965746E+04  0.7818608E-02  0.8622805E-01
          2   -1    0    0  501    0  0.00000000000E+00  0.00000000000E+00  0.12953651841E+04  0.12953651841E+04  0.00000000000E+00 0. -1.
         -2   -1    0    0    0  501 -0.00000000000E+00 -0.00000000000E+00 -0.74576581392E+03  0.74576581392E+03  0.00000000000E+00 0.  1.
         23    2    1    2    0    0  0.27276321024E+02 -0.68376616040E+02 -0.57937430912E+03  0.59077458544E+03  0.88998097847E+02 0.  0.
        254    2    1    2    0    0 -0.27276321024E+02  0.68376616040E+02  0.11289736793E+04  0.14503564126E+04  0.90748707740E+03 0.  0.
        -24    2    4    4    0    0  0.22352351437E+03  0.34611236814E+03  0.92795604011E+03  0.10183150481E+04  0.78144686486E+02 0.  0.
         24    2    4    4    0    0 -0.25079983540E+03 -0.27773575210E+03  0.20101763917E+03  0.43204136443E+03  0.78828572805E+02 0.  0.
         13    1    3    3    0    0  0.17232434624E+02 -0.47241387307E+02 -0.11149447989E+03  0.12230995268E+03  0.00000000000E+00 0. -1.
        -13    1    3    3    0    0  0.10043886400E+02 -0.21135228733E+02 -0.46787982923E+03  0.46846463276E+03  0.00000000000E+00 0.  1.
          4    1    6    6  502    0 -0.12362048475E+03 -0.11220574018E+03  0.12983383746E+03  0.21149226399E+03  0.00000000000E+00 0. -1.
          3    1    5    5  503    0  0.19285846678E+03  0.25660236797E+03  0.65504598496E+03  0.72946857771E+03  0.00000000000E+00 0. -1.
         -4    1    5    5    0  503  0.30665047594E+02  0.89510000163E+02  0.27291005515E+03  0.28884647042E+03  0.00000000000E+00 0.  1.
         -3    1    6    6    0  502 -0.12717935065E+03 -0.16553001192E+03  0.71183801707E+02  0.22054910043E+03  0.00000000000E+00 0.  1.
<mgrwt>
<rscale>  0 0.19657457E+04</rscale>
<asrwt>0</asrwt>
<pdfrwt beam="1">  1        2 0.19928695E+00 0.19657457E+04</pdfrwt>
<pdfrwt beam="2">  1       -2 0.11473320E+00 0.19657457E+04</pdfrwt>
<totfact> 0.91917510E+00</totfact>
</mgrwt>
</event>
<event>
12    1  0.1397649E-007  0.1302689E+04  0.7818608E-02  0.9027436E-01
         -2   -1    0    0    0  501 -0.00000000000E+00  0.00000000000E+00  0.15509192009E+03  0.15509192009E+03  0.00000000000E+00 0.  1.
          2   -1    0    0  501    0  0.00000000000E+00 -0.00000000000E+00 -0.27354712093E+04  0.27354712093E+04  0.00000000000E+00 0. -1.
         23    2    1    2    0    0 -0.12321834457E+03 -0.27189524703E+03 -0.39838224314E+03  0.50621501343E+03  0.91844664377E+02 0.  0.
        254    2    1    2    0    0  0.12321834457E+03  0.27189524703E+03 -0.21819970461E+04  0.23843481160E+04  0.91372591254E+03 0.  0.
        -24    2    4    4    0    0  0.37020441156E+03  0.49082425222E+03 -0.13403966167E+04  0.14769014770E+04  0.81333447681E+02 0.  0.
         24    2    4    4    0    0 -0.24698606699E+03 -0.21892900519E+03 -0.84160042941E+03  0.90744663903E+03  0.78968938812E+02 0.  0.
         13    1    3    3    0    0  0.20643561616E+01 -0.10194921991E+02  0.31108495727E+01  0.10857043144E+02  0.00000000000E+00 0. -1.
        -13    1    3    3    0    0 -0.12528270073E+03 -0.26170032504E+03 -0.40149309271E+03  0.49535797029E+03  0.00000000000E+00 0.  1.
          4    1    6    6  502    0 -0.10472137204E+03 -0.12037126169E+03 -0.31441918780E+03  0.35258365257E+03  0.00000000000E+00 0. -1.
          1    1    5    5  503    0  0.26528518653E+02  0.48410480998E+02 -0.75791146482E+02  0.93763718236E+02  0.00000000000E+00 0. -1.
         -2    1    5    5    0  503  0.34367589291E+03  0.44241377122E+03 -0.12646054702E+04  0.13831377587E+04  0.00000000000E+00 0.  1.
         -3    1    6    6    0  502 -0.14226469495E+03 -0.98557743496E+02 -0.52718124161E+03  0.55486298646E+03  0.00000000000E+00 0.  1.
<mgrwt>
<rscale>  0 0.13026887E+04</rscale>
<asrwt>0</asrwt>
<pdfrwt beam="1">  1        2 0.42084171E+00 0.13026887E+04</pdfrwt>
<pdfrwt beam="2">  1       -2 0.23860296E-01 0.13026887E+04</pdfrwt>
<totfact> 0.38979456E+01</totfact>
</mgrwt>
</event>
<event>
12    1  0.1397649E-007  0.1520768E+04  0.7818608E-02  0.8870759E-01
         -2   -1    0    0    0  501 -0.00000000000E+00  0.00000000000E+00  0.74682944773E+03  0.74682944773E+03  0.00000000000E+00 0.  1.
          2   -1    0    0  501    0  0.00000000000E+00 -0.00000000000E+00 -0.77418479695E+03  0.77418479695E+03  0.00000000000E+00 0. -1.
         23    2    1    2    0    0 -0.37319896540E+03 -0.16843356195E+02  0.20981375743E+03  0.43805604812E+03  0.91159870910E+02 0.  0.
        254    2    1    2    0    0  0.37319896540E+03  0.16843356195E+02 -0.23716910665E+03  0.10829581966E+04  0.98842708579E+03 0.  0.
        -24    2    4    4    0    0 -0.27380372320E+03  0.12920426937E+03  0.11486175213E+03  0.33370382610E+03  0.80639936698E+02 0.  0.
         24    2    4    4    0    0  0.64700268860E+03 -0.11236091318E+03 -0.35203085878E+03  0.74925437045E+03  0.78860206946E+02 0.  0.
         11    1    3    3    0    0 -0.98273248588E+02 -0.44826687532E+02  0.52981006733E+02  0.12030814759E+03  0.00000000000E+00 0. -1.
        -11    1    3    3    0    0 -0.27492571681E+03  0.27983331338E+02  0.15683275070E+03  0.31774790053E+03  0.00000000000E+00 0.  1.
          4    1    6    6  502    0  0.17044813916E+03 -0.64345084988E+02 -0.87890619838E+02  0.20228104004E+03  0.00000000000E+00 0. -1.
          1    1    5    5  503    0 -0.96809492478E+02  0.29271986922E+02  0.18783044900E+01  0.10115559836E+03  0.00000000000E+00 0. -1.
         -2    1    5    5    0  503 -0.17699423072E+03  0.99932282452E+02  0.11298344764E+03  0.23254822774E+03  0.00000000000E+00 0.  1.
         -3    1    6    6    0  502  0.47655454945E+03 -0.48015828191E+02 -0.26414023894E+03  0.54697333041E+03  0.00000000000E+00 0.  1.
<mgrwt>
<rscale>  0 0.15207682E+04</rscale>
<asrwt>0</asrwt>
<pdfrwt beam="1">  1        2 0.11910535E+00 0.15207682E+04</pdfrwt>
<pdfrwt beam="2">  1       -2 0.11489684E+00 0.15207682E+04</pdfrwt>
<totfact> 0.20509027E+01</totfact>
</mgrwt>
</event>
<event>
12    1  0.1397649E-007  0.1142830E+04  0.7818608E-02  0.9164423E-01
         -1   -1    0    0    0  501 -0.00000000000E+00  0.00000000000E+00  0.46765327429E+03  0.46765327429E+03  0.00000000000E+00 0.  1.
          1   -1    0    0  501    0  0.00000000000E+00 -0.00000000000E+00 -0.69819963683E+03  0.69819963683E+03  0.00000000000E+00 0. -1.
         23    2    1    2    0    0  0.62468416481E+02  0.18342327404E+03 -0.87446284253E+02  0.23165399793E+03  0.92034350180E+02 0.  0.
        254    2    1    2    0    0 -0.62468416481E+02 -0.18342327404E+03 -0.14310007828E+03  0.93419891318E+03  0.90260931552E+03 0.  0.
        -24    2    4    4    0    0  0.14334834551E+03 -0.23873807414E+03 -0.45984780849E+03  0.54418049488E+03  0.84426227218E+02 0.  0.
         24    2    4    4    0    0 -0.20581676199E+03  0.55314800100E+02  0.31674773020E+03  0.39001841829E+03  0.79780795915E+02 0.  0.
         11    1    3    3    0    0  0.76865326626E+02  0.13458649901E+03 -0.35676897404E+02  0.15904290352E+03  0.00000000000E+00 0. -1.
        -11    1    3    3    0    0 -0.14396910145E+02  0.48836775032E+02 -0.51769386848E+02  0.72611094413E+02  0.00000000000E+00 0.  1.
          4    1    6    6  502    0 -0.11378909401E+02  0.13700414164E+02  0.22735385641E+01  0.17954105520E+02  0.00000000000E+00 0. -1.
          1    1    5    5  503    0  0.67004395482E+02 -0.40408108988E+02 -0.11445879540E+03  0.13864782772E+03  0.00000000000E+00 0. -1.
         -2    1    5    5    0  503  0.76343950024E+02 -0.19832996515E+03 -0.34538901308E+03  0.40553266717E+03  0.00000000000E+00 0.  1.
         -3    1    6    6    0  502 -0.19443785259E+03  0.41614385936E+02  0.31447419164E+03  0.37206431278E+03  0.00000000000E+00 0.  1.
<mgrwt>
<rscale>  0 0.11428304E+04</rscale>
<asrwt>0</asrwt>
<pdfrwt beam="1">  1        1 0.10741533E+00 0.11428304E+04</pdfrwt>
<pdfrwt beam="2">  1       -1 0.71946658E-01 0.11428304E+04</pdfrwt>
<totfact> 0.53007586E+01</totfact>
</mgrwt>
</event>
<event>
12    1  0.1397649E-007  0.1215190E+04  0.7818608E-02  0.9099664E-01
         -2   -1    0    0    0  501 -0.00000000000E+00  0.00000000000E+00  0.25351461921E+03  0.25351461921E+03  0.00000000000E+00 0.  1.
          2   -1    0    0  501    0  0.00000000000E+00 -0.00000000000E+00 -0.14562149735E+04  0.14562149735E+04  0.00000000000E+00 0. -1.
         23    2    1    2    0    0  0.92857012071E+02  0.54764527177E+02  0.86574671193E+02  0.16440311765E+03  0.88947362377E+02 0.  0.
        254    2    1    2    0    0 -0.92857012071E+02 -0.54764527177E+02 -0.12892750255E+04  0.15453264751E+04  0.84509303928E+03 0.  0.
        -24    2    4    4    0    0  0.33005888223E+03 -0.12034914711E+03 -0.31942003823E+03  0.48226206412E+03  0.84408262153E+02 0.  0.
         24    2    4    4    0    0 -0.42291589430E+03  0.65584619935E+02 -0.96985498728E+03  0.10630644110E+04  0.79549038060E+02 0.  0.
         11    1    3    3    0    0  0.11928557965E+02  0.56841271605E+02  0.44498057379E+02  0.73166233764E+02  0.00000000000E+00 0. -1.
        -11    1    3    3    0    0  0.80928454106E+02 -0.20767444277E+01  0.42076613814E+02  0.91236883887E+02  0.00000000000E+00 0.  1.
          2    1    6    6  502    0 -0.15311744708E+03 -0.90018655384E+01 -0.39332182985E+03  0.42217063851E+03  0.00000000000E+00 0. -1.
          1    1    5    5  503    0  0.28751304677E+02 -0.21023587197E+02 -0.56705034925E+01  0.36066374216E+02  0.00000000000E+00 0. -1.
         -2    1    5    5    0  503  0.30130757756E+03 -0.99325559915E+02 -0.31374953473E+03  0.44619568991E+03  0.00000000000E+00 0.  1.
         -1    1    6    6    0  502 -0.26979844723E+03  0.74586485473E+02 -0.57653315743E+03  0.64089377244E+03  0.00000000000E+00 0.  1.
<mgrwt>
<rscale>  0 0.12151902E+04</rscale>
<asrwt>0</asrwt>
<pdfrwt beam="1">  1        2 0.22403307E+00 0.12151902E+04</pdfrwt>
<pdfrwt beam="2">  1       -2 0.39002250E-01 0.12151902E+04</pdfrwt>
<totfact> 0.82280965E+01</totfact>
</mgrwt>
</event>
<event>
12    1  0.1397649E-007  0.1882381E+04  0.7818608E-02  0.8663677E-01
          2   -1    0    0  501    0  0.00000000000E+00  0.00000000000E+00  0.83706800098E+03  0.83706800098E+03  0.00000000000E+00 0. -1.
         -2   -1    0    0    0  501 -0.00000000000E+00 -0.00000000000E+00 -0.10582644424E+04  0.10582644424E+04  0.00000000000E+00 0.  1.
         23    2    1    2    0    0 -0.15248715928E+03 -0.69897877439E+03 -0.29685668069E+02  0.72188564752E+03  0.91727795168E+02 0.  0.
        254    2    1    2    0    0  0.15248715928E+03  0.69897877439E+03 -0.19151077331E+03  0.11734467958E+04  0.91020730909E+03 0.  0.
        -24    2    4    4    0    0 -0.21799050928E+03  0.69444932866E+03 -0.28064952462E+03  0.78412127778E+03  0.79386966097E+02 0.  0.
         24    2    4    4    0    0  0.37047766856E+03  0.45294457334E+01  0.89138751308E+02  0.38932551804E+03  0.79714636247E+02 0.  0.
         11    1    3    3    0    0 -0.30211167346E+02 -0.35465977969E+02 -0.20679306911E+01  0.46635035789E+02  0.00000000000E+00 0.  1.
        -11    1    3    3    0    0 -0.12227599193E+03 -0.66351279642E+03 -0.27617737378E+02  0.67525061173E+03  0.00000000000E+00 0. -1.
          4    1    6    6  502    0  0.66967208778E+02  0.13354055859E+02  0.46718621182E+02  0.82737944286E+02  0.00000000000E+00 0. -1.
          1    1    5    5  503    0 -0.15135839128E+03  0.37116071471E+03 -0.17671016439E+03  0.43805949476E+03  0.00000000000E+00 0. -1.
         -2    1    5    5    0  503 -0.66632118000E+02  0.32328861395E+03 -0.10393936023E+03  0.34606178302E+03  0.00000000000E+00 0.  1.
         -3    1    6    6    0  502  0.30351045978E+03 -0.88246101255E+01  0.42420130126E+02  0.30658757375E+03  0.00000000000E+00 0.  1.
<mgrwt>
<rscale>  0 0.18823807E+04</rscale>
<asrwt>0</asrwt>
<pdfrwt beam="1">  1        2 0.12877969E+00 0.18823807E+04</pdfrwt>
<pdfrwt beam="2">  1       -2 0.16280991E+00 0.18823807E+04</pdfrwt>
<totfact> 0.72976223E+00</totfact>
</mgrwt>
</event>
<event>
12    1  0.1397649E-007  0.2179406E+04  0.7818608E-02  0.8527049E-01
         -1   -1    0    0    0  501 -0.00000000000E+00  0.00000000000E+00  0.18596728629E+04  0.18596728629E+04  0.00000000000E+00 0.  1.
          1   -1    0    0  501    0  0.00000000000E+00 -0.00000000000E+00 -0.63852767428E+03  0.63852767428E+03  0.00000000000E+00 0. -1.
         23    2    1    2    0    0  0.19379614413E+03  0.78203473268E+03  0.97817529262E+03  0.12704943365E+04  0.90518989030E+02 0.  0.
        254    2    1    2    0    0 -0.19379614413E+03 -0.78203473268E+03  0.24296989600E+03  0.12277062007E+04  0.89391994959E+03 0.  0.
        -24    2    4    4    0    0  0.33873774614E+03 -0.45403490848E+03  0.10001028968E+03  0.58053012861E+03  0.78244574263E+02 0.  0.
         24    2    4    4    0    0 -0.53253389027E+03 -0.32799982419E+03  0.14295960631E+03  0.64717607208E+03  0.84989353887E+02 0.  0.
         13    1    3    3    0    0  0.13076685511E+03  0.59942552862E+03  0.79564459596E+03  0.10047194921E+04  0.00000000000E+00 0.  1.
        -13    1    3    3    0    0  0.63029289017E+02  0.18260920405E+03  0.18253069666E+03  0.26577484437E+03  0.00000000000E+00 0. -1.
          2    1    6    6  502    0 -0.29213679689E+03 -0.13055379634E+03  0.78780031965E+02  0.32953678895E+03  0.00000000000E+00 0. -1.
          1    1    5    5  503    0  0.23625956544E+03 -0.36091516659E+03  0.54613340960E+02  0.43481140365E+03  0.00000000000E+00 0. -1.
         -2    1    5    5    0  503  0.10247818070E+03 -0.93119741893E+02  0.45396948723E+02  0.14571872496E+03  0.00000000000E+00 0.  1.
         -1    1    6    6    0  502 -0.24039709338E+03 -0.19744602785E+03  0.64179574350E+02  0.31763928312E+03  0.00000000000E+00 0.  1.
<mgrwt>
<rscale>  0 0.21794060E+04</rscale>
<asrwt>0</asrwt>
<pdfrwt beam="1">  1        1 0.98235027E-01 0.21794060E+04</pdfrwt>
<pdfrwt beam="2">  1       -1 0.28610352E+00 0.21794060E+04</pdfrwt>
<totfact> 0.11608492E+00</totfact>
</mgrwt>
</event>
<event>
12    1  0.1397649E-007  0.1579064E+04  0.7818608E-02  0.8833514E-01
         -1   -1    0    0    0  501 -0.00000000000E+00  0.00000000000E+00  0.10698585987E+04  0.10698585987E+04  0.00000000000E+00 0.  1.
          1   -1    0    0  501    0  0.00000000000E+00 -0.00000000000E+00 -0.58265706923E+03  0.58265706923E+03  0.00000000000E+00 0. -1.
         23    2    1    2    0    0 -0.97204208266E+02  0.19013337667E+03 -0.34643386451E+03  0.41728514767E+03  0.92255693377E+02 0.  0.
        254    2    1    2    0    0  0.97204208266E+02 -0.19013337667E+03  0.83363539395E+03  0.12352305202E+04  0.88614169805E+03 0.  0.
        -24    2    4    4    0    0  0.48397969543E+03 -0.13391437264E+03  0.52366410099E+03  0.73009804599E+03  0.81545455379E+02 0.  0.
         24    2    4    4    0    0 -0.38677548717E+03 -0.56219004024E+02  0.30997129296E+03  0.50513247424E+03  0.79503208674E+02 0.  0.
         11    1    3    3    0    0 -0.60282670984E+02  0.48701397440E+02 -0.69290107938E+02  0.10395646008E+03  0.00000000000E+00 0.  1.
        -11    1    3    3    0    0 -0.36921537282E+02  0.14143197923E+03 -0.27714375657E+03  0.31332868759E+03  0.00000000000E+00 0. -1.
          2    1    6    6  502    0 -0.90298496417E+02  0.24172631749E+01  0.11180957780E+03  0.14373949807E+03  0.00000000000E+00 0. -1.
          3    1    5    5  503    0  0.58865703388E+02 -0.50584239117E+01  0.10054814219E+03  0.11662198586E+03  0.00000000000E+00 0. -1.
         -4    1    5    5    0  503  0.42511399205E+03 -0.12885594873E+03  0.42311595880E+03  0.61347606013E+03  0.00000000000E+00 0.  1.
         -3    1    6    6    0  502 -0.29647699075E+03 -0.58636267198E+02  0.19816171516E+03  0.36139297618E+03  0.00000000000E+00 0.  1.
<mgrwt>
<rscale>  0 0.15790639E+04</rscale>
<asrwt>0</asrwt>
<pdfrwt beam="1">  1        1 0.89639549E-01 0.15790639E+04</pdfrwt>
<pdfrwt beam="2">  1       -1 0.16459363E+00 0.15790639E+04</pdfrwt>
<totfact> 0.92671728E+00</totfact>
</mgrwt>
</event>
<event>
12    1  0.1397649E-007  0.1802816E+04  0.7818608E-02  0.8704803E-01
          1   -1    0    0  501    0  0.00000000000E+00  0.00000000000E+00  0.48685349588E+03  0.48685349588E+03  0.00000000000E+00 0. -1.
         -1   -1    0    0    0  501 -0.00000000000E+00 -0.00000000000E+00 -0.16689544923E+04  0.16689544923E+04  0.00000000000E+00 0.  1.
         23    2    1    2    0    0 -0.54253522181E+03  0.25304349550E+03 -0.66324451546E+02  0.60922411405E+03  0.91540213766E+02 0.  0.
        254    2    1    2    0    0  0.54253522181E+03 -0.25304349550E+03 -0.11157765449E+04  0.15465838742E+04  0.88802528352E+03 0.  0.
        -24    2    4    4    0    0  0.19668208587E+03 -0.40207288173E+03 -0.10664238551E+04  0.11595332503E+04  0.83132873580E+02 0.  0.
         24    2    4    4    0    0  0.34585313595E+03  0.14902938623E+03 -0.49352689790E+02  0.38705062387E+03  0.74487232751E+02 0.  0.
         11    1    3    3    0    0 -0.26641364501E+03  0.12816310369E+03 -0.78663554000E+02  0.30592477200E+03  0.00000000000E+00 0.  1.
        -11    1    3    3    0    0 -0.27612157680E+03  0.12488039182E+03  0.12339102454E+02  0.30329934205E+03  0.00000000000E+00 0. -1.
          4    1    6    6  502    0  0.72575722618E+02  0.52590082447E+02  0.13166267596E+02  0.90588646572E+02  0.00000000000E+00 0. -1.
          1    1    5    5  503    0  0.44803329957E+02 -0.36392552250E+02 -0.10623421846E+03  0.12090271050E+03  0.00000000000E+00 0. -1.
         -2    1    5    5    0  503  0.15187875591E+03 -0.36568032948E+03 -0.96018963667E+03  0.10386305398E+04  0.00000000000E+00 0.  1.
         -3    1    6    6    0  502  0.27327741333E+03  0.96439303782E+02 -0.62518957386E+02  0.29646197730E+03  0.00000000000E+00 0.  1.
<mgrwt>
<rscale>  0 0.18028159E+04</rscale>
<asrwt>0</asrwt>
<pdfrwt beam="1">  1        1 0.74900540E-01 0.18028159E+04</pdfrwt>
<pdfrwt beam="2">  1       -1 0.25676222E+00 0.18028159E+04</pdfrwt>
<totfact> 0.27327616E+00</totfact>
</mgrwt>
</event>
<event>
12    1  0.1397649E-007  0.1738447E+04  0.7818608E-02  0.8739735E-01
          1   -1    0    0  501    0  0.00000000000E+00  0.00000000000E+00  0.94440588552E+03  0.94440588552E+03  0.00000000000E+00 0. -1.
         -1   -1    0    0    0  501 -0.00000000000E+00 -0.00000000000E+00 -0.80002614200E+03  0.80002614200E+03  0.00000000000E+00 0.  1.
         23    2    1    2    0    0 -0.28649002136E+03  0.42832291018E+03 -0.30994533601E+03  0.60909082161E+03  0.96894117135E+02 0.  0.
        254    2    1    2    0    0  0.28649002136E+03 -0.42832291018E+03  0.45432507954E+03  0.11353412059E+04  0.90390891588E+03 0.  0.
        -24    2    4    4    0    0 -0.11517276742E+03  0.19998585771E+03 -0.24843120966E+02  0.24534987999E+03  0.79500146628E+02 0.  0.
         24    2    4    4    0    0  0.40166278878E+03 -0.62830876789E+03  0.47916820050E+03  0.88999132591E+03  0.79859201893E+02 0.  0.
         11    1    3    3    0    0 -0.28662595806E+01  0.17314607144E+02  0.55499369251E+01  0.18406870033E+02  0.00000000000E+00 0. -1.
        -11    1    3    3    0    0 -0.28362376178E+03  0.41100830304E+03 -0.31549527294E+03  0.59068395158E+03  0.00000000000E+00 0.  1.
          4    1    6    6  502    0  0.19674085390E+03 -0.37707878829E+03  0.25635088378E+03  0.49659958899E+03  0.00000000000E+00 0. -1.
          3    1    5    5  503    0 -0.12363472295E+03  0.17648130251E+03 -0.87959166450E+01  0.21565844060E+03  0.00000000000E+00 0. -1.
         -4    1    5    5    0  503  0.84619555271E+01  0.23504555200E+02 -0.16047204321E+02  0.29691439390E+02  0.00000000000E+00 0.  1.
         -3    1    6    6    0  502  0.20492193488E+03 -0.25122997959E+03  0.22281731673E+03  0.39339173692E+03  0.00000000000E+00 0.  1.
<mgrwt>
<rscale>  0 0.17384469E+04</rscale>
<asrwt>0</asrwt>
<pdfrwt beam="1">  1        1 0.14529321E+00 0.17384469E+04</pdfrwt>
<pdfrwt beam="2">  1       -1 0.12308095E+00 0.17384469E+04</pdfrwt>
<totfact> 0.92399789E+00</totfact>
</mgrwt>
</event>
<event>
12    1  0.1397649E-007  0.1503873E+04  0.7818608E-02  0.8881882E-01
         -2   -1    0    0    0  501 -0.00000000000E+00  0.00000000000E+00  0.48443795353E+03  0.48443795353E+03  0.00000000000E+00 0.  1.
          2   -1    0    0  501    0  0.00000000000E+00 -0.00000000000E+00 -0.11671431109E+04  0.11671431109E+04  0.00000000000E+00 0. -1.
         23    2    1    2    0    0  0.29229902109E+03  0.36714082874E+03 -0.13193593706E+03  0.49579075553E+03  0.90389578569E+02 0.  0.
        254    2    1    2    0    0 -0.29229902109E+03 -0.36714082874E+03 -0.55076922027E+03  0.11557903089E+04  0.90126211404E+03 0.  0.
        -24    2    4    4    0    0  0.19144957532E+02 -0.55654342448E+03 -0.10367031287E+03  0.57312950380E+03  0.87308542673E+02 0.  0.
         24    2    4    4    0    0 -0.31144397863E+03  0.18940259574E+03 -0.44709890740E+03  0.58266080506E+03  0.82009058402E+02 0.  0.
         13    1    3    3    0    0  0.80199535751E+02  0.14743223356E+03 -0.80373970060E+02  0.18608655000E+03  0.00000000000E+00 0.  1.
        -13    1    3    3    0    0  0.21209948534E+03  0.21970859518E+03 -0.51561967004E+02  0.30970420553E+03  0.00000000000E+00 0. -1.
          4    1    6    6  502    0 -0.25540068009E+02  0.11188652774E+02 -0.78449781276E+02  0.83257727611E+02  0.00000000000E+00 0. -1.
          1    1    5    5  503    0  0.35263570708E+01 -0.21739267172E+03 -0.83888363955E+02  0.23304348633E+03  0.00000000000E+00 0. -1.
         -2    1    5    5    0  503  0.15618600461E+02 -0.33915075276E+03 -0.19781948915E+02  0.34008601748E+03  0.00000000000E+00 0.  1.
         -3    1    6    6    0  502 -0.28590391062E+03  0.17821394296E+03 -0.36864912613E+03  0.49940307745E+03  0.00000000000E+00 0.  1.
<mgrwt>
<rscale>  0 0.15038729E+04</rscale>
<asrwt>0</asrwt>
<pdfrwt beam="1">  1        2 0.17956048E+00 0.15038729E+04</pdfrwt>
<pdfrwt beam="2">  1       -2 0.74528917E-01 0.15038729E+04</pdfrwt>
<totfact> 0.31008260E+01</totfact>
</mgrwt>
</event>
<event>
12    1  0.1397649E-007  0.1321413E+04  0.7818608E-02  0.9012754E-01
          1   -1    0    0  501    0  0.00000000000E+00  0.00000000000E+00  0.10766560067E+04  0.10766560067E+04  0.00000000000E+00 0. -1.
         -1   -1    0    0    0  501 -0.00000000000E+00 -0.00000000000E+00 -0.40545293631E+03  0.40545293631E+03  0.00000000000E+00 0.  1.
         23    2    1    2    0    0  0.10823219246E+03  0.30311646355E+03  0.17637950636E+03  0.37792867756E+03  0.90147418709E+02 0.  0.
        254    2    1    2    0    0 -0.10823219246E+03 -0.30311646355E+03  0.49482356407E+03  0.11041802655E+04  0.93315052440E+03 0.  0.
        -24    2    4    4    0    0 -0.46474105863E+03 -0.36430070847E+03  0.19105719863E+03  0.62581555279E+03  0.80268270223E+02 0.  0.
         24    2    4    4    0    0  0.35650886617E+03  0.61184244920E+02  0.30376636544E+03  0.47836471271E+03  0.75608928738E+02 0.  0.
         11    1    3    3    0    0 -0.75140865983E+01  0.78247257876E+02  0.63137500428E+02  0.10082380087E+03  0.00000000000E+00 0. -1.
        -11    1    3    3    0    0  0.11574627906E+03  0.22486920567E+03  0.11324200593E+03  0.27710487669E+03  0.00000000000E+00 0.  1.
          4    1    6    6  502    0  0.48282232337E+02 -0.82410123474E+01  0.69565685427E+02  0.85079215046E+02  0.00000000000E+00 0. -1.
          1    1    5    5  503    0 -0.11752065496E+03 -0.13844820069E+03  0.52345170965E+02  0.18899477649E+03  0.00000000000E+00 0. -1.
         -2    1    5    5    0  503 -0.34722040366E+03 -0.22585250778E+03  0.13871202766E+03  0.43682077630E+03  0.00000000000E+00 0.  1.
         -3    1    6    6    0  502  0.30822663383E+03  0.69425257267E+02  0.23420068002E+03  0.39328549766E+03  0.00000000000E+00 0.  1.
<mgrwt>
<rscale>  0 0.13214134E+04</rscale>
<asrwt>0</asrwt>
<pdfrwt beam="1">  1        1 0.16563938E+00 0.13214134E+04</pdfrwt>
<pdfrwt beam="2">  1       -1 0.62377375E-01 0.13214134E+04</pdfrwt>
<totfact> 0.33768884E+01</totfact>
</mgrwt>
</event>
<event>
12    1  0.1397649E-007  0.1483507E+04  0.7818608E-02  0.8895495E-01
         -2   -1    0    0    0  501 -0.00000000000E+00  0.00000000000E+00  0.55766376636E+03  0.55766376636E+03  0.00000000000E+00 0.  1.
          2   -1    0    0  501    0  0.00000000000E+00 -0.00000000000E+00 -0.98661326356E+03  0.98661326356E+03  0.00000000000E+00 0. -1.
         23    2    1    2    0    0 -0.25044548927E+03 -0.15858119637E+02 -0.54483976232E+03  0.60691239817E+03  0.92292304044E+02 0.  0.
        254    2    1    2    0    0  0.25044548927E+03  0.15858119637E+02  0.11589026511E+03  0.93736463175E+03  0.89568268726E+03 0.  0.
        -24    2    4    4    0    0 -0.15372330927E+03  0.34954235074E+03 -0.19431564450E+02  0.39027875590E+03  0.78289276601E+02 0.  0.
         24    2    4    4    0    0  0.40416879855E+03 -0.33368423110E+03  0.13532182956E+03  0.54708587585E+03  0.79330789704E+02 0.  0.
         11    1    3    3    0    0 -0.24583503869E+03 -0.33910431738E+02 -0.49546686414E+03  0.55414095417E+03  0.00000000000E+00 0. -1.
        -11    1    3    3    0    0 -0.46104505883E+01  0.18052312101E+02 -0.49372898176E+02  0.52771443993E+02  0.00000000000E+00 0.  1.
          4    1    6    6  502    0  0.32755703816E+03 -0.23317652648E+03  0.84418398215E+02  0.41084227108E+03  0.00000000000E+00 0. -1.
          3    1    5    5  503    0 -0.78967332461E+02  0.90398576144E+02 -0.89169929811E+01  0.12036301313E+03  0.00000000000E+00 0. -1.
         -4    1    5    5    0  503 -0.74755976812E+02  0.25914377460E+03 -0.10514571469E+02  0.26991574277E+03  0.00000000000E+00 0.  1.
         -3    1    6    6    0  502  0.76611760390E+02 -0.10050770463E+03  0.50903431349E+02  0.13624360478E+03  0.00000000000E+00 0.  1.
<mgrwt>
<rscale>  0 0.14835073E+04</rscale>
<asrwt>0</asrwt>
<pdfrwt beam="1">  1        2 0.15178666E+00 0.14835073E+04</pdfrwt>
<pdfrwt beam="2">  1       -2 0.85794426E-01 0.14835073E+04</pdfrwt>
<totfact> 0.29328330E+01</totfact>
</mgrwt>
</event>
<event>
12    1  0.1397649E-007  0.1902154E+04  0.7818608E-02  0.8653785E-01
          2   -1    0    0  501    0  0.00000000000E+00  0.00000000000E+00  0.14206812286E+04  0.14206812286E+04  0.00000000000E+00 0. -1.
         -2   -1    0    0    0  501 -0.00000000000E+00 -0.00000000000E+00 -0.63669964736E+03  0.63669964736E+03  0.00000000000E+00 0.  1.
         23    2    1    2    0    0  0.41673016331E+03 -0.36817736622E+03  0.82419475407E+03  0.99837487094E+03  0.90756753384E+02 0.  0.
        254    2    1    2    0    0 -0.41673016331E+03  0.36817736622E+03 -0.40213172821E+02  0.10590060050E+04  0.90036549101E+03 0.  0.
        -24    2    4    4    0    0 -0.43602411519E+03 -0.81846409710E+02  0.25065709273E+03  0.51692149041E+03  0.86965425883E+02 0.  0.
         24    2    4    4    0    0  0.19293951881E+02  0.45002377593E+03 -0.29087026555E+03  0.54208451462E+03  0.79727373750E+02 0.  0.
         13    1    3    3    0    0  0.39823739851E+03 -0.32943488038E+03  0.78720706536E+03  0.94170872871E+03  0.00000000000E+00 0. -1.
        -13    1    3    3    0    0  0.18492764796E+02 -0.38742485839E+02  0.36987688709E+02  0.56666142226E+02  0.00000000000E+00 0.  1.
          4    1    6    6  502    0  0.28049235522E+01  0.25076571851E+03 -0.11536738597E+03  0.27604519000E+03  0.00000000000E+00 0. -1.
          1    1    5    5  503    0 -0.17738378324E+03 -0.93329589153E+01  0.14099534126E+03  0.22678579527E+03  0.00000000000E+00 0. -1.
         -2    1    5    5    0  503 -0.25864033195E+03 -0.72513450794E+02  0.10966175147E+03  0.29013569514E+03  0.00000000000E+00 0.  1.
         -3    1    6    6    0  502  0.16489028329E+02  0.19925805742E+03 -0.17550287958E+03  0.26603932462E+03  0.00000000000E+00 0.  1.
<mgrwt>
<rscale>  0 0.19021538E+04</rscale>
<asrwt>0</asrwt>
<pdfrwt beam="1">  1        2 0.21856634E+00 0.19021538E+04</pdfrwt>
<pdfrwt beam="2">  1       -2 0.97953792E-01 0.19021538E+04</pdfrwt>
<totfact> 0.11438526E+01</totfact>
</mgrwt>
</event>
<event>
12    1  0.1397649E-007  0.1979368E+04  0.7818608E-02  0.8616328E-01
          1   -1    0    0  501    0  0.00000000000E+00  0.00000000000E+00  0.64772815701E+03  0.64772815701E+03  0.00000000000E+00 0. -1.
         -1   -1    0    0    0  501 -0.00000000000E+00 -0.00000000000E+00 -0.15121693990E+04  0.15121693990E+04  0.00000000000E+00 0.  1.
         23    2    1    2    0    0 -0.17561493546E+03 -0.72648134566E+03 -0.11228420185E+03  0.76095596841E+03  0.88490071356E+02 0.  0.
        254    2    1    2    0    0  0.17561493546E+03  0.72648134566E+03 -0.75215704019E+03  0.13989415876E+04  0.91251389107E+03 0.  0.
        -24    2    4    4    0    0 -0.21625516271E+03 -0.21665977231E+02  0.43452208683E+02  0.23553544672E+03  0.79706601080E+02 0.  0.
         24    2    4    4    0    0  0.39187009817E+03  0.74814732289E+03 -0.79560924887E+03  0.11634061409E+04  0.85048111463E+02 0.  0.
         11    1    3    3    0    0 -0.44715575116E+02 -0.30710358307E+03 -0.79728877604E+02  0.32041970495E+03  0.00000000000E+00 0.  1.
        -11    1    3    3    0    0 -0.13089936035E+03 -0.41937776258E+03 -0.32555324244E+02  0.44053626346E+03  0.00000000000E+00 0. -1.
          4    1    6    6  502    0  0.51414006181E+02  0.17041672816E+03 -0.17844676931E+03  0.25204862774E+03  0.00000000000E+00 0. -1.
          1    1    5    5  503    0 -0.12826543603E+02  0.16120366519E+02 -0.83702531274E+01  0.22236177165E+02  0.00000000000E+00 0. -1.
         -2    1    5    5    0  503 -0.20342861911E+03 -0.37786343750E+02  0.51822461811E+02  0.21329926956E+03  0.00000000000E+00 0.  1.
         -3    1    6    6    0  502  0.34045609199E+03  0.57773059473E+03 -0.61716247956E+03  0.91135751319E+03  0.00000000000E+00 0.  1.
<mgrwt>
<rscale>  0 0.19793683E+04</rscale>
<asrwt>0</asrwt>
<pdfrwt beam="1">  1        1 0.99650487E-01 0.19793683E+04</pdfrwt>
<pdfrwt beam="2">  1       -1 0.23264144E+00 0.19793683E+04</pdfrwt>
<totfact> 0.25791111E+00</totfact>
</mgrwt>
</event>
<event>
12    1  0.1397649E-007  0.1280579E+04  0.7818608E-02  0.9045110E-01
         -1   -1    0    0    0  501 -0.00000000000E+00  0.00000000000E+00  0.11686958577E+04  0.11686958577E+04  0.00000000000E+00 0.  1.
          1   -1    0    0  501    0  0.00000000000E+00 -0.00000000000E+00 -0.35079308657E+03  0.35079308657E+03  0.00000000000E+00 0. -1.
         23    2    1    2    0    0  0.10198661878E+03 -0.13919085547E+03 -0.94580317995E+02  0.22595493427E+03  0.11106228483E+03 0.  0.
        254    2    1    2    0    0 -0.10198661878E+03  0.13919085547E+03  0.91248308913E+03  0.12935340100E+04  0.90046070566E+03 0.  0.
        -24    2    4    4    0    0 -0.30826823383E+03  0.31241099260E+03  0.90958497789E+03  0.10134806632E+04  0.84665756658E+02 0.  0.
         24    2    4    4    0    0  0.20628161504E+03 -0.17322013713E+03  0.28981112366E+01  0.28005334682E+03  0.76577786623E+02 0.  0.
         11    1    3    3    0    0  0.65651680667E+02 -0.14824168646E+03 -0.96116076146E+02  0.18847822387E+03  0.00000000000E+00 0. -1.
        -11    1    3    3    0    0  0.36334938118E+02  0.90508309879E+01  0.15357581511E+01  0.37476710404E+02  0.00000000000E+00 0.  1.
          4    1    6    6  502    0  0.82177112217E+01 -0.77979566969E+01 -0.17873125662E+02  0.21160990698E+02  0.00000000000E+00 0. -1.
          1    1    5    5  503    0 -0.10914317222E+03  0.85916094095E+02  0.21145034065E+03  0.25299220112E+03  0.00000000000E+00 0. -1.
         -2    1    5    5    0  503 -0.19912506160E+03  0.22649489850E+03  0.69813463724E+03  0.76048846206E+03  0.00000000000E+00 0.  1.
         -3    1    6    6    0  502  0.19806390382E+03 -0.16542218043E+03  0.20771236899E+02  0.25889235612E+03  0.00000000000E+00 0.  1.
<mgrwt>
<rscale>  0 0.12805787E+04</rscale>
<asrwt>0</asrwt>
<pdfrwt beam="1">  1        1 0.53968168E-01 0.12805787E+04</pdfrwt>
<pdfrwt beam="2">  1       -1 0.17979936E+00 0.12805787E+04</pdfrwt>
<totfact> 0.14669413E+01</totfact>
</mgrwt>
</event>
<event>
12    1  0.1397649E-007  0.1347961E+04  0.7818608E-02  0.8992373E-01
         -1   -1    0    0    0  501 -0.00000000000E+00  0.00000000000E+00  0.54776636871E+03  0.54776636871E+03  0.00000000000E+00 0.  1.
          1   -1    0    0  501    0  0.00000000000E+00 -0.00000000000E+00 -0.82927604978E+03  0.82927604978E+03  0.00000000000E+00 0. -1.
         23    2    1    2    0    0 -0.21350278619E+03 -0.15922345910E+02  0.22567155291E+03  0.32404548181E+03  0.90779202873E+02 0.  0.
        254    2    1    2    0    0  0.21350278619E+03  0.15922345910E+02 -0.50718123399E+03  0.10529969367E+04  0.89762619377E+03 0.  0.
        -24    2    4    4    0    0 -0.15648223429E+03  0.10997375853E+03  0.17235014053E+03  0.26953939947E+03  0.79787215230E+02 0.  0.
         24    2    4    4    0    0  0.36998502048E+03 -0.94051412621E+02 -0.67953137452E+03  0.78345753721E+03  0.79424429830E+02 0.  0.
         11    1    3    3    0    0 -0.16202587967E+03  0.27265387317E+02  0.14577980438E+03  0.21965322304E+03  0.00000000000E+00 0.  1.
        -11    1    3    3    0    0 -0.51476906528E+02 -0.43187733227E+02  0.79891748530E+02  0.10439225877E+03  0.00000000000E+00 0. -1.
          4    1    6    6  502    0  0.84669738359E+02 -0.15117083884E+01 -0.10109110062E+03  0.13187365348E+03  0.00000000000E+00 0. -1.
          3    1    5    5  503    0 -0.23194852492E+02  0.21595061509E+02  0.77191939632E+02  0.83444253294E+02  0.00000000000E+00 0. -1.
         -4    1    5    5    0  503 -0.13328738179E+03  0.88378697023E+02  0.95158200901E+02  0.18609514618E+03  0.00000000000E+00 0.  1.
         -3    1    6    6    0  502  0.28531528212E+03 -0.92539704233E+02 -0.57844027390E+03  0.65158388373E+03  0.00000000000E+00 0.  1.
<mgrwt>
<rscale>  0 0.13479607E+04</rscale>
<asrwt>0</asrwt>
<pdfrwt beam="1">  1        1 0.12758093E+00 0.13479607E+04</pdfrwt>
<pdfrwt beam="2">  1       -1 0.84271749E-01 0.13479607E+04</pdfrwt>
<totfact> 0.28493438E+01</totfact>
</mgrwt>
</event>
<event>
12    1  0.1397649E-007  0.1566012E+04  0.7818608E-02  0.8841704E-01
         -1   -1    0    0    0  501 -0.00000000000E+00  0.00000000000E+00  0.26517413376E+04  0.26517413376E+04  0.00000000000E+00 0.  1.
          1   -1    0    0  501    0  0.00000000000E+00 -0.00000000000E+00 -0.23120600888E+03  0.23120600888E+03  0.00000000000E+00 0. -1.
         23    2    1    2    0    0 -0.32489039067E+03 -0.17026087049E+03  0.15357603643E+04  0.15809558124E+04  0.79491220794E+02 0.  0.
        254    2    1    2    0    0  0.32489039067E+03  0.17026087049E+03  0.88477496441E+03  0.13019915341E+04  0.88193689527E+03 0.  0.
        -24    2    4    4    0    0 -0.18868495867E+03 -0.21383631054E+03  0.18479240822E+03  0.34927283796E+03  0.80717407466E+02 0.  0.
         24    2    4    4    0    0  0.51357534934E+03  0.38409718103E+03  0.69998255619E+03  0.95271869614E+03  0.80044057111E+02 0.  0.
         13    1    3    3    0    0 -0.15411570037E+03 -0.36476081300E+02  0.64495572677E+03  0.66411598618E+03  0.00000000000E+00 0. -1.
        -13    1    3    3    0    0 -0.17077469030E+03 -0.13378478919E+03  0.89080463757E+03  0.91683982624E+03  0.00000000000E+00 0.  1.
          2    1    6    6  502    0  0.38414647720E+03  0.31241213209E+03  0.57697488161E+03  0.76030906231E+03  0.00000000000E+00 0. -1.
          3    1    5    5  503    0 -0.18180614756E+03 -0.20593119448E+03  0.15010629330E+03  0.31303838653E+03  0.00000000000E+00 0. -1.
         -4    1    5    5    0  503 -0.68788111084E+01 -0.79051160557E+01  0.34686114925E+02  0.36234451434E+02  0.00000000000E+00 0.  1.
         -1    1    6    6    0  502  0.12942887214E+03  0.71685048942E+02  0.12300767458E+03  0.19240963383E+03  0.00000000000E+00 0.  1.
<mgrwt>
<rscale>  0 0.15660122E+04</rscale>
<asrwt>0</asrwt>
<pdfrwt beam="1">  1        1 0.35570157E-01 0.15660122E+04</pdfrwt>
<pdfrwt beam="2">  1       -1 0.40796019E+00 0.15660122E+04</pdfrwt>
<totfact> 0.75194226E-01</totfact>
</mgrwt>
</event>
<event>
12    1  0.1397649E-007  0.2011621E+04  0.7818608E-02  0.8601207E-01
         -1   -1    0    0    0  501 -0.00000000000E+00  0.00000000000E+00  0.18644696239E+04  0.18644696239E+04  0.00000000000E+00 0.  1.
          1   -1    0    0  501    0  0.00000000000E+00 -0.00000000000E+00 -0.54259673069E+03  0.54259673069E+03  0.00000000000E+00 0. -1.
         23    2    1    2    0    0  0.82323546248E+03  0.48725100211E+02  0.47981826623E+03  0.95899817897E+03  0.96753173505E+02 0.  0.
        254    2    1    2    0    0 -0.82323546248E+03 -0.48725100211E+02  0.84205462696E+03  0.14480681756E+04  0.84128157257E+03 0.  0.
        -24    2    4    4    0    0 -0.12120287733E+03  0.15706331714E+03  0.65489352051E+03  0.68878288559E+03  0.78595910923E+02 0.  0.
         24    2    4    4    0    0 -0.70203258515E+03 -0.20578841735E+03  0.18716110645E+03  0.75928529001E+03  0.79285865899E+02 0.  0.
         11    1    3    3    0    0  0.33791009739E+03  0.54911491900E+01  0.14468664845E+03  0.36762428222E+03  0.00000000000E+00 0. -1.
        -11    1    3    3    0    0  0.48532536509E+03  0.43233951021E+02  0.33513161779E+03  0.59137389675E+03  0.00000000000E+00 0.  1.
          4    1    6    6  502    0 -0.47530401402E+03 -0.17741035778E+03  0.12617875662E+03  0.52279003377E+03  0.00000000000E+00 0. -1.
          3    1    5    5  503    0 -0.11178564081E+03  0.10887573925E+03  0.40315129548E+03  0.43229726247E+03  0.00000000000E+00 0. -1.
         -4    1    5    5    0  503 -0.94172365159E+01  0.48187577894E+02  0.25174222503E+03  0.25648562312E+03  0.00000000000E+00 0.  1.
         -3    1    6    6    0  502 -0.22672857113E+03 -0.28378059570E+02  0.60982349833E+02  0.23649525624E+03  0.00000000000E+00 0.  1.
<mgrwt>
<rscale>  0 0.20116214E+04</rscale>
<asrwt>0</asrwt>
<pdfrwt beam="1">  1        1 0.83476421E-01 0.20116214E+04</pdfrwt>
<pdfrwt beam="2">  1       -1 0.28684148E+00 0.20116214E+04</pdfrwt>
<totfact> 0.14733696E+00</totfact>
</mgrwt>
</event>
<event>
12    1  0.1397649E-007  0.2472788E+04  0.7818608E-02  0.8412745E-01
         -2   -1    0    0    0  501 -0.00000000000E+00  0.00000000000E+00  0.10182373701E+04  0.10182373701E+04  0.00000000000E+00 0.  1.
          2   -1    0    0  501    0  0.00000000000E+00 -0.00000000000E+00 -0.15012905885E+04  0.15012905885E+04  0.00000000000E+00 0. -1.
         23    2    1    2    0    0  0.47936362642E+03 -0.49278346207E+03 -0.10411815339E+04  0.12510494205E+04  0.91872950237E+02 0.  0.
        254    2    1    2    0    0 -0.47936362642E+03  0.49278346207E+03  0.55812831548E+03  0.12684785382E+04  0.90824311638E+03 0.  0.
        -24    2    4    4    0    0 -0.68698696020E+03  0.19768770796E+03  0.53935581581E+03  0.89896429005E+03  0.78743795827E+02 0.  0.
         24    2    4    4    0    0  0.20762333378E+03  0.29509575412E+03  0.18772499671E+02  0.36951424812E+03  0.77455922910E+02 0.  0.
         11    1    3    3    0    0  0.40983084668E+02 -0.12315499919E+02 -0.74906441771E+02  0.86268533000E+02  0.00000000000E+00 0.  1.
        -11    1    3    3    0    0  0.43838054175E+03 -0.48046796216E+03 -0.96627509216E+03  0.11647808875E+04  0.00000000000E+00 0. -1.
          2    1    6    6  502    0  0.60786949418E+02  0.11475430979E+03  0.40276703501E+02  0.13596255985E+03  0.00000000000E+00 0. -1.
          1    1    5    5  503    0 -0.35188941300E+03  0.97389275466E+02  0.32437501256E+03  0.48839530990E+03  0.00000000000E+00 0. -1.
         -2    1    5    5    0  503 -0.33509754720E+03  0.10029843249E+03  0.21498080325E+03  0.41056898015E+03  0.00000000000E+00 0.  1.
         -1    1    6    6    0  502  0.14683638436E+03  0.18034144433E+03 -0.21504203830E+02  0.23355168828E+03  0.00000000000E+00 0.  1.
<mgrwt>
<rscale>  0 0.24727880E+04</rscale>
<asrwt>0</asrwt>
<pdfrwt beam="1">  1        2 0.23096778E+00 0.24727880E+04</pdfrwt>
<pdfrwt beam="2">  1       -2 0.15665190E+00 0.24727880E+04</pdfrwt>
<totfact> 0.30224931E+00</totfact>
</mgrwt>
</event>
<event>
12    1  0.1397649E-007  0.1072730E+04  0.7818608E-02  0.9232186E-01
         -1   -1    0    0    0  501 -0.00000000000E+00  0.00000000000E+00  0.98723006010E+03  0.98723006010E+03  0.00000000000E+00 0.  1.
          1   -1    0    0  501    0  0.00000000000E+00 -0.00000000000E+00 -0.29140868523E+03  0.29140868523E+03  0.00000000000E+00 0. -1.
         23    2    1    2    0    0  0.38700188140E+02  0.43257408124E+02  0.82263962051E+02  0.13582043170E+03  0.91164259966E+02 0.  0.
        254    2    1    2    0    0 -0.38700188140E+02 -0.43257408124E+02  0.61355741282E+03  0.11428183136E+04  0.96239913301E+03 0.  0.
        -24    2    4    4    0    0 -0.12830148249E+03 -0.30605001478E+03 -0.11400750322E+03  0.36003340904E+03  0.80613044096E+02 0.  0.
         24    2    4    4    0    0  0.89601294347E+02  0.26279260666E+03  0.72756491604E+03  0.78278490459E+03  0.79455356867E+02 0.  0.
         13    1    3    3    0    0  0.18539367145E+02  0.20317210356E+02 -0.16750035808E+02  0.32203429481E+02  0.00000000000E+00 0. -1.
        -13    1    3    3    0    0  0.20160820994E+02  0.22940197768E+02  0.99013997859E+02  0.10361700222E+03  0.00000000000E+00 0.  1.
          2    1    6    6  502    0 -0.62797327112E+01 -0.12357365847E+01  0.32150355012E+02  0.32781205213E+02  0.00000000000E+00 0. -1.
          3    1    5    5  503    0  0.27327371053E+01 -0.71974862441E+02 -0.36827169167E+02  0.80895544156E+02  0.00000000000E+00 0. -1.
         -4    1    5    5    0  503 -0.13103421959E+03 -0.23407515234E+03 -0.77180334051E+02  0.27913786489E+03  0.00000000000E+00 0.  1.
         -1    1    6    6    0  502  0.95881027058E+02  0.26402834325E+03  0.69541456103E+03  0.75000369937E+03  0.00000000000E+00 0.  1.
<mgrwt>
<rscale>  0 0.10727300E+04</rscale>
<asrwt>0</asrwt>
<pdfrwt beam="1">  1        1 0.44832106E-01 0.10727300E+04</pdfrwt>
<pdfrwt beam="2">  1       -1 0.15188155E+00 0.10727300E+04</pdfrwt>
<totfact> 0.30668631E+01</totfact>
</mgrwt>
</event>
<event>
12    1  0.1397649E-007  0.1740037E+04  0.7818608E-02  0.8738854E-01
         -1   -1    0    0    0  501 -0.00000000000E+00  0.00000000000E+00  0.92386646149E+03  0.92386646149E+03  0.00000000000E+00 0.  1.
          1   -1    0    0  501    0  0.00000000000E+00 -0.00000000000E+00 -0.81930868006E+03  0.81930868006E+03  0.00000000000E+00 0. -1.
         23    2    1    2    0    0  0.55735420781E+02  0.45619580855E+03  0.58971510932E+03  0.75316920164E+03  0.90988368889E+02 0.  0.
        254    2    1    2    0    0 -0.55735420781E+02 -0.45619580855E+03 -0.48515732789E+03  0.99000593992E+03  0.73041979396E+03 0.  0.
        -24    2    4    4    0    0  0.14687092859E+03 -0.21965053309E+03 -0.59006891039E+03  0.65180955153E+03  0.82806679138E+02 0.  0.
         24    2    4    4    0    0 -0.20260634937E+03 -0.23654527546E+03  0.10491158250E+03  0.33819638839E+03  0.79795719369E+02 0.  0.
         11    1    3    3    0    0  0.29652804740E+02  0.32788533995E+03  0.35329757617E+03  0.48291537800E+03  0.00000000000E+00 0. -1.
        -11    1    3    3    0    0  0.26082616041E+02  0.12831046860E+03  0.23641753314E+03  0.27025382364E+03  0.00000000000E+00 0.  1.
          2    1    6    6  502    0 -0.21453796246E+02 -0.63721652228E+02  0.44545079171E+02  0.80653446388E+02  0.00000000000E+00 0. -1.
          1    1    5    5  503    0  0.78439953495E+02 -0.57782683966E+02 -0.16153028327E+03  0.18863641558E+03  0.00000000000E+00 0. -1.
         -2    1    5    5    0  503  0.68430975094E+02 -0.16186784912E+03 -0.42853862712E+03  0.46317313595E+03  0.00000000000E+00 0.  1.
         -3    1    6    6    0  502 -0.18115255312E+03 -0.17282362323E+03  0.60366503328E+02  0.25754294200E+03  0.00000000000E+00 0.  1.
<mgrwt>
<rscale>  0 0.17400366E+04</rscale>
<asrwt>0</asrwt>
<pdfrwt beam="1">  1        1 0.12604749E+00 0.17400366E+04</pdfrwt>
<pdfrwt beam="2">  1       -1 0.14213330E+00 0.17400366E+04</pdfrwt>
<totfact> 0.81282866E+00</totfact>
</mgrwt>
</event>
<event>
12    1  0.1397649E-007  0.1723462E+04  0.7818608E-02  0.8748095E-01
          2   -1    0    0  501    0  0.00000000000E+00  0.00000000000E+00  0.28182501770E+04  0.28182501770E+04  0.00000000000E+00 0. -1.
         -2   -1    0    0    0  501 -0.00000000000E+00 -0.00000000000E+00 -0.26348998785E+03  0.26348998785E+03  0.00000000000E+00 0.  1.
         23    2    1    2    0    0 -0.47107406363E+03  0.20354815820E+03  0.37761117104E+03  0.64345628181E+03  0.90017575954E+02 0.  0.
        254    2    1    2    0    0  0.47107406363E+03 -0.20354815820E+03  0.21771490181E+04  0.24382838831E+04  0.97051935639E+03 0.  0.
        -24    2    4    4    0    0  0.48666936349E+03 -0.42989170799E+03  0.20770652395E+04  0.21777671749E+04  0.82558520230E+02 0.  0.
         24    2    4    4    0    0 -0.15595299866E+02  0.22634354979E+03  0.10008377867E+03  0.26051670814E+03  0.79859730509E+02 0.  0.
         11    1    3    3    0    0 -0.26543406738E+03  0.11327627639E+03  0.15651187403E+03  0.32830279565E+03  0.00000000000E+00 0.  1.
        -11    1    3    3    0    0 -0.20563999625E+03  0.90271881810E+02  0.22109929701E+03  0.31515348616E+03  0.00000000000E+00 0. -1.
          4    1    6    6  502    0  0.14501490819E+02  0.79663193438E+02  0.71614858336E+02  0.10809812930E+03  0.00000000000E+00 0. -1.
          3    1    5    5  503    0  0.89123198020E+02 -0.11616748648E+03  0.40270060569E+03  0.42849224866E+03  0.00000000000E+00 0. -1.
         -4    1    5    5    0  503  0.39754616547E+03 -0.31372422151E+03  0.16743646338E+04  0.17492749263E+04  0.00000000000E+00 0.  1.
         -3    1    6    6    0  502 -0.30096790684E+02  0.14668035635E+03  0.28468920339E+02  0.15241857884E+03  0.00000000000E+00 0.  1.
<mgrwt>
<rscale>  0 0.17234625E+04</rscale>
<asrwt>0</asrwt>
<pdfrwt beam="1">  1        2 0.43357693E+00 0.17234625E+04</pdfrwt>
<pdfrwt beam="2">  1       -2 0.40536923E-01 0.17234625E+04</pdfrwt>
<totfact> 0.12376296E+01</totfact>
</mgrwt>
</event>
<event>
12    1  0.1397649E-007  0.2383673E+04  0.7818608E-02  0.8445641E-01
          2   -1    0    0  501    0  0.00000000000E+00  0.00000000000E+00  0.16372981204E+04  0.16372981204E+04  0.00000000000E+00 0. -1.
         -2   -1    0    0    0  501 -0.00000000000E+00 -0.00000000000E+00 -0.86757242025E+03  0.86757242025E+03  0.00000000000E+00 0.  1.
         23    2    1    2    0    0  0.41546977481E+03 -0.51367571118E+02 -0.60410300733E+03  0.74047179977E+03  0.90023783800E+02 0.  0.
        254    2    1    2    0    0 -0.41546977481E+03  0.51367571118E+02  0.13738287075E+04  0.17643987408E+04  0.10249116245E+04 0.  0.
        -24    2    4    4    0    0 -0.63415636617E+03  0.23819697547E+03  0.51342544223E+03  0.85368768265E+03  0.79277228134E+02 0.  0.
         24    2    4    4    0    0  0.21868659137E+03 -0.18682940435E+03  0.86040326523E+03  0.91071105820E+03  0.79823562478E+02 0.  0.
         13    1    3    3    0    0  0.23407787152E+03 -0.51726584806E+02 -0.27606781613E+03  0.36562484682E+03  0.00000000000E+00 0.  1.
        -13    1    3    3    0    0  0.18139190329E+03  0.35901368851E+00 -0.32803519121E+03  0.37484695295E+03  0.00000000000E+00 0. -1.
          2    1    6    6  502    0  0.13769124841E+03 -0.14671030893E+03  0.49578474980E+03  0.53505636411E+03  0.00000000000E+00 0. -1.
          1    1    5    5  503    0 -0.27012345786E+03  0.14337251986E+03  0.23506570868E+03  0.38571783642E+03  0.00000000000E+00 0. -1.
         -2    1    5    5    0  503 -0.36403290831E+03  0.94824455603E+02  0.27835973356E+03  0.46796984623E+03  0.00000000000E+00 0.  1.
         -1    1    6    6    0  502  0.80995342959E+02 -0.40119095423E+02  0.36461851543E+03  0.37565469409E+03  0.00000000000E+00 0.  1.
<mgrwt>
<rscale>  0 0.23836734E+04</rscale>
<asrwt>0</asrwt>
<pdfrwt beam="1">  1        2 0.25189202E+00 0.23836734E+04</pdfrwt>
<pdfrwt beam="2">  1       -2 0.13347268E+00 0.23836734E+04</pdfrwt>
<totfact> 0.38877185E+00</totfact>
</mgrwt>
</event>
<event>
12    1  0.1397649E-007  0.2235091E+04  0.7818608E-02  0.8503963E-01
          1   -1    0    0  501    0  0.00000000000E+00  0.00000000000E+00  0.16462587268E+04  0.16462587268E+04  0.00000000000E+00 0. -1.
         -1   -1    0    0    0  501 -0.00000000000E+00 -0.00000000000E+00 -0.75863382927E+03  0.75863382927E+03  0.00000000000E+00 0.  1.
         23    2    1    2    0    0  0.33657858084E+03 -0.53257931162E+03  0.11096679820E+04  0.12793924741E+04  0.92499774977E+02 0.  0.
        254    2    1    2    0    0 -0.33657858084E+03  0.53257931162E+03 -0.22204308450E+03  0.11255000819E+04  0.90582638442E+03 0.  0.
        -24    2    4    4    0    0 -0.81619415306E+02 -0.16676665453E+03  0.18435258989E+03  0.27370474776E+03  0.80346534004E+02 0.  0.
         24    2    4    4    0    0 -0.25495916554E+03  0.69934596616E+03 -0.40639567439E+03  0.85179533414E+03  0.79428525190E+02 0.  0.
         11    1    3    3    0    0  0.43771549059E+02 -0.81497331860E+02  0.23589600939E+03  0.25338644568E+03  0.00000000000E+00 0.  1.
        -11    1    3    3    0    0  0.29280703179E+03 -0.45108197977E+03  0.87377197259E+03  0.10260060284E+04  0.00000000000E+00 0. -1.
          2    1    6    6  502    0 -0.11379637213E+02  0.74929341548E+02 -0.63801741010E+02  0.99068484009E+02  0.00000000000E+00 0. -1.
          3    1    5    5  503    0  0.85997723693E+01 -0.67490116786E+02  0.66623144928E+02  0.95223502291E+02  0.00000000000E+00 0. -1.
         -4    1    5    5    0  503 -0.90219187675E+02 -0.99276537749E+02  0.11772944497E+03  0.17848124547E+03  0.00000000000E+00 0.  1.
         -1    1    6    6    0  502 -0.24357952832E+03  0.62441662461E+03 -0.34259393338E+03  0.75272685013E+03  0.00000000000E+00 0.  1.
<mgrwt>
<rscale>  0 0.22350907E+04</rscale>
<asrwt>0</asrwt>
<pdfrwt beam="1">  1        1 0.25327057E+00 0.22350907E+04</pdfrwt>
<pdfrwt beam="2">  1       -1 0.11671290E+00 0.22350907E+04</pdfrwt>
<totfact> 0.31227032E+00</totfact>
</mgrwt>
</event>
<event>
12    1  0.1397649E-007  0.1178361E+04  0.7818608E-02  0.9132011E-01
         -2   -1    0    0    0  501 -0.00000000000E+00  0.00000000000E+00  0.33276268933E+03  0.33276268933E+03  0.00000000000E+00 0.  1.
          2   -1    0    0  501    0  0.00000000000E+00 -0.00000000000E+00 -0.10431871175E+04  0.10431871175E+04  0.00000000000E+00 0. -1.
         23    2    1    2    0    0 -0.13512805983E+03 -0.32326742007E+01 -0.40522765084E+03  0.43684261769E+03  0.91389172727E+02 0.  0.
        254    2    1    2    0    0  0.13512805983E+03  0.32326742007E+01 -0.30519677735E+03  0.93910718916E+03  0.87778539353E+03 0.  0.
        -24    2    4    4    0    0 -0.32362880659E+03  0.19180346685E+03 -0.13302164264E+03  0.40716257892E+03  0.81008850824E+02 0.  0.
         24    2    4    4    0    0  0.45875686643E+03 -0.18857079265E+03 -0.17217513471E+03  0.53194461024E+03  0.85463354831E+02 0.  0.
         11    1    3    3    0    0 -0.13525772117E+03  0.21038152332E+02 -0.36545140165E+03  0.39024605309E+03  0.00000000000E+00 0. -1.
        -11    1    3    3    0    0  0.12966133669E+00 -0.24270826533E+02 -0.39776249189E+02  0.46596564597E+02  0.00000000000E+00 0.  1.
          4    1    6    6  502    0  0.15366724728E+03 -0.99650060726E+02 -0.38293116322E+02  0.18710991488E+03  0.00000000000E+00 0. -1.
          1    1    5    5  503    0 -0.13535024561E+02  0.24312907971E+02 -0.27848794872E+02  0.39368385282E+02  0.00000000000E+00 0. -1.
         -2    1    5    5    0  503 -0.31009378203E+03  0.16749055888E+03 -0.10517284777E+03  0.36779419364E+03  0.00000000000E+00 0.  1.
         -3    1    6    6    0  502  0.30508961914E+03 -0.88920731922E+02 -0.13388201839E+03  0.34483469536E+03  0.00000000000E+00 0.  1.
<mgrwt>
<rscale>  0 0.11783612E+04</rscale>
<asrwt>0</asrwt>
<pdfrwt beam="1">  1        2 0.16049033E+00 0.11783612E+04</pdfrwt>
<pdfrwt beam="2">  1       -2 0.51194260E-01 0.11783612E+04</pdfrwt>
<totfact> 0.84214958E+01</totfact>
</mgrwt>
</event>
<event>
12    1  0.1397649E-007  0.1637961E+04  0.7818608E-02  0.8797561E-01
          2   -1    0    0  501    0  0.00000000000E+00  0.00000000000E+00  0.10132135213E+04  0.10132135213E+04  0.00000000000E+00 0. -1.
         -2   -1    0    0    0  501 -0.00000000000E+00 -0.00000000000E+00 -0.66198160975E+03  0.66198160975E+03  0.00000000000E+00 0.  1.
         23    2    1    2    0    0 -0.11003576465E+03 -0.48798152675E+03  0.40146987719E+03  0.64796254427E+03  0.91888827050E+02 0.  0.
        254    2    1    2    0    0  0.11003576465E+03  0.48798152675E+03 -0.50237965673E+02  0.10272325867E+04  0.89579523002E+03 0.  0.
        -24    2    4    4    0    0 -0.22057617904E+02  0.30763741392E+03 -0.45697760552E+03  0.55693318405E+03  0.78858877730E+02 0.  0.
         24    2    4    4    0    0  0.13209338255E+03  0.18034411283E+03  0.40673963985E+03  0.47029940269E+03  0.75971921117E+02 0.  0.
         11    1    3    3    0    0 -0.31239355245E+01 -0.14777313927E+03  0.81180038747E+02  0.16863231705E+03  0.00000000000E+00 0. -1.
        -11    1    3    3    0    0 -0.10691182913E+03 -0.34020838748E+03  0.32028983844E+03  0.47933022722E+03  0.00000000000E+00 0.  1.
          4    1    6    6  502    0  0.12891425742E+03  0.12255763948E+03  0.31766975132E+03  0.36407874377E+03  0.00000000000E+00 0. -1.
          1    1    5    5  503    0 -0.41472290424E+02  0.23319302964E+03 -0.38224031044E+03  0.44967387613E+03  0.00000000000E+00 0. -1.
         -2    1    5    5    0  503  0.19414672520E+02  0.74444384282E+02 -0.74737295081E+02  0.10725930792E+03  0.00000000000E+00 0.  1.
         -3    1    6    6    0  502  0.31791251336E+01  0.57786473347E+02  0.89069888535E+02  0.10622065892E+03  0.00000000000E+00 0.  1.
<mgrwt>
<rscale>  0 0.16379606E+04</rscale>
<asrwt>0</asrwt>
<pdfrwt beam="1">  1        2 0.15587900E+00 0.16379606E+04</pdfrwt>
<pdfrwt beam="2">  1       -2 0.10184332E+00 0.16379606E+04</pdfrwt>
<totfact> 0.18681558E+01</totfact>
</mgrwt>
</event>
<event>
12    1  0.1397649E-007  0.1511784E+04  0.7818608E-02  0.8876655E-01
         -1   -1    0    0    0  501 -0.00000000000E+00  0.00000000000E+00  0.58625233153E+03  0.58625233153E+03  0.00000000000E+00 0.  1.
          1   -1    0    0  501    0  0.00000000000E+00 -0.00000000000E+00 -0.97461857967E+03  0.97461857967E+03  0.00000000000E+00 0. -1.
         23    2    1    2    0    0  0.43734251046E+03  0.17094642313E+03 -0.16680382866E+03  0.50645773442E+03  0.90469710202E+02 0.  0.
        254    2    1    2    0    0 -0.43734251046E+03 -0.17094642313E+03 -0.22156241948E+03  0.10544131768E+04  0.91771787091E+03 0.  0.
        -24    2    4    4    0    0 -0.49109878558E+03 -0.48346450540E+03 -0.22095633550E+03  0.72811327204E+03  0.80070528622E+02 0.  0.
         24    2    4    4    0    0  0.53756275113E+02  0.31251808227E+03 -0.60608397991E+00  0.32629990473E+03  0.76902351250E+02 0.  0.
         11    1    3    3    0    0  0.39122369473E+03  0.12435023156E+03 -0.15982984720E+03  0.44052756947E+03  0.00000000000E+00 0. -1.
        -11    1    3    3    0    0  0.46118815730E+02  0.46596191569E+02 -0.69739814578E+01  0.65930164951E+02  0.00000000000E+00 0.  1.
          4    1    6    6  502    0  0.32905078094E+02  0.23997652133E+03 -0.32436134572E+02  0.24438407841E+03  0.00000000000E+00 0. -1.
          3    1    5    5  503    0 -0.22319346388E+03 -0.26356957468E+03 -0.84015243573E+02  0.35544732967E+03  0.00000000000E+00 0. -1.
         -4    1    5    5    0  503 -0.26790532169E+03 -0.21989493072E+03 -0.13694109192E+03  0.37266594237E+03  0.00000000000E+00 0.  1.
         -3    1    6    6    0  502  0.20851197019E+02  0.72541560943E+02  0.31830050592E+02  0.81915826321E+02  0.00000000000E+00 0.  1.
<mgrwt>
<rscale>  0 0.15117836E+04</rscale>
<asrwt>0</asrwt>
<pdfrwt beam="1">  1        1 0.14994132E+00 0.15117836E+04</pdfrwt>
<pdfrwt beam="2">  1       -1 0.90192667E-01 0.15117836E+04</pdfrwt>
<totfact> 0.18413085E+01</totfact>
</mgrwt>
</event>
<event>
12    1  0.1397649E-007  0.1163411E+04  0.7818608E-02  0.9145500E-01
         -2   -1    0    0    0  501 -0.00000000000E+00  0.00000000000E+00  0.40012796229E+03  0.40012796229E+03  0.00000000000E+00 0.  1.
          2   -1    0    0  501    0  0.00000000000E+00 -0.00000000000E+00 -0.84568289994E+03  0.84568289994E+03  0.00000000000E+00 0. -1.
         23    2    1    2    0    0  0.10808100876E+03 -0.40941789571E+02  0.10229964532E+03  0.18113528199E+03  0.94799991353E+02 0.  0.
        254    2    1    2    0    0 -0.10808100876E+03  0.40941789571E+02 -0.54785458296E+03  0.10646755802E+04  0.90555602394E+03 0.  0.
        -24    2    4    4    0    0  0.15901653715E+03  0.39793461082E+03 -0.14549767476E+03  0.45881309698E+03  0.75509410231E+02 0.  0.
         24    2    4    4    0    0 -0.26709754591E+03 -0.35699282124E+03 -0.40235690820E+03  0.60586248325E+03  0.79958073927E+02 0.  0.
         13    1    3    3    0    0  0.65669629962E+02 -0.56783075912E+02  0.10444094728E+03  0.13581137462E+03  0.00000000000E+00 0.  1.
        -13    1    3    3    0    0  0.42411378799E+02  0.15841286341E+02 -0.21413019578E+01  0.45323907363E+02  0.00000000000E+00 0. -1.
          2    1    6    6  502    0 -0.33599456914E+02 -0.79255889799E+02 -0.11128372093E+03  0.14069287870E+03  0.00000000000E+00 0. -1.
          3    1    5    5  503    0  0.20969920272E+02  0.11373543864E+03 -0.65410058918E+02  0.13286821805E+03  0.00000000000E+00 0. -1.
         -4    1    5    5    0  503  0.13804661688E+03  0.28419917217E+03 -0.80087615841E+02  0.32594487894E+03  0.00000000000E+00 0.  1.
         -1    1    6    6    0  502 -0.23349808899E+03 -0.27773693145E+03 -0.29107318728E+03  0.46516960456E+03  0.00000000000E+00 0.  1.
<mgrwt>
<rscale>  0 0.11634111E+04</rscale>
<asrwt>0</asrwt>
<pdfrwt beam="1">  1        2 0.13010506E+00 0.11634111E+04</pdfrwt>
<pdfrwt beam="2">  1       -2 0.61558149E-01 0.11634111E+04</pdfrwt>
<totfact> 0.77555959E+01</totfact>
</mgrwt>
</event>
<event>
12    1  0.1397649E-007  0.1470222E+04  0.7818608E-02  0.8904500E-01
          1   -1    0    0  501    0  0.00000000000E+00  0.00000000000E+00  0.95536757895E+03  0.95536757895E+03  0.00000000000E+00 0. -1.
         -1   -1    0    0    0  501 -0.00000000000E+00 -0.00000000000E+00 -0.56563343752E+03  0.56563343752E+03  0.00000000000E+00 0.  1.
         23    2    1    2    0    0 -0.42538372320E+02 -0.27336495516E+03 -0.25804520776E+03  0.38879326691E+03  0.89637956911E+02 0.  0.
        254    2    1    2    0    0  0.42538372320E+02  0.27336495516E+03  0.64777934919E+03  0.11322077496E+04  0.88641885758E+03 0.  0.
        -24    2    4    4    0    0 -0.27758754328E+03  0.16932209749E+03 -0.64412187281E+02  0.34108803113E+03  0.80419513967E+02 0.  0.
         24    2    4    4    0    0  0.32012591560E+03  0.10404285767E+03  0.71219153648E+03  0.79111971842E+03  0.73130747156E+02 0.  0.
         13    1    3    3    0    0 -0.10251085495E+02 -0.52541560944E+02 -0.10599925245E+03  0.11874991326E+03  0.00000000000E+00 0. -1.
        -13    1    3    3    0    0 -0.32287286825E+02 -0.22082339421E+03 -0.15204595531E+03  0.27004335365E+03  0.00000000000E+00 0.  1.
          2    1    6    6  502    0  0.15696784055E+03  0.68140024694E+02  0.43539745106E+03  0.46781717190E+03  0.00000000000E+00 0. -1.
          1    1    5    5  503    0 -0.14543619749E+03  0.71817395367E+02 -0.70236739305E+02  0.17675583545E+03  0.00000000000E+00 0. -1.
         -2    1    5    5    0  503 -0.13215134579E+03  0.97504702126E+02  0.58245520240E+01  0.16433219568E+03  0.00000000000E+00 0.  1.
         -1    1    6    6    0  502  0.16315807505E+03  0.35902832971E+02  0.27679408542E+03  0.32330254653E+03  0.00000000000E+00 0.  1.
<mgrwt>
<rscale>  0 0.14702215E+04</rscale>
<asrwt>0</asrwt>
<pdfrwt beam="1">  1        1 0.14697963E+00 0.14702215E+04</pdfrwt>
<pdfrwt beam="2">  1       -1 0.87020529E-01 0.14702215E+04</pdfrwt>
<totfact> 0.20705972E+01</totfact>
</mgrwt>
</event>
<event>
12    1  0.1397649E-007  0.1319716E+04  0.7818608E-02  0.9014075E-01
         -2   -1    0    0    0  501 -0.00000000000E+00  0.00000000000E+00  0.42079795295E+03  0.42079795295E+03  0.00000000000E+00 0.  1.
          2   -1    0    0  501    0  0.00000000000E+00 -0.00000000000E+00 -0.10347307992E+04  0.10347307992E+04  0.00000000000E+00 0. -1.
         23    2    1    2    0    0 -0.58420652606E+02  0.30213976784E+03  0.28152995164E+02  0.32122711315E+03  0.87708922707E+02 0.  0.
        254    2    1    2    0    0  0.58420652606E+02 -0.30213976784E+03 -0.64208584140E+03  0.11343016390E+04  0.88298616555E+03 0.  0.
        -24    2    4    4    0    0 -0.20620217486E+03 -0.23108425077E+03 -0.76073971680E+03  0.82512566814E+03  0.78665008956E+02 0.  0.
         24    2    4    4    0    0  0.26462282746E+03 -0.71055517066E+02  0.11865387540E+03  0.30917597086E+03  0.80230365144E+02 0.  0.
         13    1    3    3    0    0 -0.37965474528E+02  0.38884128600E+02  0.17003432916E+02  0.56942685607E+02  0.00000000000E+00 0. -1.
        -13    1    3    3    0    0 -0.20455178078E+02  0.26325563924E+03  0.11149562248E+02  0.26428442754E+03  0.00000000000E+00 0.  1.
          2    1    6    6  502    0  0.20150104287E+03 -0.77887105319E+02  0.11696719328E+03  0.24566317542E+03  0.00000000000E+00 0. -1.
          3    1    5    5  503    0 -0.20748810005E+03 -0.20415325599E+03 -0.71574716966E+03  0.77267320031E+03  0.00000000000E+00 0. -1.
         -2    1    5    5    0  503  0.12859251970E+01 -0.26930994783E+02 -0.44992547140E+02  0.52452467833E+02  0.00000000000E+00 0.  1.
         -1    1    6    6    0  502  0.63121784596E+02  0.68315882530E+01  0.16866821152E+01  0.63512795445E+02  0.00000000000E+00 0.  1.
<mgrwt>
<rscale>  0 0.13197160E+04</rscale>
<asrwt>0</asrwt>
<pdfrwt beam="1">  1        2 0.15918935E+00 0.13197160E+04</pdfrwt>
<pdfrwt beam="2">  1       -2 0.64738147E-01 0.13197160E+04</pdfrwt>
<totfact> 0.51601186E+01</totfact>
</mgrwt>
</event>
<event>
12    1  0.1397649E-007  0.1838376E+04  0.7818608E-02  0.8686154E-01
         -1   -1    0    0    0  501 -0.00000000000E+00  0.00000000000E+00  0.33473952207E+03  0.33473952207E+03  0.00000000000E+00 0.  1.
          1   -1    0    0  501    0  0.00000000000E+00 -0.00000000000E+00 -0.25240716117E+04  0.25240716117E+04  0.00000000000E+00 0. -1.
         23    2    1    2    0    0  0.97402946358E+02 -0.89668090926E+02  0.22614236926E+03  0.27767584075E+03  0.91846616024E+02 0.  0.
        254    2    1    2    0    0 -0.97402946358E+02  0.89668090926E+02 -0.24154744589E+04  0.25811352930E+04  0.90011934696E+03 0.  0.
        -24    2    4    4    0    0 -0.44702835867E+03  0.11587183501E+03 -0.18710454548E+04  0.19288308522E+04  0.79477840704E+02 0.  0.
         24    2    4    4    0    0  0.34962541231E+03 -0.26203744085E+02 -0.54442900411E+03  0.65230444075E+03  0.78572118269E+02 0.  0.
         11    1    3    3    0    0  0.10879678963E+03 -0.97469971549E+02  0.21502451613E+03  0.25994745493E+03  0.00000000000E+00 0.  1.
        -11    1    3    3    0    0 -0.11393843271E+02  0.78018806236E+01  0.11117853127E+02  0.17728385823E+02  0.00000000000E+00 0. -1.
          2    1    6    6  502    0  0.12842017850E+03 -0.93070323670E+01 -0.13450764633E+03  0.18620061766E+03  0.00000000000E+00 0. -1.
          3    1    5    5  503    0 -0.38111038414E+03  0.73256158853E+02 -0.16179429542E+04  0.16638362278E+04  0.00000000000E+00 0. -1.
         -4    1    5    5    0  503 -0.65917974530E+02  0.42615676157E+02 -0.25310250053E+03  0.26499462447E+03  0.00000000000E+00 0.  1.
         -1    1    6    6    0  502  0.22120523382E+03 -0.16896711718E+02 -0.40992135778E+03  0.46610382309E+03  0.00000000000E+00 0.  1.
<mgrwt>
<rscale>  0 0.18383759E+04</rscale>
<asrwt>0</asrwt>
<pdfrwt beam="1">  1        1 0.38831871E+00 0.18383759E+04</pdfrwt>
<pdfrwt beam="2">  1       -1 0.51498388E-01 0.18383759E+04</pdfrwt>
<totfact> 0.46555919E+00</totfact>
</mgrwt>
</event>
<event>
12    1  0.1397649E-007  0.1528233E+04  0.7818608E-02  0.8865892E-01
         -2   -1    0    0    0  501 -0.00000000000E+00  0.00000000000E+00  0.41705765820E+03  0.41705765820E+03  0.00000000000E+00 0.  1.
          2   -1    0    0  501    0  0.00000000000E+00 -0.00000000000E+00 -0.13999836047E+04  0.13999836047E+04  0.00000000000E+00 0. -1.
         23    2    1    2    0    0  0.24285800667E+03 -0.11562318741E+03 -0.76853607268E+03  0.81945015521E+03  0.92206989890E+02 0.  0.
        254    2    1    2    0    0 -0.24285800667E+03  0.11562318741E+03 -0.21438987385E+03  0.99759110772E+03  0.93641671670E+03 0.  0.
        -24    2    4    4    0    0 -0.24527636915E+03 -0.32001981874E+03  0.13592520152E+03  0.43293449749E+03  0.79896414558E+02 0.  0.
         24    2    4    4    0    0  0.24183624843E+01  0.43564300615E+03 -0.35031507537E+03  0.56465661023E+03  0.79534634948E+02 0.  0.
         13    1    3    3    0    0  0.24636763762E+03 -0.11606890598E+03 -0.70436254207E+03  0.75517918038E+03  0.00000000000E+00 0. -1.
        -13    1    3    3    0    0 -0.35096309531E+01  0.44571856579E+00 -0.64173530613E+02  0.64270974831E+02  0.00000000000E+00 0.  1.
          2    1    6    6  502    0 -0.15659525915E+02  0.31278889705E+03 -0.20889727340E+03  0.37645741553E+03  0.00000000000E+00 0. -1.
          1    1    5    5  503    0 -0.23181711745E+03 -0.28318748976E+03  0.14331255200E+03  0.39303030146E+03  0.00000000000E+00 0. -1.
         -2    1    5    5    0  503 -0.13459251705E+02 -0.36832328973E+02 -0.73873504812E+01  0.39904196034E+02  0.00000000000E+00 0.  1.
         -1    1    6    6    0  502  0.18077888399E+02  0.12285410909E+03 -0.14141780197E+03  0.18819919470E+03  0.00000000000E+00 0.  1.
<mgrwt>
<rscale>  0 0.15282328E+04</rscale>
<asrwt>0</asrwt>
<pdfrwt beam="1">  1        2 0.21538210E+00 0.15282328E+04</pdfrwt>
<pdfrwt beam="2">  1       -2 0.64162716E-01 0.15282328E+04</pdfrwt>
<totfact> 0.31318163E+01</totfact>
</mgrwt>
</event>
<event>
12    1  0.1397649E-007  0.2027298E+04  0.7818608E-02  0.8593963E-01
         -1   -1    0    0    0  501 -0.00000000000E+00  0.00000000000E+00  0.12804839604E+04  0.12804839604E+04  0.00000000000E+00 0.  1.
          1   -1    0    0  501    0  0.00000000000E+00 -0.00000000000E+00 -0.80241872765E+03  0.80241872765E+03  0.00000000000E+00 0. -1.
         23    2    1    2    0    0  0.63320517880E+03  0.46268033895E+03  0.45800866127E+03  0.91338854906E+03  0.97390005870E+02 0.  0.
        254    2    1    2    0    0 -0.63320517880E+03 -0.46268033895E+03  0.20056571468E+02  0.11695141390E+04  0.86737486746E+03 0.  0.
        -24    2    4    4    0    0  0.80346011218E+02 -0.28139981483E+03  0.25133263757E+03  0.39386778240E+03  0.79513508282E+02 0.  0.
         24    2    4    4    0    0 -0.71355119001E+03 -0.18128052412E+03 -0.23127606610E+03  0.77564635657E+03  0.78235046611E+02 0.  0.
         13    1    3    3    0    0  0.28806725763E+03  0.25128413725E+03  0.26394194975E+03  0.46453397658E+03  0.00000000000E+00 0.  1.
        -13    1    3    3    0    0  0.34513792116E+03  0.21139620170E+03  0.19406671152E+03  0.44885457248E+03  0.00000000000E+00 0. -1.
          2    1    6    6  502    0 -0.94943814387E+02 -0.52484404229E+02 -0.35002514062E+02  0.11399173904E+03  0.00000000000E+00 0. -1.
          3    1    5    5  503    0  0.80781484097E+02 -0.16814276852E+03  0.18445670313E+03  0.26233931102E+03  0.00000000000E+00 0. -1.
         -4    1    5    5    0  503 -0.43547287878E+00 -0.11325704631E+03  0.66875934443E+02  0.13152847138E+03  0.00000000000E+00 0.  1.
         -1    1    6    6    0  502 -0.61860737563E+03 -0.12879611989E+03 -0.19627355204E+03  0.66165461754E+03  0.00000000000E+00 0.  1.
<mgrwt>
<rscale>  0 0.20272980E+04</rscale>
<asrwt>0</asrwt>
<pdfrwt beam="1">  1        1 0.12344904E+00 0.20272980E+04</pdfrwt>
<pdfrwt beam="2">  1       -1 0.19699753E+00 0.20272980E+04</pdfrwt>
<totfact> 0.32145906E+00</totfact>
</mgrwt>
</event>
<event>
12    1  0.1397649E-007  0.1270022E+04  0.7818608E-02  0.9053682E-01
         -2   -1    0    0    0  501 -0.00000000000E+00  0.00000000000E+00  0.59074418319E+03  0.59074418319E+03  0.00000000000E+00 0.  1.
          2   -1    0    0  501    0  0.00000000000E+00 -0.00000000000E+00 -0.68259475851E+03  0.68259475851E+03  0.00000000000E+00 0. -1.
         23    2    1    2    0    0 -0.90749252472E+01  0.30588474523E+03 -0.58148392685E+01  0.31749237856E+03  0.84378708545E+02 0.  0.
        254    2    1    2    0    0  0.90749252472E+01 -0.30588474523E+03 -0.86035736053E+02  0.95584656313E+03  0.90143922299E+03 0.  0.
        -24    2    4    4    0    0  0.22081950229E+03 -0.98659558546E+02 -0.42671679417E+03  0.49714083107E+03  0.81035932808E+02 0.  0.
         24    2    4    4    0    0 -0.21174457704E+03 -0.20722518669E+03  0.34068105812E+03  0.45870573206E+03  0.81051350160E+02 0.  0.
         13    1    3    3    0    0  0.94801740773E+01  0.29405625565E+03 -0.12560334496E+02  0.29447702320E+03  0.00000000000E+00 0. -1.
        -13    1    3    3    0    0 -0.18555099325E+02  0.11828489579E+02  0.67454952272E+01  0.23015355364E+02  0.00000000000E+00 0.  1.
          2    1    6    6  502    0 -0.19349955191E+03 -0.19527014109E+03  0.27232628584E+03  0.38695492057E+03  0.00000000000E+00 0. -1.
          3    1    5    5  503    0  0.11228413459E+03 -0.58638978919E+02 -0.29953972918E+03  0.32522347100E+03  0.00000000000E+00 0. -1.
         -4    1    5    5    0  503  0.10853536770E+03 -0.40020579627E+02 -0.12717706499E+03  0.17191736007E+03  0.00000000000E+00 0.  1.
         -1    1    6    6    0  502 -0.18245025132E+02 -0.11955045595E+02  0.68354772277E+02  0.71750811495E+02  0.00000000000E+00 0.  1.
<mgrwt>
<rscale>  0 0.12700219E+04</rscale>
<asrwt>0</asrwt>
<pdfrwt beam="1">  1        2 0.10501458E+00 0.12700219E+04</pdfrwt>
<pdfrwt beam="2">  1       -2 0.90883721E-01 0.12700219E+04</pdfrwt>
<totfact> 0.42939606E+01</totfact>
</mgrwt>
</event>
<event>
12    1  0.1397649E-007  0.2197874E+04  0.7818608E-02  0.8519313E-01
         -2   -1    0    0    0  501 -0.00000000000E+00  0.00000000000E+00  0.15334524414E+04  0.15334524414E+04  0.00000000000E+00 0. -1.
          2   -1    0    0  501    0  0.00000000000E+00 -0.00000000000E+00 -0.78754512686E+03  0.78754512686E+03  0.00000000000E+00 0.  1.
         23    2    1    2    0    0 -0.14020425880E+03  0.23844375000E+03 -0.60806390146E+03  0.67375164992E+03  0.87675090042E+02 0.  0.
        254    2    1    2    0    0  0.14020425880E+03 -0.23844375000E+03  0.13539712160E+04  0.16472459183E+04  0.89647554656E+03 0.  0.
        -24    2    4    4    0    0 -0.31470372912E+03 -0.22103374047E+03  0.29046830832E+03  0.48767802983E+03  0.74590020040E+02 0.  0.
         24    2    4    4    0    0  0.45490798793E+03 -0.17410009534E+02  0.10635029076E+04  0.11595678885E+04  0.79466140525E+02 0.  0.
         13    1    3    3    0    0  0.55278210094E+01  0.57840261960E+02 -0.12162563899E+03  0.13479187204E+03  0.00000000000E+00 0. -1.
        -13    1    3    3    0    0 -0.14573207981E+03  0.18060348804E+03 -0.48643826247E+03  0.53895977788E+03  0.00000000000E+00 0.  1.
          2    1    6    6  502    0  0.79536952846E+02  0.16040795425E+02  0.25393139237E+03  0.26657941784E+03  0.00000000000E+00 0. -1.
          3    1    5    5  503    0 -0.29124029941E+01 -0.13990882203E+02  0.63834996075E+00  0.14305046896E+02  0.00000000000E+00 0. -1.
         -4    1    5    5    0  503 -0.31179132613E+03 -0.20704285827E+03  0.28982995836E+03  0.47337298294E+03  0.00000000000E+00 0.  1.
         -1    1    6    6    0  502  0.37537103508E+03 -0.33450804959E+02  0.80957151526E+03  0.89298847062E+03  0.00000000000E+00 0.  1.
<mgrwt>
<rscale>  0 0.21978744E+04</rscale>
<asrwt>0</asrwt>
<pdfrwt beam="1">  1        2 0.12116079E+00 0.21978744E+04</pdfrwt>
<pdfrwt beam="2">  1       -2 0.23591576E+00 0.21978744E+04</pdfrwt>
<totfact> 0.25242707E+00</totfact>
</mgrwt>
</event>
<event>
12    1  0.1397649E-007  0.1781934E+04  0.7818608E-02  0.8715966E-01
         -2   -1    0    0    0  501 -0.00000000000E+00  0.00000000000E+00  0.56256257738E+03  0.56256257738E+03  0.00000000000E+00 0.  1.
          2   -1    0    0  501    0  0.00000000000E+00 -0.00000000000E+00 -0.14110819749E+04  0.14110819749E+04  0.00000000000E+00 0. -1.
         23    2    1    2    0    0 -0.42527098297E+03  0.49118912227E+03 -0.20443881531E+03  0.68721403138E+03  0.91354983007E+02 0.  0.
        254    2    1    2    0    0  0.42527098297E+03 -0.49118912227E+03 -0.64408058224E+03  0.12864305209E+04  0.90440119745E+03 0.  0.
        -24    2    4    4    0    0  0.48855388868E+03  0.93727895677E+02 -0.40276648325E+03  0.64570330178E+03  0.85100489569E+02 0.  0.
         24    2    4    4    0    0 -0.63282905711E+02 -0.58491701795E+03 -0.24131409899E+03  0.64072721914E+03  0.78525352207E+02 0.  0.
         11    1    3    3    0    0 -0.22745163159E+03  0.22556642887E+03 -0.60043004074E+02  0.32591351749E+03  0.00000000000E+00 0. -1.
        -11    1    3    3    0    0 -0.19781935139E+03  0.26562269340E+03 -0.14439581124E+03  0.36130051388E+03  0.00000000000E+00 0.  1.
          2    1    6    6  502    0 -0.44713084820E+02 -0.11834735641E+03 -0.56194633579E+02  0.13843118711E+03  0.00000000000E+00 0. -1.
          1    1    5    5  503    0  0.11410952823E+03  0.33005315378E+01 -0.13382162839E+03  0.17589799932E+03  0.00000000000E+00 0. -1.
         -2    1    5    5    0  503  0.37444436046E+03  0.90427364139E+02 -0.26894485486E+03  0.46980530246E+03  0.00000000000E+00 0.  1.
         -1    1    6    6    0  502 -0.18569820890E+02 -0.46656966154E+03 -0.18511946541E+03  0.50229603203E+03  0.00000000000E+00 0.  1.
<mgrwt>
<rscale>  0 0.17819337E+04</rscale>
<asrwt>0</asrwt>
<pdfrwt beam="1">  1        2 0.21708953E+00 0.17819337E+04</pdfrwt>
<pdfrwt beam="2">  1       -2 0.86548090E-01 0.17819337E+04</pdfrwt>
<totfact> 0.15590014E+01</totfact>
</mgrwt>
</event>
<event>
12    1  0.1397649E-007  0.2472651E+04  0.7818608E-02  0.8412794E-01
         -2   -1    0    0    0  501 -0.00000000000E+00  0.00000000000E+00  0.11238597458E+04  0.11238597458E+04  0.00000000000E+00 0.  1.
          2   -1    0    0  501    0  0.00000000000E+00 -0.00000000000E+00 -0.13600458416E+04  0.13600458416E+04  0.00000000000E+00 0. -1.
         23    2    1    2    0    0  0.27097275676E+03 -0.32234572653E+03 -0.10913405411E+04  0.11731695095E+04  0.89272162420E+02 0.  0.
        254    2    1    2    0    0 -0.27097275676E+03  0.32234572653E+03  0.85515444530E+03  0.13107360779E+04  0.89967046098E+03 0.  0.
        -24    2    4    4    0    0  0.16093244182E+03  0.48773988253E+03  0.51158379700E+03  0.72923306207E+03  0.79205010078E+02 0.  0.
         24    2    4    4    0    0 -0.43190519859E+03 -0.16539415600E+03  0.34357064830E+03  0.58150301587E+03  0.78788575833E+02 0.  0.
         13    1    3    3    0    0  0.24611475766E+03 -0.29912842794E+03 -0.10526114063E+04  0.11216242968E+04  0.00000000000E+00 0. -1.
        -13    1    3    3    0    0  0.24857999102E+02 -0.23217298594E+02 -0.38729134751E+02  0.51545212696E+02  0.00000000000E+00 0.  1.
          4    1    6    6  502    0 -0.40120462347E+03 -0.14862937494E+03  0.33970433597E+03  0.54631023866E+03  0.00000000000E+00 0. -1.
          3    1    5    5  503    0  0.57852208218E+02  0.23892935746E+03  0.29229141649E+03  0.38192720249E+03  0.00000000000E+00 0. -1.
         -4    1    5    5    0  503  0.10308023361E+03  0.24881052507E+03  0.21929238052E+03  0.34730585958E+03  0.00000000000E+00 0.  1.
         -3    1    6    6    0  502 -0.30700575113E+02 -0.16764781054E+02  0.38663123314E+01  0.35192777201E+02  0.00000000000E+00 0.  1.
<mgrwt>
<rscale>  0 0.24726510E+04</rscale>
<asrwt>0</asrwt>
<pdfrwt beam="1">  1        2 0.20923782E+00 0.24726510E+04</pdfrwt>
<pdfrwt beam="2">  1       -2 0.17290150E+00 0.24726510E+04</pdfrwt>
<totfact> 0.27725906E+00</totfact>
</mgrwt>
</event>
<event>
12    1  0.1397649E-007  0.1307971E+04  0.7818608E-02  0.9023268E-01
         -2   -1    0    0    0  501 -0.00000000000E+00  0.00000000000E+00  0.45079656209E+03  0.45079656209E+03  0.00000000000E+00 0.  1.
          2   -1    0    0  501    0  0.00000000000E+00 -0.00000000000E+00 -0.94875842751E+03  0.94875842751E+03  0.00000000000E+00 0. -1.
         23    2    1    2    0    0  0.28081320416E+03  0.11234837563E+03  0.24287883560E+02  0.31710141891E+03  0.92115120640E+02 0.  0.
        254    2    1    2    0    0 -0.28081320416E+03 -0.11234837563E+03 -0.52224974898E+03  0.10824535707E+04  0.89860042246E+03 0.  0.
        -24    2    4    4    0    0  0.94423609000E+02  0.19856789219E+03 -0.54048433763E+03  0.58814885922E+03  0.73829097530E+02 0.  0.
         24    2    4    4    0    0 -0.37523681316E+03 -0.31091626782E+03  0.18234588648E+02  0.49430471146E+03  0.80827322166E+02 0.  0.
         11    1    3    3    0    0  0.68227038875E+02  0.42831479157E+02  0.45355315399E+02  0.92447655867E+02  0.00000000000E+00 0.  1.
        -11    1    3    3    0    0  0.21258616528E+03  0.69516896476E+02 -0.21067431838E+02  0.22465376304E+03  0.00000000000E+00 0. -1.
          2    1    6    6  502    0 -0.12652156529E+03 -0.10664810968E+03 -0.32065859578E+02  0.16855190635E+03  0.00000000000E+00 0. -1.
          1    1    5    5  503    0  0.74838691149E+02  0.12458817711E+03 -0.42879775466E+03  0.45275882981E+03  0.00000000000E+00 0. -1.
         -4    1    5    5    0  503  0.19584917851E+02  0.73979715077E+02 -0.11168658296E+03  0.13539002941E+03  0.00000000000E+00 0.  1.
         -1    1    6    6    0  502 -0.24871524787E+03 -0.20426815814E+03  0.50300448226E+02  0.32575280512E+03  0.00000000000E+00 0.  1.
<mgrwt>
<rscale>  0 0.13079710E+04</rscale>
<asrwt>0</asrwt>
<pdfrwt beam="1">  1        2 0.14596284E+00 0.13079710E+04</pdfrwt>
<pdfrwt beam="2">  1       -2 0.69353317E-01 0.13079710E+04</pdfrwt>
<totfact> 0.50563988E+01</totfact>
</mgrwt>
</event>
<event>
12    1  0.1397649E-007  0.2697120E+04  0.7818608E-02  0.8335940E-01
          2   -1    0    0  501    0  0.00000000000E+00  0.00000000000E+00  0.17256911668E+04  0.17256911668E+04  0.00000000000E+00 0. -1.
         -2   -1    0    0    0  501 -0.00000000000E+00 -0.00000000000E+00 -0.10538468394E+04  0.10538468394E+04  0.00000000000E+00 0.  1.
         23    2    1    2    0    0 -0.80598635055E+03  0.88820318714E+03  0.29891910206E+03  0.12394418400E+04  0.91348487759E+02 0.  0.
        254    2    1    2    0    0  0.80598635055E+03 -0.88820318714E+03  0.37292522534E+03  0.15400961663E+04  0.89123738636E+03 0.  0.
        -24    2    4    4    0    0 -0.34642889294E+02 -0.32468778717E+03 -0.18343432853E+03  0.38250951763E+03  0.77737309410E+02 0.  0.
         24    2    4    4    0    0  0.84062923985E+03 -0.56351539997E+03  0.55635955386E+03  0.11575866487E+04  0.79143989863E+02 0.  0.
         11    1    3    3    0    0 -0.75200877823E+03  0.80078187943E+03  0.29085801297E+03  0.11363833881E+04  0.00000000000E+00 0. -1.
        -11    1    3    3    0    0 -0.53977572322E+02  0.87421307716E+02  0.80610890866E+01  0.10305845193E+03  0.00000000000E+00 0.  1.
          2    1    6    6  502    0  0.17502231199E+03 -0.13772046144E+03  0.90999372873E+02  0.24058391687E+03  0.00000000000E+00 0. -1.
          3    1    5    5  503    0 -0.21225926646E+02 -0.41897388567E+02 -0.52947456515E+02  0.70776862618E+02  0.00000000000E+00 0. -1.
         -4    1    5    5    0  503 -0.13416962648E+02 -0.28279039861E+03 -0.13048687201E+03  0.31173265501E+03  0.00000000000E+00 0.  1.
         -1    1    6    6    0  502  0.66560692785E+03 -0.42579493853E+03  0.46536018099E+03  0.91700273180E+03  0.00000000000E+00 0.  1.
<mgrwt>
<rscale>  0 0.26971201E+04</rscale>
<asrwt>0</asrwt>
<pdfrwt beam="1">  1        2 0.26549095E+00 0.26971201E+04</pdfrwt>
<pdfrwt beam="2">  1       -2 0.16213028E+00 0.26971201E+04</pdfrwt>
<totfact> 0.20233669E+00</totfact>
</mgrwt>
</event>
<event>
12    1  0.1397649E-007  0.2506121E+04  0.7818608E-02  0.8400808E-01
         -1   -1    0    0    0  501 -0.00000000000E+00  0.00000000000E+00  0.13003206031E+04  0.13003206031E+04  0.00000000000E+00 0.  1.
          1   -1    0    0  501    0  0.00000000000E+00 -0.00000000000E+00 -0.12075183834E+04  0.12075183834E+04  0.00000000000E+00 0. -1.
         23    2    1    2    0    0  0.37634586069E+03 -0.61594908949E+03  0.84851524936E+03  0.11174539770E+04  0.87725563555E+02 0.  0.
        254    2    1    2    0    0 -0.37634586069E+03  0.61594908949E+03 -0.75571302968E+03  0.13903850095E+04  0.91708167773E+03 0.  0.
        -24    2    4    4    0    0 -0.52111565603E+03  0.73417580384E+03 -0.76918273890E+03  0.11867424386E+04  0.78357461291E+02 0.  0.
         24    2    4    4    0    0  0.14476979535E+03 -0.11822671435E+03  0.13469709229E+02  0.20364257091E+03  0.79705796469E+02 0.  0.
         11    1    3    3    0    0  0.15597558277E+03 -0.17692326666E+03  0.26947716112E+03  0.35811752969E+03  0.00000000000E+00 0. -1.
        -11    1    3    3    0    0  0.22037027791E+03 -0.43902582284E+03  0.57903808824E+03  0.75933644726E+03  0.00000000000E+00 0.  1.
          4    1    6    6  502    0  0.97167482329E+02 -0.41534624300E+02  0.34123696117E+02  0.11104535684E+03  0.00000000000E+00 0. -1.
          1    1    5    5  503    0 -0.26649019271E+03  0.33144199728E+03 -0.40183973777E+03  0.58510340558E+03  0.00000000000E+00 0. -1.
         -2    1    5    5    0  503 -0.25462546332E+03  0.40273380657E+03 -0.36734300114E+03  0.60163903298E+03  0.00000000000E+00 0.  1.
         -3    1    6    6    0  502  0.47602313017E+02 -0.76692090047E+02 -0.20653986888E+02  0.92597214076E+02  0.00000000000E+00 0.  1.
<mgrwt>
<rscale>  0 0.25061213E+04</rscale>
<asrwt>0</asrwt>
<pdfrwt beam="1">  1        1 0.18577206E+00 0.25061213E+04</pdfrwt>
<pdfrwt beam="2">  1       -1 0.20004932E+00 0.25061213E+04</pdfrwt>
<totfact> 0.14089641E+00</totfact>
</mgrwt>
</event>
<event>
12    1  0.1397649E-007  0.1107851E+04  0.7818608E-02  0.9197573E-01
         -1   -1    0    0    0  501 -0.00000000000E+00  0.00000000000E+00  0.17369291950E+03  0.17369291950E+03  0.00000000000E+00 0.  1.
          1   -1    0    0  501    0  0.00000000000E+00 -0.00000000000E+00 -0.17665291940E+04  0.17665291940E+04  0.00000000000E+00 0. -1.
         23    2    1    2    0    0  0.39117063889E+02 -0.38845066198E+02 -0.29267954777E+01  0.10592525929E+03  0.90401938968E+02 0.  0.
        254    2    1    2    0    0 -0.39117063889E+02  0.38845066198E+02 -0.15899094791E+04  0.18342968542E+04  0.91312305525E+03 0.  0.
        -24    2    4    4    0    0 -0.40668881253E+03  0.24097756395E+03 -0.96048650728E+03  0.10735456324E+04  0.80622066999E+02 0.  0.
         24    2    4    4    0    0  0.36757174864E+03 -0.20213249775E+03 -0.62942297177E+03  0.76075122181E+03  0.81256427656E+02 0.  0.
         11    1    3    3    0    0  0.59377468467E+02 -0.53645482246E+02  0.32414161362E+01  0.80087628917E+02  0.00000000000E+00 0.  1.
        -11    1    3    3    0    0 -0.20260404579E+02  0.14800416048E+02 -0.61682116139E+01  0.25837630375E+02  0.00000000000E+00 0. -1.
          2    1    6    6  502    0  0.19600130697E+01 -0.75766351339E+00  0.25960684461E+01  0.33399515879E+01  0.00000000000E+00 0. -1.
          3    1    5    5  503    0 -0.12301755725E+03  0.33374006506E+02 -0.27905032095E+03  0.30678367839E+03  0.00000000000E+00 0. -1.
         -4    1    5    5    0  503 -0.28367125529E+03  0.20760355744E+03 -0.68143618633E+03  0.76676195405E+03  0.00000000000E+00 0.  1.
         -1    1    6    6    0  502  0.36561173557E+03 -0.20137483423E+03 -0.63201904022E+03  0.75741127022E+03  0.00000000000E+00 0.  1.
<mgrwt>
<rscale>  0 0.11078513E+04</rscale>
<asrwt>0</asrwt>
<pdfrwt beam="1">  1        1 0.27177372E+00 0.11078513E+04</pdfrwt>
<pdfrwt beam="2">  1       -1 0.26721988E-01 0.11078513E+04</pdfrwt>
<totfact> 0.53449763E+01</totfact>
</mgrwt>
</event>
<event>
12    1  0.1397649E-007  0.1861341E+04  0.7818608E-02  0.8674342E-01
         -1   -1    0    0    0  501 -0.00000000000E+00  0.00000000000E+00  0.80820458774E+03  0.80820458774E+03  0.00000000000E+00 0. -1.
          1   -1    0    0  501    0  0.00000000000E+00 -0.00000000000E+00 -0.10716937634E+04  0.10716937634E+04  0.00000000000E+00 0.  1.
         23    2    1    2    0    0 -0.48736602287E+03 -0.44300918778E+03  0.18240384634E+03  0.68923368899E+03  0.89381956640E+02 0.  0.
        254    2    1    2    0    0  0.48736602287E+03  0.44300918778E+03 -0.44589302204E+03  0.11906646622E+04  0.88604682155E+03 0.  0.
        -24    2    4    4    0    0 -0.17681589295E+03 -0.96601052949E+02  0.13117683299E+02  0.21613789101E+03  0.77122570541E+02 0.  0.
         24    2    4    4    0    0  0.66418191582E+03  0.53961024073E+03 -0.45901070534E+03  0.97452677118E+03  0.81821579763E+02 0.  0.
         13    1    3    3    0    0 -0.40278026464E+03 -0.39178541919E+03  0.12770222374E+03  0.57622531550E+03  0.00000000000E+00 0. -1.
        -13    1    3    3    0    0 -0.84585758235E+02 -0.51223768587E+02  0.54701622598E+02  0.11300837349E+03  0.00000000000E+00 0.  1.
          4    1    6    6  502    0  0.50199170748E+03  0.37126456744E+03 -0.35946042600E+03  0.72044767421E+03  0.00000000000E+00 0. -1.
          3    1    5    5  503    0 -0.32578717767E+02 -0.13791489868E+02  0.33318426467E+02  0.48597279619E+02  0.00000000000E+00 0. -1.
         -4    1    5    5    0  503 -0.14423717518E+03 -0.82809563082E+02 -0.20200743168E+02  0.16754061140E+03  0.00000000000E+00 0.  1.
         -1    1    6    6    0  502  0.16219020834E+03  0.16834567329E+03 -0.99550279335E+02  0.25407909696E+03  0.00000000000E+00 0.  1.
<mgrwt>
<rscale>  0 0.18613413E+04</rscale>
<asrwt>0</asrwt>
<pdfrwt beam="1">  1        1 0.16487597E+00 0.18613413E+04</pdfrwt>
<pdfrwt beam="2">  1       -1 0.12433917E+00 0.18613413E+04</pdfrwt>
<totfact> 0.70915661E+00</totfact>
</mgrwt>
</event>
<event>
12    1  0.1397649E-007  0.1817778E+04  0.7818608E-02  0.8696902E-01
          1   -1    0    0  501    0  0.00000000000E+00  0.00000000000E+00  0.38436455143E+04  0.38436455143E+04  0.00000000000E+00 0. -1.
         -1   -1    0    0    0  501 -0.00000000000E+00 -0.00000000000E+00 -0.21492068639E+03  0.21492068639E+03  0.00000000000E+00 0.  1.
         23    2    1    2    0    0  0.49285940800E+03 -0.42869650204E+02  0.23712094799E+04  0.24238930238E+04  0.88740016680E+02 0.  0.
        254    2    1    2    0    0 -0.49285940800E+03  0.42869650204E+02  0.12575153480E+04  0.16346731768E+04  0.91981701531E+03 0.  0.
        -24    2    4    4    0    0 -0.25973257009E+03  0.41836656630E+03  0.99866614753E+03  0.11163720307E+04  0.80379381435E+02 0.  0.
         24    2    4    4    0    0 -0.23312683791E+03 -0.37549691610E+03  0.25884920047E+03  0.51830114612E+03  0.79291316933E+02 0.  0.
         11    1    3    3    0    0  0.38149783081E+03 -0.53804095989E+02  0.16741727314E+04  0.17179318410E+04  0.00000000000E+00 0. -1.
        -11    1    3    3    0    0  0.11136157718E+03  0.10934445785E+02  0.69703674848E+03  0.70596118286E+03  0.00000000000E+00 0.  1.
          2    1    6    6  502    0 -0.20115433596E+03 -0.27023820525E+03  0.17268199637E+03  0.37856416408E+03  0.00000000000E+00 0. -1.
          3    1    5    5  503    0 -0.21761331686E+03  0.34524723772E+03  0.88724596833E+03  0.97660463810E+03  0.00000000000E+00 0. -1.
         -4    1    5    5    0  503 -0.42119253228E+02  0.73119328585E+02  0.11142017919E+03  0.13976739261E+03  0.00000000000E+00 0.  1.
         -1    1    6    6    0  502 -0.31972501944E+02 -0.10525871085E+03  0.86167204097E+02  0.13973698205E+03  0.00000000000E+00 0.  1.
<mgrwt>
<rscale>  0 0.18177777E+04</rscale>
<asrwt>0</asrwt>
<pdfrwt beam="1">  1        1 0.59133003E+00 0.18177777E+04</pdfrwt>
<pdfrwt beam="2">  1       -1 0.33064724E-01 0.18177777E+04</pdfrwt>
<totfact> 0.10700057E+00</totfact>
</mgrwt>
</event>
<event>
12    1  0.1397649E-007  0.1349884E+04  0.7818608E-02  0.8990916E-01
         -1   -1    0    0    0  501 -0.00000000000E+00  0.00000000000E+00  0.41274552587E+03  0.41274552587E+03  0.00000000000E+00 0.  1.
          1   -1    0    0  501    0  0.00000000000E+00 -0.00000000000E+00 -0.11036993830E+04  0.11036993830E+04  0.00000000000E+00 0. -1.
         23    2    1    2    0    0  0.54094197455E+02 -0.29832161789E+03  0.18865232669E+02  0.31684599419E+03  0.90075063857E+02 0.  0.
        254    2    1    2    0    0 -0.54094197455E+02  0.29832161789E+03 -0.70981908980E+03  0.11995989147E+04  0.91829866926E+03 0.  0.
        -24    2    4    4    0    0 -0.42699900755E+03  0.37374540158E+03 -0.35899260368E+03  0.67609736445E+03  0.78855431461E+02 0.  0.
         24    2    4    4    0    0  0.37290481010E+03 -0.75423783682E+02 -0.35082648612E+03  0.52350155023E+03  0.78917077988E+02 0.  0.
         11    1    3    3    0    0  0.22306479423E+02 -0.27720746220E+03  0.15447486112E+02  0.27853219015E+03  0.00000000000E+00 0.  1.
        -11    1    3    3    0    0  0.31787718032E+02 -0.21114155697E+02  0.34177465567E+01  0.38313804040E+02  0.00000000000E+00 0. -1.
          2    1    6    6  502    0  0.22142186487E+03 -0.50383299937E+01 -0.20365512358E+03  0.30087943827E+03  0.00000000000E+00 0. -1.
          1    1    5    5  503    0 -0.10641306607E+03  0.53414680602E+02 -0.88029624517E+02  0.14807458771E+03  0.00000000000E+00 0. -1.
         -2    1    5    5    0  503 -0.32058594148E+03  0.32033072098E+03 -0.27096297916E+03  0.52802277674E+03  0.00000000000E+00 0.  1.
         -1    1    6    6    0  502  0.15148294522E+03 -0.70385453689E+02 -0.14717136254E+03  0.22262211197E+03  0.00000000000E+00 0.  1.
<mgrwt>
<rscale>  0 0.13498844E+04</rscale>
<asrwt>0</asrwt>
<pdfrwt beam="1">  1        1 0.16979990E+00 0.13498844E+04</pdfrwt>
<pdfrwt beam="2">  1       -1 0.63499314E-01 0.13498844E+04</pdfrwt>
<totfact> 0.31017068E+01</totfact>
</mgrwt>
</event>
<event>
12    1  0.1397649E-007  0.1803772E+04  0.7818608E-02  0.8704296E-01
         -2   -1    0    0    0  501 -0.00000000000E+00  0.00000000000E+00  0.46428803085E+03  0.46428803085E+03  0.00000000000E+00 0. -1.
          2   -1    0    0  501    0  0.00000000000E+00 -0.00000000000E+00 -0.17519258840E+04  0.17519258840E+04  0.00000000000E+00 0.  1.
         23    2    1    2    0    0  0.32543821760E+03  0.60455833676E+03 -0.48506189619E+03  0.84530657763E+03  0.88641700317E+02 0.  0.
        254    2    1    2    0    0 -0.32543821760E+03 -0.60455833676E+03 -0.80257595692E+03  0.13709073372E+04  0.87398967071E+03 0.  0.
        -24    2    4    4    0    0 -0.48710366737E+03 -0.69357029242E+03 -0.80285263361E+03  0.11702820015E+04  0.81718286534E+02 0.  0.
         24    2    4    4    0    0  0.16166544977E+03  0.89011955657E+02  0.27667668797E+00  0.20062533573E+03  0.78686738949E+02 0.  0.
         11    1    3    3    0    0  0.13086248674E+03  0.23503345999E+03 -0.24354082898E+03  0.36287443163E+03  0.00000000000E+00 0.  1.
        -11    1    3    3    0    0  0.19457573086E+03  0.36952487677E+03 -0.24152106721E+03  0.48243214601E+03  0.00000000000E+00 0. -1.
          4    1    6    6  502    0  0.12523840294E+03  0.97493359779E+02  0.17068293812E+02  0.15962750209E+03  0.00000000000E+00 0. -1.
          1    1    5    5  503    0 -0.26061761436E+03 -0.43968249056E+03 -0.49143018907E+03  0.70904574193E+03  0.00000000000E+00 0. -1.
         -2    1    5    5    0  503 -0.22648605302E+03 -0.25388780186E+03 -0.31142244453E+03  0.46123625953E+03  0.00000000000E+00 0.  1.
         -3    1    6    6    0  502  0.36427046838E+02 -0.84814041224E+01 -0.16791617124E+02  0.40997833636E+02  0.00000000000E+00 0.  1.
<mgrwt>
<rscale>  0 0.18037718E+04</rscale>
<asrwt>0</asrwt>
<pdfrwt beam="1">  1        2 0.26952706E+00 0.18037718E+04</pdfrwt>
<pdfrwt beam="2">  1       -2 0.71428928E-01 0.18037718E+04</pdfrwt>
<totfact> 0.15399567E+01</totfact>
</mgrwt>
</event>
<event>
12    1  0.1397649E-007  0.1867753E+04  0.7818608E-02  0.8671076E-01
          2   -1    0    0  501    0  0.00000000000E+00  0.00000000000E+00  0.22993901207E+04  0.22993901207E+04  0.00000000000E+00 0. -1.
         -2   -1    0    0    0  501 -0.00000000000E+00 -0.00000000000E+00 -0.37928564432E+03  0.37928564432E+03  0.00000000000E+00 0.  1.
         23    2    1    2    0    0 -0.35048611155E+03  0.37059162646E+03  0.14457349247E+04  0.15358023624E+04  0.91437168211E+02 0.  0.
        254    2    1    2    0    0  0.35048611155E+03 -0.37059162646E+03  0.47436955163E+03  0.11428734026E+04  0.90606538113E+03 0.  0.
        -24    2    4    4    0    0  0.49179151807E+03 -0.38227771883E+03 -0.14017924739E+02  0.62815039700E+03  0.79882835943E+02 0.  0.
         24    2    4    4    0    0 -0.14130540652E+03  0.11686092371E+02  0.48838747637E+03  0.51472300561E+03  0.79458560032E+02 0.  0.
         13    1    3    3    0    0 -0.13819160169E+02  0.17354672586E+02  0.14228340154E+03  0.14400250068E+03  0.00000000000E+00 0.  1.
        -13    1    3    3    0    0 -0.33666695138E+03  0.35323695387E+03  0.13034515232E+04  0.13917998617E+04  0.00000000000E+00 0. -1.
          4    1    6    6  502    0 -0.60665644697E+02  0.24481025511E+02  0.11310552232E+03  0.13066177802E+03  0.00000000000E+00 0. -1.
          1    1    5    5  503    0  0.49617209525E+00 -0.66030247552E+01  0.65861378112E+01  0.93393433352E+01  0.00000000000E+00 0. -1.
         -2    1    5    5    0  503  0.49129534597E+03 -0.37567469407E+03 -0.20604062550E+02  0.61881105367E+03  0.00000000000E+00 0.  1.
         -3    1    6    6    0  502 -0.80639761827E+02 -0.12794933140E+02  0.37528195405E+03  0.38406122759E+03  0.00000000000E+00 0.  1.
<mgrwt>
<rscale>  0 0.18677534E+04</rscale>
<asrwt>0</asrwt>
<pdfrwt beam="1">  1        2 0.35375232E+00 0.18677534E+04</pdfrwt>
<pdfrwt beam="2">  1       -2 0.58351639E-01 0.18677534E+04</pdfrwt>
<totfact> 0.11706791E+01</totfact>
</mgrwt>
</event>
<event>
12    1  0.1397649E-007  0.1821772E+04  0.7818608E-02  0.8694806E-01
          1   -1    0    0  501    0  0.00000000000E+00  0.00000000000E+00  0.61419302783E+03  0.61419302783E+03  0.00000000000E+00 0. -1.
         -1   -1    0    0    0  501 -0.00000000000E+00 -0.00000000000E+00 -0.13509001071E+04  0.13509001071E+04  0.00000000000E+00 0.  1.
         23    2    1    2    0    0  0.51064417588E+03  0.30697968751E+02 -0.77388837010E+03  0.93229837759E+03  0.92613259525E+02 0.  0.
        254    2    1    2    0    0 -0.51064417588E+03 -0.30697968751E+02  0.37181290788E+02  0.10327947574E+04  0.89642775661E+03 0.  0.
        -24    2    4    4    0    0 -0.71861989700E+03  0.15792016893E+03  0.31161114544E+02  0.74071857562E+03  0.79621963630E+02 0.  0.
         24    2    4    4    0    0  0.20797572111E+03 -0.18861813768E+03  0.60201762442E+01  0.29207618176E+03  0.80259273565E+02 0.  0.
         11    1    3    3    0    0  0.42257675765E+03 -0.79148834070E+01 -0.60618069603E+03  0.73897821194E+03  0.00000000000E+00 0.  1.
        -11    1    3    3    0    0  0.88067418236E+02  0.38612852158E+02 -0.16770767407E+03  0.19332016565E+03  0.00000000000E+00 0. -1.
          2    1    6    6  502    0  0.40980282011E+02 -0.32434903112E+01  0.10890982148E+02  0.42526664990E+02  0.00000000000E+00 0. -1.
          1    1    5    5  503    0 -0.21438559042E+03  0.20274860885E+02 -0.15850617312E+02  0.21592474020E+03  0.00000000000E+00 0. -1.
         -4    1    5    5    0  503 -0.50423430658E+03  0.13764530804E+03  0.47011731855E+02  0.52479383541E+03  0.00000000000E+00 0.  1.
         -1    1    6    6    0  502  0.16699543910E+03 -0.18537464737E+03 -0.48708059033E+01  0.24954951677E+03  0.00000000000E+00 0.  1.
<mgrwt>
<rscale>  0 0.18217721E+04</rscale>
<asrwt>0</asrwt>
<pdfrwt beam="1">  1        1 0.94491235E-01 0.18217721E+04</pdfrwt>
<pdfrwt beam="2">  1       -1 0.20783078E+00 0.18217721E+04</pdfrwt>
<totfact> 0.41461637E+00</totfact>
</mgrwt>
</event>
<event>
12    1  0.1397649E-007  0.1656318E+04  0.7818608E-02  0.8786678E-01
          1   -1    0    0  501    0  0.00000000000E+00  0.00000000000E+00  0.20966787590E+04  0.20966787590E+04  0.00000000000E+00 0. -1.
         -1   -1    0    0    0  501 -0.00000000000E+00 -0.00000000000E+00 -0.32711118308E+03  0.32711118308E+03  0.00000000000E+00 0.  1.
         23    2    1    2    0    0 -0.12737265290E+03  0.23375283708E+03 -0.12512561725E+03  0.30793663175E+03  0.91128302577E+02 0.  0.
        254    2    1    2    0    0  0.12737265290E+03 -0.23375283708E+03  0.18946931932E+04  0.21158533103E+04  0.90338737706E+03 0.  0.
        -24    2    4    4    0    0  0.39753944633E+03 -0.38513000778E+03  0.15391429305E+04  0.16375562415E+04  0.79162803139E+02 0.  0.
         24    2    4    4    0    0 -0.27016679344E+03  0.15137717070E+03  0.35555026270E+03  0.47829706882E+03  0.80292917809E+02 0.  0.
         13    1    3    3    0    0 -0.11488834320E+03  0.22366234507E+03 -0.13848008946E+03  0.28705558901E+03  0.00000000000E+00 0.  1.
        -13    1    3    3    0    0 -0.12484309698E+02  0.10090492013E+02  0.13354472214E+02  0.20881042738E+02  0.00000000000E+00 0. -1.
          2    1    6    6  502    0 -0.26529147684E+03  0.14177089891E+03  0.35764722726E+03  0.46732225994E+03  0.00000000000E+00 0. -1.
          1    1    5    5  503    0  0.34119706028E+03 -0.36410289785E+03  0.13706549290E+04  0.14586573582E+04  0.00000000000E+00 0. -1.
         -2    1    5    5    0  503  0.56342386054E+02 -0.21027109930E+02  0.16848800149E+03  0.17889888335E+03  0.00000000000E+00 0.  1.
         -3    1    6    6    0  502 -0.48753165937E+01  0.96062717870E+01 -0.20969645671E+01  0.10974808879E+02  0.00000000000E+00 0.  1.
<mgrwt>
<rscale>  0 0.16563177E+04</rscale>
<asrwt>0</asrwt>
<pdfrwt beam="1">  1        1 0.32256595E+00 0.16563177E+04</pdfrwt>
<pdfrwt beam="2">  1       -1 0.50324799E-01 0.16563177E+04</pdfrwt>
<totfact> 0.97051573E+00</totfact>
</mgrwt>
</event>
<event>
12    1  0.1397649E-007  0.1880484E+04  0.7818608E-02  0.8664632E-01
          2   -1    0    0  501    0  0.00000000000E+00  0.00000000000E+00  0.19758613760E+04  0.19758613760E+04  0.00000000000E+00 0. -1.
         -2   -1    0    0    0  501 -0.00000000000E+00 -0.00000000000E+00 -0.44742749039E+03  0.44742749039E+03  0.00000000000E+00 0.  1.
         23    2    1    2    0    0 -0.41877935442E+03 -0.36915234659E+02 -0.16668696398E+03  0.46142675870E+03  0.91603643203E+02 0.  0.
        254    2    1    2    0    0  0.41877935442E+03  0.36915234659E+02  0.16951208496E+04  0.19618621077E+04  0.89371659529E+03 0.  0.
        -24    2    4    4    0    0 -0.80366161476E+02 -0.33901040553E+03  0.57371599624E+03  0.67556943211E+03  0.76532596263E+02 0.  0.
         24    2    4    4    0    0  0.49914551589E+03  0.37592564019E+03  0.11214048534E+04  0.12862926756E+04  0.80831115232E+02 0.  0.
         13    1    3    3    0    0 -0.38352759344E+03 -0.26488364615E+02 -0.17702262385E+03  0.42323995291E+03  0.00000000000E+00 0.  1.
        -13    1    3    3    0    0 -0.35251760980E+02 -0.10426870045E+02  0.10335659873E+02  0.38186805786E+02  0.00000000000E+00 0. -1.
          4    1    6    6  502    0  0.42547017590E+03  0.28089384438E+03  0.90913644669E+03  0.10423316656E+04  0.00000000000E+00 0. -1.
          3    1    5    5  503    0 -0.83594293686E+02 -0.20449855053E+03  0.38335336260E+03  0.44245617153E+03  0.00000000000E+00 0. -1.
         -4    1    5    5    0  503  0.32281322100E+01 -0.13451185499E+03  0.19036263364E+03  0.23311326058E+03  0.00000000000E+00 0.  1.
         -3    1    6    6    0  502  0.73675339996E+02  0.95031795811E+02  0.21226840669E+03  0.24396101004E+03  0.00000000000E+00 0.  1.
<mgrwt>
<rscale>  0 0.18804837E+04</rscale>
<asrwt>0</asrwt>
<pdfrwt beam="1">  1        2 0.30397867E+00 0.18804837E+04</pdfrwt>
<pdfrwt beam="2">  1       -2 0.68834999E-01 0.18804837E+04</pdfrwt>
<totfact> 0.12463519E+01</totfact>
</mgrwt>
</event>
<event>
12    1  0.1397649E-007  0.1339329E+04  0.7818608E-02  0.8998946E-01
          2   -1    0    0  501    0  0.00000000000E+00  0.00000000000E+00  0.15906659103E+04  0.15906659103E+04  0.00000000000E+00 0. -1.
         -2   -1    0    0    0  501 -0.00000000000E+00 -0.00000000000E+00 -0.28192620057E+03  0.28192620057E+03  0.00000000000E+00 0.  1.
         23    2    1    2    0    0  0.22426813343E+03  0.23658537869E+03  0.49357267623E+03  0.59869374305E+03  0.92473640357E+02 0.  0.
        254    2    1    2    0    0 -0.22426813343E+03 -0.23658537869E+03  0.81516703346E+03  0.12738983678E+04  0.92306604417E+03 0.  0.
        -24    2    4    4    0    0 -0.18077600628E+03  0.27537023427E+03  0.41208474594E+02  0.34140459314E+03  0.79688314523E+02 0.  0.
         24    2    4    4    0    0 -0.43492127150E+02 -0.51195561296E+03  0.77395855887E+03  0.93249377464E+03  0.80886798198E+02 0.  0.
         13    1    3    3    0    0  0.12490706740E+03  0.18415621015E+03  0.36937465277E+03  0.43122258675E+03  0.00000000000E+00 0.  1.
        -13    1    3    3    0    0  0.99361066036E+02  0.52429168542E+02  0.12419802347E+03  0.16747115629E+03  0.00000000000E+00 0. -1.
          4    1    6    6  502    0 -0.31906977768E+02 -0.50579224001E+03  0.74998577259E+03  0.90516435214E+03  0.00000000000E+00 0. -1.
          1    1    5    5  503    0 -0.13419000877E+03  0.18460042632E+03  0.63669845476E+02  0.23693485407E+03  0.00000000000E+00 0. -1.
         -2    1    5    5    0  503 -0.46585997512E+02  0.90769807955E+02 -0.22461370883E+02  0.10446973907E+03  0.00000000000E+00 0.  1.
         -3    1    6    6    0  502 -0.11585149382E+02 -0.61633729465E+01  0.23972786275E+02  0.27329422498E+02  0.00000000000E+00 0.  1.
<mgrwt>
<rscale>  0 0.13393288E+04</rscale>
<asrwt>0</asrwt>
<pdfrwt beam="1">  1        2 0.24471783E+00 0.13393288E+04</pdfrwt>
<pdfrwt beam="2">  1       -2 0.43373263E-01 0.13393288E+04</pdfrwt>
<totfact> 0.55595483E+01</totfact>
</mgrwt>
</event>
<event>
12    1  0.1397649E-007  0.1933027E+04  0.7818608E-02  0.8638589E-01
          1   -1    0    0  501    0  0.00000000000E+00  0.00000000000E+00  0.46466632877E+03  0.46466632877E+03  0.00000000000E+00 0. -1.
         -1   -1    0    0    0  501 -0.00000000000E+00 -0.00000000000E+00 -0.20103632265E+04  0.20103632265E+04  0.00000000000E+00 0.  1.
         23    2    1    2    0    0  0.15297561546E+03  0.67516748875E+03 -0.99011199131E+03  0.12115823464E+04  0.91418543160E+02 0.  0.
        254    2    1    2    0    0 -0.15297561546E+03 -0.67516748875E+03 -0.55558490638E+03  0.12634472088E+04  0.89909486953E+03 0.  0.
        -24    2    4    4    0    0 -0.19506435587E+03  0.10047927537E+03  0.90005391323E+02  0.25032843725E+03  0.80107230153E+02 0.  0.
         24    2    4    4    0    0  0.42088740403E+02 -0.77564676412E+03 -0.64559029770E+03  0.10131187715E+04  0.78888833195E+02 0.  0.
         11    1    3    3    0    0  0.87407311826E+02  0.35642084125E+03 -0.60263653070E+03  0.70558248446E+03  0.00000000000E+00 0.  1.
        -11    1    3    3    0    0  0.65568303639E+02  0.31874664750E+03 -0.38747546062E+03  0.50599986197E+03  0.00000000000E+00 0. -1.
          2    1    6    6  502    0  0.33428220292E+02 -0.22909656808E+03 -0.23106402358E+03  0.32709825192E+03  0.00000000000E+00 0. -1.
          1    1    5    5  503    0 -0.95500972770E+01  0.30062215982E+02 -0.20018734732E+01  0.31606149483E+02  0.00000000000E+00 0. -1.
         -2    1    5    5    0  503 -0.18551425859E+03  0.70417059385E+02  0.92007264796E+02  0.21872228777E+03  0.00000000000E+00 0.  1.
         -1    1    6    6    0  502  0.86605201104E+01 -0.54655019604E+03 -0.41452627412E+03  0.68602051962E+03  0.00000000000E+00 0.  1.
<mgrwt>
<rscale>  0 0.19330267E+04</rscale>
<asrwt>0</asrwt>
<pdfrwt beam="1">  1        1 0.71487128E-01 0.19330267E+04</pdfrwt>
<pdfrwt beam="2">  1       -1 0.30928665E+00 0.19330267E+04</pdfrwt>
<totfact> 0.13157748E+00</totfact>
</mgrwt>
</event>
<event>
12    1  0.1397649E-007  0.1308738E+04  0.7818608E-02  0.9022664E-01
         -2   -1    0    0    0  501 -0.00000000000E+00  0.00000000000E+00  0.15060673060E+03  0.15060673060E+03  0.00000000000E+00 0.  1.
          2   -1    0    0  501    0  0.00000000000E+00 -0.00000000000E+00 -0.28431604286E+04  0.28431604286E+04  0.00000000000E+00 0. -1.
         23    2    1    2    0    0  0.53680525033E+02 -0.10787081352E+03  0.10353586091E+01  0.15155000323E+03  0.91916376864E+02 0.  0.
        254    2    1    2    0    0 -0.53680525033E+02  0.10787081352E+03 -0.26935890566E+04  0.28422171559E+04  0.89903205986E+03 0.  0.
        -24    2    4    4    0    0 -0.28458169354E+03  0.40940317673E+03 -0.12711249086E+04  0.13677883494E+04  0.80552679016E+02 0.  0.
         24    2    4    4    0    0  0.23090116850E+03 -0.30153236321E+03 -0.14224641480E+04  0.14744288065E+04  0.79365846494E+02 0.  0.
         13    1    3    3    0    0 -0.50048677520E+01 -0.18406659525E+02 -0.33983202838E+02  0.38970654231E+02  0.00000000000E+00 0. -1.
        -13    1    3    3    0    0  0.58685392785E+02 -0.89464153993E+02  0.35018561447E+02  0.11257934900E+03  0.00000000000E+00 0.  1.
          2    1    6    6  502    0  0.19137954198E+03 -0.20365020542E+03 -0.94623548513E+03  0.98664133735E+03  0.00000000000E+00 0. -1.
          1    1    5    5  503    0 -0.28504428042E+03  0.41276774341E+03 -0.12610706272E+04  0.13571759571E+04  0.00000000000E+00 0. -1.
         -2    1    5    5    0  503  0.46258688561E+00 -0.33645666793E+01 -0.10054281377E+02  0.10612392264E+02  0.00000000000E+00 0.  1.
         -1    1    6    6    0  502  0.39521626528E+02 -0.97882157787E+02 -0.47622866283E+03  0.48778746917E+03  0.00000000000E+00 0.  1.
<mgrwt>
<rscale>  0 0.13087385E+04</rscale>
<asrwt>0</asrwt>
<pdfrwt beam="1">  1        2 0.43740928E+00 0.13087385E+04</pdfrwt>
<pdfrwt beam="2">  1       -2 0.23170267E-01 0.13087385E+04</pdfrwt>
<totfact> 0.35404884E+01</totfact>
</mgrwt>
</event>
<event>
12    1  0.1397649E-007  0.2353399E+04  0.7818608E-02  0.8457159E-01
         -2   -1    0    0    0  501 -0.00000000000E+00  0.00000000000E+00  0.59820905206E+03  0.59820905206E+03  0.00000000000E+00 0.  1.
          2   -1    0    0  501    0  0.00000000000E+00 -0.00000000000E+00 -0.23146121017E+04  0.23146121017E+04  0.00000000000E+00 0. -1.
         23    2    1    2    0    0 -0.56778780855E+03  0.76517003191E+03 -0.35037247733E+03  0.10191902335E+04  0.90109299901E+02 0.  0.
        254    2    1    2    0    0  0.56778780855E+03 -0.76517003191E+03 -0.13660305723E+04  0.18936309203E+04  0.90107178648E+03 0.  0.
        -24    2    4    4    0    0  0.34922528001E+03 -0.44248063671E+03 -0.11529072021E+03  0.58090848029E+03  0.80095581919E+02 0.  0.
         24    2    4    4    0    0  0.21856252854E+03 -0.32268939519E+03 -0.12507398521E+04  0.13127224400E+04  0.83618192334E+02 0.  0.
         13    1    3    3    0    0 -0.38624591736E+03  0.49223487168E+03 -0.27141907790E+03  0.68201861662E+03  0.00000000000E+00 0.  1.
        -13    1    3    3    0    0 -0.18154189119E+03  0.27293516023E+03 -0.78953399425E+02  0.33717161688E+03  0.00000000000E+00 0. -1.
          2    1    6    6  502    0  0.14360008209E+03 -0.16086639740E+03 -0.58387290899E+03  0.62241991874E+03  0.00000000000E+00 0. -1.
          3    1    5    5  503    0  0.61849736339E+02 -0.57159390838E+02  0.81980954689E+01  0.84615569581E+02  0.00000000000E+00 0. -1.
         -4    1    5    5    0  503  0.28737554367E+03 -0.38532124588E+03 -0.12348881568E+03  0.49629291071E+03  0.00000000000E+00 0.  1.
         -1    1    6    6    0  502  0.74962446454E+02 -0.16182299780E+03 -0.66686694312E+03  0.69030252123E+03  0.00000000000E+00 0.  1.
<mgrwt>
<rscale>  0 0.23533992E+04</rscale>
<asrwt>0</asrwt>
<pdfrwt beam="1">  1        2 0.35609416E+00 0.23533992E+04</pdfrwt>
<pdfrwt beam="2">  1       -2 0.92032163E-01 0.23533992E+04</pdfrwt>
<totfact> 0.40285775E+00</totfact>
</mgrwt>
</event>
<event>
12    1  0.1397649E-007  0.2131055E+04  0.7818608E-02  0.8547685E-01
          2   -1    0    0  501    0  0.00000000000E+00  0.00000000000E+00  0.19202698845E+04  0.19202698845E+04  0.00000000000E+00 0. -1.
         -2   -1    0    0    0  501 -0.00000000000E+00 -0.00000000000E+00 -0.59124466383E+03  0.59124466383E+03  0.00000000000E+00 0.  1.
         23    2    1    2    0    0  0.86530728363E+03 -0.13383975496E+02  0.66999617571E+03  0.10984646227E+04  0.93775402007E+02 0.  0.
        254    2    1    2    0    0 -0.86530728363E+03  0.13383975496E+02  0.65902904498E+03  0.14130499256E+04  0.90191739324E+03 0.  0.
        -24    2    4    4    0    0 -0.98893337668E+03  0.12345544564E+03  0.70631325724E+03  0.12240287231E+04  0.78341732713E+02 0.  0.
         24    2    4    4    0    0  0.12362609304E+03 -0.11007147014E+03 -0.47284212262E+02  0.18902120250E+03  0.78064581248E+02 0.  0.
         11    1    3    3    0    0 -0.18975933019E+01  0.17557190454E+01  0.17100949964E+00  0.25908789927E+01  0.00000000000E+00 0.  1.
        -11    1    3    3    0    0  0.86720487694E+03 -0.15139694541E+02  0.66982516621E+03  0.10958737437E+04  0.00000000000E+00 0. -1.
          4    1    6    6  502    0  0.77064992328E+02 -0.11181176166E+03 -0.41917551373E+02  0.14211954194E+03  0.00000000000E+00 0. -1.
          3    1    5    5  503    0 -0.91599495272E+03  0.93946970109E+02  0.64395385183E+03  0.11236322129E+04  0.00000000000E+00 0. -1.
         -4    1    5    5    0  503 -0.72938423951E+02  0.29508475531E+02  0.62359405409E+02  0.10039651020E+03  0.00000000000E+00 0.  1.
         -3    1    6    6    0  502  0.46561100713E+02  0.17402915179E+01 -0.53666608889E+01  0.46901660560E+02  0.00000000000E+00 0.  1.
<mgrwt>
<rscale>  0 0.21310554E+04</rscale>
<asrwt>0</asrwt>
<pdfrwt beam="1">  1        2 0.29542613E+00 0.21310554E+04</pdfrwt>
<pdfrwt beam="2">  1       -2 0.90960718E-01 0.21310554E+04</pdfrwt>
<totfact> 0.70130241E+00</totfact>
</mgrwt>
</event>
<event>
12    1  0.1397649E-007  0.1362437E+04  0.7818608E-02  0.8981466E-01
         -2   -1    0    0    0  501 -0.00000000000E+00  0.00000000000E+00  0.25068328089E+03  0.25068328089E+03  0.00000000000E+00 0.  1.
          2   -1    0    0  501    0  0.00000000000E+00 -0.00000000000E+00 -0.18511758337E+04  0.18511758337E+04  0.00000000000E+00 0. -1.
         23    2    1    2    0    0 -0.10072854877E+03 -0.13358345043E+03 -0.82513384202E+03  0.84681536035E+03  0.90882443381E+02 0.  0.
        254    2    1    2    0    0  0.10072854877E+03  0.13358345043E+03 -0.77535871076E+03  0.12550437542E+04  0.97260624915E+03 0.  0.
        -24    2    4    4    0    0 -0.15080029605E+03  0.49561480722E+03 -0.52371106513E+03  0.74116371809E+03  0.81704411440E+02 0.  0.
         24    2    4    4    0    0  0.25152884482E+03 -0.36203135679E+03 -0.25164764563E+03  0.51388003613E+03  0.80079278880E+02 0.  0.
         13    1    3    3    0    0 -0.11644541704E+03 -0.12455472464E+03 -0.77415334448E+03  0.79270853114E+03  0.00000000000E+00 0. -1.
        -13    1    3    3    0    0  0.15716868266E+02 -0.90287257876E+01 -0.50980497539E+02  0.54106829206E+02  0.00000000000E+00 0.  1.
          4    1    6    6  502    0  0.23706453170E+03 -0.32695620327E+03 -0.20246955230E+03  0.45176749623E+03  0.00000000000E+00 0. -1.
          3    1    5    5  503    0 -0.14793554796E+03  0.36592221952E+03 -0.39053499469E+03  0.55524911451E+03  0.00000000000E+00 0. -1.
         -4    1    5    5    0  503 -0.28647480924E+01  0.12969258770E+03 -0.13317607045E+03  0.18591460358E+03  0.00000000000E+00 0.  1.
         -3    1    6    6    0  502  0.14464313122E+02 -0.35075153524E+02 -0.49178093333E+02  0.62112539899E+02  0.00000000000E+00 0.  1.
<mgrwt>
<rscale>  0 0.13624373E+04</rscale>
<asrwt>0</asrwt>
<pdfrwt beam="1">  1        2 0.28479629E+00 0.13624373E+04</pdfrwt>
<pdfrwt beam="2">  1       -2 0.38566657E-01 0.13624373E+04</pdfrwt>
<totfact> 0.50108005E+01</totfact>
</mgrwt>
</event>
<event>
12    1  0.1397649E-007  0.2431093E+04  0.7818608E-02  0.8427954E-01
         -2   -1    0    0    0  501 -0.00000000000E+00  0.00000000000E+00  0.54799945915E+03  0.54799945915E+03  0.00000000000E+00 0.  1.
          2   -1    0    0  501    0  0.00000000000E+00 -0.00000000000E+00 -0.26962675551E+04  0.26962675551E+04  0.00000000000E+00 0. -1.
         23    2    1    2    0    0 -0.16035585914E+03  0.45357116816E+02 -0.23159804483E+04  0.23241357136E+04  0.10034993150E+03 0.  0.
        254    2    1    2    0    0  0.16035585914E+03 -0.45357116816E+02  0.16771235241E+03  0.92013130058E+03  0.88923726167E+03 0.  0.
        -24    2    4    4    0    0 -0.17357705671E+03  0.23545337310E+03 -0.18336323023E+03  0.35438116162E+03  0.79979047213E+02 0.  0.
         24    2    4    4    0    0  0.33393291585E+03 -0.28081048991E+03  0.35107558264E+03  0.56575013896E+03  0.80333252653E+02 0.  0.
         13    1    3    3    0    0 -0.15978574455E+01  0.21982547461E+02 -0.10233602614E+03  0.10468260499E+03  0.00000000000E+00 0.  1.
        -13    1    3    3    0    0 -0.15875800169E+03  0.23374569355E+02 -0.22136444222E+04  0.22194531086E+04  0.00000000000E+00 0. -1.
          2    1    6    6  502    0  0.24310388184E+03 -0.19127537352E+03  0.20145706560E+03  0.36914863560E+03  0.00000000000E+00 0. -1.
          1    1    5    5  503    0 -0.12242793766E+03  0.21435868572E+03 -0.13784778098E+03  0.28273708067E+03  0.00000000000E+00 0. -1.
         -2    1    5    5    0  503 -0.51149119048E+02  0.21094687373E+02 -0.45515449251E+02  0.71644080951E+02  0.00000000000E+00 0.  1.
         -1    1    6    6    0  502  0.90829034005E+02 -0.89535116388E+02  0.14961851704E+03  0.19660150337E+03  0.00000000000E+00 0.  1.
<mgrwt>
<rscale>  0 0.24310929E+04</rscale>
<asrwt>0</asrwt>
<pdfrwt beam="1">  1        2 0.41481039E+00 0.24310929E+04</pdfrwt>
<pdfrwt beam="2">  1       -2 0.84307610E-01 0.24310929E+04</pdfrwt>
<totfact> 0.29388037E+00</totfact>
</mgrwt>
</event>
<event>
12    1  0.1397649E-007  0.1028394E+04  0.7818608E-02  0.9277940E-01
          2   -1    0    0  501    0  0.00000000000E+00  0.00000000000E+00  0.57147642683E+03  0.57147642683E+03  0.00000000000E+00 0. -1.
         -2   -1    0    0    0  501 -0.00000000000E+00 -0.00000000000E+00 -0.46265874624E+03  0.46265874624E+03  0.00000000000E+00 0.  1.
         23    2    1    2    0    0  0.24415099900E+02  0.44602832398E+02 -0.39424715296E+02  0.12069683127E+03  0.10211712463E+03 0.  0.
        254    2    1    2    0    0 -0.24415099900E+02 -0.44602832398E+02  0.14824239588E+03  0.91343834180E+03  0.89989348624E+03 0.  0.
        -24    2    4    4    0    0 -0.16799870767E+03 -0.15851502482E+03  0.47299623851E+03  0.53229594897E+03  0.79138844896E+02 0.  0.
         24    2    4    4    0    0  0.14358360777E+03  0.11391219242E+03 -0.32475384263E+03  0.38114239283E+03  0.78817671273E+02 0.  0.
         11    1    3    3    0    0  0.50216664326E+02  0.59201892525E+02 -0.46129930791E+02  0.90302535786E+02  0.00000000000E+00 0.  1.
        -11    1    3    3    0    0 -0.25801564425E+02 -0.14599060127E+02  0.67052154949E+01  0.30394295488E+02  0.00000000000E+00 0. -1.
          2    1    6    6  502    0  0.83236741142E+02  0.65142782001E+02 -0.25791595796E+03  0.27873388473E+03  0.00000000000E+00 0. -1.
          1    1    5    5  503    0 -0.17186296455E+03 -0.13037564130E+03  0.42085545460E+03  0.47292071227E+03  0.00000000000E+00 0. -1.
         -2    1    5    5    0  503  0.38642568796E+01 -0.28139383522E+02  0.52140783909E+02  0.59375236698E+02  0.00000000000E+00 0.  1.
         -1    1    6    6    0  502  0.60346866632E+02  0.48769410418E+02 -0.66837884666E+02  0.10240850810E+03  0.00000000000E+00 0.  1.
<mgrwt>
<rscale>  0 0.10283940E+04</rscale>
<asrwt>0</asrwt>
<pdfrwt beam="1">  1        2 0.87919450E-01 0.10283940E+04</pdfrwt>
<pdfrwt beam="2">  1       -2 0.71178269E-01 0.10283940E+04</pdfrwt>
<totfact> 0.94034380E+01</totfact>
</mgrwt>
</event>
<event>
12    1  0.1397649E-007  0.1983478E+04  0.7818608E-02  0.8614384E-01
          1   -1    0    0  501    0  0.00000000000E+00  0.00000000000E+00  0.53521529693E+03  0.53521529693E+03  0.00000000000E+00 0. -1.
         -1   -1    0    0    0  501 -0.00000000000E+00 -0.00000000000E+00 -0.18376647946E+04  0.18376647946E+04  0.00000000000E+00 0.  1.
         23    2    1    2    0    0  0.58556549794E+03 -0.38814896397E+03 -0.92079455191E+03  0.11615661877E+04  0.88469378582E+02 0.  0.
        254    2    1    2    0    0 -0.58556549794E+03  0.38814896397E+03 -0.38165494574E+03  0.12113139038E+04  0.90998588196E+03 0.  0.
        -24    2    4    4    0    0  0.17574861902E+03 -0.48640259171E+02 -0.25074339603E+03  0.32031019892E+03  0.80454465240E+02 0.  0.
         24    2    4    4    0    0 -0.76131411696E+03  0.43678922314E+03 -0.13091154971E+03  0.89100370490E+03  0.79785701492E+02 0.  0.
         13    1    3    3    0    0  0.16312233831E+03 -0.10382795614E+03 -0.19194790557E+03  0.27245759337E+03  0.00000000000E+00 0. -1.
        -13    1    3    3    0    0  0.42244315963E+03 -0.28432100783E+03 -0.72884664635E+03  0.88910859432E+03  0.00000000000E+00 0.  1.
          2    1    6    6  502    0 -0.51738511256E+02  0.55118212063E+02 -0.93109309789E+01  0.76168131681E+02  0.00000000000E+00 0. -1.
          1    1    5    5  503    0  0.95265384880E+02 -0.34611132361E+02 -0.73680539977E+02  0.12530860310E+03  0.00000000000E+00 0. -1.
         -2    1    5    5    0  503  0.80483234142E+02 -0.14029126810E+02 -0.17706285606E+03  0.19500159582E+03  0.00000000000E+00 0.  1.
         -1    1    6    6    0  502 -0.70957560570E+03  0.38167101108E+03 -0.12160061873E+03  0.81483557322E+03  0.00000000000E+00 0.  1.
<mgrwt>
<rscale>  0 0.19834781E+04</rscale>
<asrwt>0</asrwt>
<pdfrwt beam="1">  1        1 0.82340815E-01 0.19834781E+04</pdfrwt>
<pdfrwt beam="2">  1       -1 0.28271766E+00 0.19834781E+04</pdfrwt>
<totfact> 0.16011629E+00</totfact>
</mgrwt>
</event>
<event>
12    1  0.2146686E-007  0.2301385E+04  0.7818608E-02  0.8477375E-01
         -1   -1    0    0    0  501 -0.00000000000E+00  0.00000000000E+00  0.78180766741E+03  0.78180766741E+03  0.00000000000E+00 0.  1.
          1   -1    0    0  501    0  0.00000000000E+00 -0.00000000000E+00 -0.16936307179E+04  0.16936307179E+04  0.00000000000E+00 0. -1.
         23    2    1    2    0    0 -0.64231951850E+03  0.13579650871E+03 -0.11521116947E+04  0.13293284702E+04  0.93476033311E+02 0.  0.
        254    2    1    2    0    0  0.64231951850E+03 -0.13579650871E+03  0.24028864429E+03  0.11461099151E+04  0.90819284807E+03 0.  0.
        -24    2    4    4    0    0 -0.17193262990E+03  0.12178839310E+03 -0.66845990909E+02  0.23468770659E+03  0.78845996754E+02 0.  0.
         24    2    4    4    0    0  0.81425214840E+03 -0.25758490182E+03  0.30713463520E+03  0.91142220851E+03  0.83679240050E+02 0.  0.
         11    1    3    3    0    0 -0.59545933621E+03  0.13721736515E+03 -0.10186904022E+04  0.11879101658E+04  0.00000000000E+00 0. -1.
        -11    1    3    3    0    0 -0.46860182288E+02 -0.14208564376E+01 -0.13342129254E+03  0.14141830441E+03  0.00000000000E+00 0.  1.
          2    1    6    6  502    0  0.75790849359E+03 -0.25862663548E+03  0.29725575690E+03  0.85420957982E+03  0.00000000000E+00 0. -1.
          1    1    5    5  503    0 -0.10426995062E+03  0.10015985024E+03 -0.75531353462E+02  0.16312327718E+03  0.00000000000E+00 0. -1.
         -2    1    5    5    0  503 -0.67662679276E+02  0.21628542860E+02  0.86853625531E+01  0.71564429403E+02  0.00000000000E+00 0.  1.
         -1    1    6    6    0  502  0.56343654803E+02  0.10417336619E+01  0.98788782959E+01  0.57212628693E+02  0.00000000000E+00 0.  1.
<mgrwt>
<rscale>  0 0.23013852E+04</rscale>
<asrwt>0</asrwt>
<pdfrwt beam="1">  1        1 0.26055857E+00 0.23013852E+04</pdfrwt>
<pdfrwt beam="2">  1       -1 0.12027810E+00 0.23013852E+04</pdfrwt>
<totfact> 0.26780364E+00</totfact>
</mgrwt>
</event>
<event>
12    1  0.1397649E-007  0.1612161E+04  0.7818608E-02  0.8813111E-01
         -2   -1    0    0    0  501 -0.00000000000E+00  0.00000000000E+00  0.13719410628E+04  0.13719410628E+04  0.00000000000E+00 0.  1.
          2   -1    0    0  501    0  0.00000000000E+00 -0.00000000000E+00 -0.47361083196E+03  0.47361083196E+03  0.00000000000E+00 0. -1.
         23    2    1    2    0    0  0.21767139031E+03  0.31822451942E+03  0.76342723840E+03  0.86005862624E+03  0.90730443135E+02 0.  0.
        254    2    1    2    0    0 -0.21767139031E+03 -0.31822451942E+03  0.13490299242E+03  0.98549326850E+03  0.89685588919E+03 0.  0.
        -24    2    4    4    0    0 -0.30688802436E+03 -0.15320778014E+03  0.47340377363E+03  0.59040669986E+03  0.82559402633E+02 0.  0.
         24    2    4    4    0    0  0.89216634045E+02 -0.16501673929E+03 -0.33850078121E+03  0.39508656864E+03  0.79501483057E+02 0.  0.
         11    1    3    3    0    0  0.17896100906E+03  0.30456907130E+03  0.65620988534E+03  0.74525215570E+03  0.00000000000E+00 0.  1.
        -11    1    3    3    0    0  0.38710381256E+02  0.13655448122E+02  0.10721735305E+03  0.11480647053E+03  0.00000000000E+00 0. -1.
          2    1    6    6  502    0  0.97445754098E+02 -0.16783649700E+03 -0.33049461449E+03  0.38326421034E+03  0.00000000000E+00 0. -1.
          3    1    5    5  503    0 -0.28464021162E+03 -0.11333640946E+03  0.42436354275E+03  0.52340195662E+03  0.00000000000E+00 0. -1.
         -4    1    5    5    0  503 -0.22247812735E+02 -0.39871370680E+02  0.49040230873E+02  0.67004743231E+02  0.00000000000E+00 0.  1.
         -1    1    6    6    0  502 -0.82291200527E+01  0.28197577141E+01 -0.80061667135E+01  0.11822358303E+02  0.00000000000E+00 0.  1.
<mgrwt>
<rscale>  0 0.16121615E+04</rscale>
<asrwt>0</asrwt>
<pdfrwt beam="1">  1        2 0.72863205E-01 0.16121615E+04</pdfrwt>
<pdfrwt beam="2">  1       -2 0.21106785E+00 0.16121615E+04</pdfrwt>
<totfact> 0.70749321E+00</totfact>
</mgrwt>
</event>
<event>
12    1  0.1397649E-007  0.3795520E+04  0.7818608E-02  0.8047117E-01
          2   -1    0    0  501    0  0.00000000000E+00  0.00000000000E+00  0.13986208961E+04  0.13986208961E+04  0.00000000000E+00 0. -1.
         -2   -1    0    0    0  501 -0.00000000000E+00 -0.00000000000E+00 -0.25750310962E+04  0.25750310962E+04  0.00000000000E+00 0.  1.
         23    2    1    2    0    0 -0.68140939958E+03 -0.98450705543E+03  0.83965542728E+03  0.14652341496E+04  0.91197393038E+02 0.  0.
        254    2    1    2    0    0  0.68140939958E+03  0.98450705543E+03 -0.20160656274E+04  0.25084178428E+04  0.89110411723E+03 0.  0.
        -24    2    4    4    0    0  0.68716680774E+03  0.10789951709E+04 -0.20109616599E+04  0.23846075962E+04  0.77186720432E+02 0.  0.
         24    2    4    4    0    0 -0.57574081589E+01 -0.94488115497E+02 -0.51039674941E+01  0.12381024651E+03  0.79635261905E+02 0.  0.
         13    1    3    3    0    0 -0.13091018876E+02 -0.22265114950E+02  0.39001848177E+01  0.26121285584E+02  0.00000000000E+00 0.  1.
        -13    1    3    3    0    0 -0.66831838071E+03 -0.96224194048E+03  0.83575524246E+03  0.14391128640E+04  0.00000000000E+00 0. -1.
          4    1    6    6  502    0  0.25062132057E+02 -0.88386473430E+02  0.63214387888E+00  0.91873166673E+02  0.00000000000E+00 0. -1.
          1    1    5    5  503    0  0.18354919654E+03  0.35397061669E+03 -0.63563925192E+03  0.75034842814E+03  0.00000000000E+00 0. -1.
         -2    1    5    5    0  503  0.50361761120E+03  0.72502455423E+03 -0.13753224080E+04  0.16342591681E+04  0.00000000000E+00 0.  1.
         -3    1    6    6    0  502 -0.30819540216E+02 -0.61016420673E+01 -0.57361113729E+01  0.31937079840E+02  0.00000000000E+00 0.  1.
<mgrwt>
<rscale>  0 0.37955196E+04</rscale>
<asrwt>0</asrwt>
<pdfrwt beam="1">  1        2 0.21517245E+00 0.37955196E+04</pdfrwt>
<pdfrwt beam="2">  1       -2 0.39615862E+00 0.37955196E+04</pdfrwt>
<totfact> 0.91384207E-02</totfact>
</mgrwt>
</event>
<event>
12    1  0.1397649E-007  0.1235368E+04  0.7818608E-02  0.9082450E-01
         -2   -1    0    0    0  501 -0.00000000000E+00  0.00000000000E+00  0.26310900008E+03  0.26310900008E+03  0.00000000000E+00 0.  1.
          2   -1    0    0  501    0  0.00000000000E+00 -0.00000000000E+00 -0.14500978438E+04  0.14500978438E+04  0.00000000000E+00 0. -1.
         23    2    1    2    0    0  0.11567847692E+03  0.21374008896E+03 -0.44185935185E+03  0.51277402946E+03  0.92904159336E+02 0.  0.
        254    2    1    2    0    0 -0.11567847692E+03 -0.21374008896E+03 -0.74512949183E+03  0.12004328144E+04  0.90926049435E+03 0.  0.
        -24    2    4    4    0    0 -0.48826665813E+03 -0.19863905443E+03 -0.57123684955E+03  0.78125638680E+03  0.78665114608E+02 0.  0.
         24    2    4    4    0    0  0.37258818121E+03 -0.15101034528E+02 -0.17389264228E+03  0.41917642757E+03  0.80126352535E+02 0.  0.
         11    1    3    3    0    0  0.77232927461E+02  0.14862642068E+03 -0.20836064398E+03  0.26733667157E+03  0.00000000000E+00 0. -1.
        -11    1    3    3    0    0  0.38445549454E+02  0.65113668279E+02 -0.23349870787E+03  0.24543735788E+03  0.00000000000E+00 0.  1.
          2    1    6    6  502    0  0.10296656548E+03  0.30134304746E+02 -0.37484865096E+02  0.11364552363E+03  0.00000000000E+00 0. -1.
          3    1    5    5  503    0 -0.40971908669E+03 -0.14248017065E+03 -0.43550255865E+03  0.61468106170E+03  0.00000000000E+00 0. -1.
         -4    1    5    5    0  503 -0.78547571435E+02 -0.56158883785E+02 -0.13573429090E+03  0.16657532510E+03  0.00000000000E+00 0.  1.
         -1    1    6    6    0  502  0.26962161573E+03 -0.45235339274E+02 -0.13640777719E+03  0.30553090394E+03  0.00000000000E+00 0.  1.
<mgrwt>
<rscale>  0 0.12353684E+04</rscale>
<asrwt>0</asrwt>
<pdfrwt beam="1">  1        2 0.22309198E+00 0.12353684E+04</pdfrwt>
<pdfrwt beam="2">  1       -2 0.40478307E-01 0.12353684E+04</pdfrwt>
<totfact> 0.77024535E+01</totfact>
</mgrwt>
</event>
<event>
12    1  0.1397649E-007  0.1674323E+04  0.7818608E-02  0.8776146E-01
         -2   -1    0    0    0  501 -0.00000000000E+00  0.00000000000E+00  0.65224311418E+03  0.65224311418E+03  0.00000000000E+00 0.  1.
          2   -1    0    0  501    0  0.00000000000E+00 -0.00000000000E+00 -0.10745059391E+04  0.10745059391E+04  0.00000000000E+00 0. -1.
         23    2    1    2    0    0 -0.19626084758E+03 -0.52831515219E+03  0.17356302226E+02  0.57110914853E+03  0.90714927046E+02 0.  0.
        254    2    1    2    0    0  0.19626084758E+03  0.52831515219E+03 -0.43961912716E+03  0.11556399048E+04  0.90807675456E+03 0.  0.
        -24    2    4    4    0    0  0.74966754631E+02  0.59604168046E+03 -0.65145157487E+03  0.88945932642E+03  0.76570489173E+02 0.  0.
         24    2    4    4    0    0  0.12129409295E+03 -0.67726528272E+02  0.21183244771E+03  0.26618057834E+03  0.81731112592E+02 0.  0.
         11    1    3    3    0    0 -0.10064772994E+03 -0.22955109143E+03 -0.35002863229E+02  0.25307878132E+03  0.00000000000E+00 0. -1.
        -11    1    3    3    0    0 -0.95613117639E+02 -0.29876406075E+03  0.52359165455E+02  0.31803036721E+03  0.00000000000E+00 0.  1.
          2    1    6    6  502    0  0.93790055792E+00  0.11210408933E+02  0.42392557406E+02  0.43859797643E+02  0.00000000000E+00 0. -1.
          1    1    5    5  503    0  0.12318471610E+02  0.28617879538E+02 -0.59016524505E+02  0.66735881928E+02  0.00000000000E+00 0. -1.
         -2    1    5    5    0  503  0.62648283021E+02  0.56742380092E+03 -0.59243505036E+03  0.82272344449E+03  0.00000000000E+00 0.  1.
         -1    1    6    6    0  502  0.12035619239E+03 -0.78936937206E+02  0.16943989030E+03  0.22232078070E+03  0.00000000000E+00 0.  1.
<mgrwt>
<rscale>  0 0.16743227E+04</rscale>
<asrwt>0</asrwt>
<pdfrwt beam="1">  1        2 0.16530861E+00 0.16743227E+04</pdfrwt>
<pdfrwt beam="2">  1       -2 0.10034510E+00 0.16743227E+04</pdfrwt>
<totfact> 0.17653102E+01</totfact>
</mgrwt>
</event>
<event>
12    1  0.1397649E-007  0.1210937E+04  0.7818608E-02  0.9103337E-01
         -1   -1    0    0    0  501 -0.00000000000E+00  0.00000000000E+00  0.17365300209E+03  0.17365300209E+03  0.00000000000E+00 0.  1.
          1   -1    0    0  501    0  0.00000000000E+00 -0.00000000000E+00 -0.21110609628E+04  0.21110609628E+04  0.00000000000E+00 0. -1.
         23    2    1    2    0    0 -0.19268761475E+03  0.16898107768E+03 -0.59392772695E+03  0.65322354605E+03  0.90927084947E+02 0.  0.
        254    2    1    2    0    0  0.19268761475E+03 -0.16898107768E+03 -0.13434802338E+04  0.16314904188E+04  0.88945979493E+03 0.  0.
        -24    2    4    4    0    0 -0.73771204639E+02  0.24952813887E+03 -0.99829526487E+02  0.29022801291E+03  0.80993100942E+02 0.  0.
         24    2    4    4    0    0  0.26645881939E+03 -0.41850921654E+03 -0.12436507073E+04  0.13412624059E+04  0.78533388555E+02 0.  0.
         13    1    3    3    0    0 -0.90183062831E+02  0.99878698876E+02 -0.20585980480E+03  0.24594104689E+03  0.00000000000E+00 0.  1.
        -13    1    3    3    0    0 -0.10250455192E+03  0.69102378802E+02 -0.38806792215E+03  0.40728249916E+03  0.00000000000E+00 0. -1.
          4    1    6    6  502    0  0.13043047725E+03 -0.13542578363E+03 -0.44662259364E+03  0.48458641481E+03  0.00000000000E+00 0. -1.
          1    1    5    5  503    0 -0.31437011311E+02  0.73565394223E+02  0.65955563115E+01  0.80272375512E+02  0.00000000000E+00 0. -1.
         -2    1    5    5    0  503 -0.42334193327E+02  0.17596274464E+03 -0.10642508280E+03  0.20995563740E+03  0.00000000000E+00 0.  1.
         -3    1    6    6    0  502  0.13602834214E+03 -0.28308343291E+03 -0.79702811363E+03  0.85667599112E+03  0.00000000000E+00 0.  1.
<mgrwt>
<rscale>  0 0.12109369E+04</rscale>
<asrwt>0</asrwt>
<pdfrwt beam="1">  1        1 0.32477861E+00 0.12109369E+04</pdfrwt>
<pdfrwt beam="2">  1       -1 0.26715847E-01 0.12109369E+04</pdfrwt>
<totfact> 0.31022317E+01</totfact>
</mgrwt>
</event>
<event>
12    1  0.1397649E-007  0.1404731E+04  0.7818608E-02  0.8950401E-01
         -1   -1    0    0    0  501 -0.00000000000E+00  0.00000000000E+00  0.34166544510E+03  0.34166544510E+03  0.00000000000E+00 0. -1.
          1   -1    0    0  501    0  0.00000000000E+00 -0.00000000000E+00 -0.14438609391E+04  0.14438609391E+04  0.00000000000E+00 0.  1.
         23    2    1    2    0    0  0.30651477993E+03  0.16126169669E+03 -0.60413455179E+03  0.70248563974E+03  0.92470926427E+02 0.  0.
        254    2    1    2    0    0 -0.30651477993E+03 -0.16126169669E+03 -0.49806094216E+03  0.10830407444E+04  0.89719334975E+03 0.  0.
        -24    2    4    4    0    0  0.84920318369E+02  0.30784260076E+03 -0.80921994956E+02  0.33882451057E+03  0.79215859400E+02 0.  0.
         24    2    4    4    0    0 -0.39143509830E+03 -0.46910429745E+03 -0.41713894720E+03  0.74421623385E+03  0.81071717508E+02 0.  0.
         11    1    3    3    0    0  0.30676962420E+03  0.13999978151E+03 -0.56955472035E+03  0.66189132086E+03  0.00000000000E+00 0.  1.
        -11    1    3    3    0    0 -0.25484426685E+00  0.21261915186E+02 -0.34579831438E+02  0.40594318879E+02  0.00000000000E+00 0. -1.
          4    1    6    6  502    0 -0.90249669200E+02 -0.15203552871E+03 -0.14920396868E+03  0.23134742067E+03  0.00000000000E+00 0. -1.
          3    1    5    5  503    0 -0.83428587892E+01  0.10791508258E+03 -0.31790735648E+02  0.11280921600E+03  0.00000000000E+00 0. -1.
         -4    1    5    5    0  503  0.93263177158E+02  0.19992751818E+03 -0.49131259308E+02  0.22601529458E+03  0.00000000000E+00 0.  1.
         -3    1    6    6    0  502 -0.30118542910E+03 -0.31706876874E+03 -0.26793497852E+03  0.51286881317E+03  0.00000000000E+00 0.  1.
<mgrwt>
<rscale>  0 0.14047311E+04</rscale>
<asrwt>0</asrwt>
<pdfrwt beam="1">  1        1 0.22213245E+00 0.14047311E+04</pdfrwt>
<pdfrwt beam="2">  1       -1 0.52563914E-01 0.14047311E+04</pdfrwt>
<totfact> 0.25442325E+01</totfact>
</mgrwt>
</event>
<event>
12    1  0.1397649E-007  0.1286204E+04  0.7818608E-02  0.9040577E-01
          2   -1    0    0  501    0  0.00000000000E+00  0.00000000000E+00  0.14834612914E+04  0.14834612914E+04  0.00000000000E+00 0. -1.
         -2   -1    0    0    0  501 -0.00000000000E+00 -0.00000000000E+00 -0.27879412582E+03  0.27879412582E+03  0.00000000000E+00 0.  1.
         23    2    1    2    0    0  0.27003589347E+03 -0.16221952935E+03  0.36485232036E+03  0.48976616796E+03  0.86712883397E+02 0.  0.
        254    2    1    2    0    0 -0.27003589347E+03  0.16221952935E+03  0.83981484524E+03  0.12724892493E+04  0.90261030117E+03 0.  0.
        -24    2    4    4    0    0  0.50431024294E+02  0.41579491652E+03  0.72235916691E+03  0.83875829221E+03  0.79271722031E+02 0.  0.
         24    2    4    4    0    0 -0.32046691776E+03 -0.25357538717E+03  0.11745567833E+03  0.43373095707E+03  0.85598974245E+02 0.  0.
         11    1    3    3    0    0  0.43156010290E+02 -0.30443024815E+02  0.11906016440E+03  0.13024800087E+03  0.00000000000E+00 0. -1.
        -11    1    3    3    0    0  0.22687988318E+03 -0.13177650454E+03  0.24579215596E+03  0.35951816709E+03  0.00000000000E+00 0.  1.
          4    1    6    6  502    0 -0.15108061365E+03 -0.15780884508E+03  0.30452047534E+02  0.22058175493E+03  0.00000000000E+00 0. -1.
          1    1    5    5  503    0 -0.16471763101E+02  0.18957213789E+03  0.31430293409E+03  0.36741699583E+03  0.00000000000E+00 0. -1.
         -2    1    5    5    0  503  0.66902787395E+02  0.22622277863E+03  0.40805623282E+03  0.47134129638E+03  0.00000000000E+00 0.  1.
         -3    1    6    6    0  502 -0.16938630411E+03 -0.95766542091E+02  0.87003630797E+02  0.21314920215E+03  0.00000000000E+00 0.  1.
<mgrwt>
<rscale>  0 0.12862042E+04</rscale>
<asrwt>0</asrwt>
<pdfrwt beam="1">  1        2 0.22822481E+00 0.12862042E+04</pdfrwt>
<pdfrwt beam="2">  1       -2 0.42891404E-01 0.12862042E+04</pdfrwt>
<totfact> 0.65552552E+01</totfact>
</mgrwt>
</event>
<event>
12    1  0.1397649E-007  0.1390568E+04  0.7818608E-02  0.8960674E-01
         -2   -1    0    0    0  501 -0.00000000000E+00  0.00000000000E+00  0.30906051648E+03  0.30906051648E+03  0.00000000000E+00 0.  1.
          2   -1    0    0  501    0  0.00000000000E+00 -0.00000000000E+00 -0.15641602764E+04  0.15641602764E+04  0.00000000000E+00 0. -1.
         23    2    1    2    0    0 -0.20030686865E+03  0.24648088229E+03 -0.62374971676E+02  0.33474246512E+03  0.85359322251E+02 0.  0.
        254    2    1    2    0    0  0.20030686865E+03 -0.24648088229E+03 -0.11927247882E+04  0.15384783278E+04  0.91839396641E+03 0.  0.
        -24    2    4    4    0    0  0.18200398675E+03 -0.46107313967E+03 -0.12080187149E+04  0.13082451498E+04  0.80512515679E+02 0.  0.
         24    2    4    4    0    0  0.18302881902E+02  0.21459225738E+03  0.15293926655E+02  0.23023317794E+03  0.79928590739E+02 0.  0.
         11    1    3    3    0    0 -0.20623842189E+03  0.22290383145E+03 -0.64100442468E+02  0.31036957239E+03  0.00000000000E+00 0.  1.
        -11    1    3    3    0    0  0.59315532433E+01  0.23577050847E+02  0.17254707917E+01  0.24372892729E+02  0.00000000000E+00 0. -1.
          4    1    6    6  502    0 -0.91920189333E+01  0.19664226893E+03  0.14454004374E+02  0.19738691290E+03  0.00000000000E+00 0. -1.
          1    1    5    5  503    0  0.18472070121E+03 -0.45694334773E+03 -0.11653398914E+04  0.12652810055E+04  0.00000000000E+00 0. -1.
         -2    1    5    5    0  503 -0.27167144629E+01 -0.41297919380E+01 -0.42678823511E+02  0.42964144297E+02  0.00000000000E+00 0.  1.
         -3    1    6    6    0  502  0.27494900835E+02  0.17949988444E+02  0.83992228085E+00  0.32846265031E+02  0.00000000000E+00 0.  1.
<mgrwt>
<rscale>  0 0.13905685E+04</rscale>
<asrwt>0</asrwt>
<pdfrwt beam="1">  1        2 0.24064004E+00 0.13905685E+04</pdfrwt>
<pdfrwt beam="2">  1       -2 0.47547772E-01 0.13905685E+04</pdfrwt>
<totfact> 0.47673709E+01</totfact>
</mgrwt>
</event>
<event>
12    1  0.1397649E-007  0.4661898E+04  0.7818608E-02  0.7882890E-01
         -2   -1    0    0    0  501 -0.00000000000E+00  0.00000000000E+00  0.15554451522E+04  0.15554451522E+04  0.00000000000E+00 0.  1.
          2   -1    0    0  501    0  0.00000000000E+00 -0.00000000000E+00 -0.34930988169E+04  0.34930988169E+04  0.00000000000E+00 0. -1.
         23    2    1    2    0    0 -0.19005820130E+04  0.29327478460E+03  0.32010275997E+03  0.19517670237E+04  0.93309434525E+02 0.  0.
        254    2    1    2    0    0  0.19005820130E+04 -0.29327478460E+03 -0.22577564247E+04  0.30967769454E+04  0.89125826176E+03 0.  0.
        -24    2    4    4    0    0  0.12990752290E+04 -0.59506241272E+03 -0.16711482514E+04  0.22004793555E+04  0.87619578363E+02 0.  0.
         24    2    4    4    0    0  0.60150678401E+03  0.30178762812E+03 -0.58660817333E+03  0.89629758990E+03  0.79712213307E+02 0.  0.
         11    1    3    3    0    0 -0.16920479553E+04  0.27568897053E+03  0.31065723567E+03  0.17422797163E+04  0.00000000000E+00 0.  1.
        -11    1    3    3    0    0 -0.20853405763E+03  0.17585814072E+02  0.94455243038E+01  0.20948730744E+03  0.00000000000E+00 0. -1.
          4    1    6    6  502    0  0.11961548014E+03  0.49741379819E+02 -0.75242464597E+02  0.14981153638E+03  0.00000000000E+00 0. -1.
          1    1    5    5  503    0  0.52242315477E+03 -0.24401476658E+03 -0.60919921300E+03  0.83880441109E+03  0.00000000000E+00 0. -1.
         -2    1    5    5    0  503  0.77665207420E+03 -0.35104764614E+03 -0.10619490384E+04  0.13616749444E+04  0.00000000000E+00 0.  1.
         -3    1    6    6    0  502  0.48189130387E+03  0.25204624830E+03 -0.51136570873E+03  0.74648605352E+03  0.00000000000E+00 0.  1.
<mgrwt>
<rscale>  0 0.46618982E+04</rscale>
<asrwt>0</asrwt>
<pdfrwt beam="1">  1        2 0.53739981E+00 0.46618982E+04</pdfrwt>
<pdfrwt beam="2">  1       -2 0.23929926E+00 0.46618982E+04</pdfrwt>
<totfact> 0.45911676E-02</totfact>
</mgrwt>
</event>
<event>
12    1  0.1397649E-007  0.1270267E+04  0.7818608E-02  0.9053482E-01
          2   -1    0    0  501    0  0.00000000000E+00  0.00000000000E+00  0.83855178636E+03  0.83855178636E+03  0.00000000000E+00 0. -1.
         -2   -1    0    0    0  501 -0.00000000000E+00 -0.00000000000E+00 -0.48106123547E+03  0.48106123547E+03  0.00000000000E+00 0.  1.
         23    2    1    2    0    0  0.34878955025E+02 -0.20527072007E+03  0.25486336851E+03  0.34207618828E+03  0.93317586543E+02 0.  0.
        254    2    1    2    0    0 -0.34878955025E+02  0.20527072007E+03  0.10262718237E+03  0.97753683355E+03  0.94957533264E+03 0.  0.
        -24    2    4    4    0    0  0.14752663916E+02 -0.76993300943E+02 -0.38777671516E+03  0.40420660905E+03  0.82864905073E+02 0.  0.
         24    2    4    4    0    0 -0.49631618941E+02  0.28226402101E+03  0.49040389753E+03  0.57333022450E+03  0.77944136779E+02 0.  0.
         13    1    3    3    0    0  0.60471054226E+02 -0.18726802170E+03  0.22311736250E+03  0.29750196268E+03  0.00000000000E+00 0. -1.
        -13    1    3    3    0    0 -0.25592099200E+02 -0.18002698368E+02  0.31746006014E+02  0.44574225600E+02  0.00000000000E+00 0.  1.
          2    1    6    6  502    0  0.11057971186E+02  0.23487314090E+02  0.82332596291E+02  0.86328379238E+02  0.00000000000E+00 0. -1.
          3    1    5    5  503    0  0.30573046907E+01 -0.40623826439E+02 -0.51017298910E+02  0.65287113388E+02  0.00000000000E+00 0. -1.
         -4    1    5    5    0  503  0.11695359225E+02 -0.36369474504E+02 -0.33675941625E+03  0.33891949566E+03  0.00000000000E+00 0.  1.
         -1    1    6    6    0  502 -0.60689590128E+02  0.25877670692E+03  0.40807130124E+03  0.48700184527E+03  0.00000000000E+00 0.  1.
<mgrwt>
<rscale>  0 0.12702673E+04</rscale>
<asrwt>0</asrwt>
<pdfrwt beam="1">  1        2 0.12900797E+00 0.12702673E+04</pdfrwt>
<pdfrwt beam="2">  1       -2 0.74009421E-01 0.12702673E+04</pdfrwt>
<totfact> 0.52243271E+01</totfact>
</mgrwt>
</event>
<event>
12    1  0.1397649E-007  0.2001346E+04  0.7818608E-02  0.8605991E-01
         -1   -1    0    0    0  501 -0.00000000000E+00  0.00000000000E+00  0.90899408477E+03  0.90899408477E+03  0.00000000000E+00 0.  1.
          1   -1    0    0  501    0  0.00000000000E+00 -0.00000000000E+00 -0.11015987673E+04  0.11015987673E+04  0.00000000000E+00 0. -1.
         23    2    1    2    0    0 -0.61745618980E+02 -0.38660042710E+03  0.60621753963E+03  0.72732432973E+03  0.90711430213E+02 0.  0.
        254    2    1    2    0    0  0.61745618980E+02  0.38660042710E+03 -0.79882222212E+03  0.12832685223E+04  0.92487228637E+03 0.  0.
        -24    2    4    4    0    0  0.32744337145E+03  0.56694373592E+03 -0.62727104202E+03  0.91057921313E+03  0.83911751463E+02 0.  0.
         24    2    4    4    0    0 -0.26569775247E+03 -0.18034330882E+03 -0.17155118010E+03  0.37268930917E+03  0.79677531825E+02 0.  0.
         11    1    3    3    0    0 -0.61425948040E+02 -0.36078387733E+03  0.59633095495E+03  0.69967761223E+03  0.00000000000E+00 0.  1.
        -11    1    3    3    0    0 -0.31967094017E+00 -0.25816549776E+02  0.98865846767E+01  0.27646717498E+02  0.00000000000E+00 0. -1.
          2    1    6    6  502    0 -0.11481939357E+03 -0.99019647807E+02 -0.12102236056E+03  0.19399689572E+03  0.00000000000E+00 0. -1.
          1    1    5    5  503    0  0.31288291300E+03  0.56360197346E+03 -0.61792149261E+03  0.89295569474E+03  0.00000000000E+00 0. -1.
         -2    1    5    5    0  503  0.14560458443E+02  0.33417624561E+01 -0.93495494065E+01  0.17623518391E+02  0.00000000000E+00 0.  1.
         -1    1    6    6    0  502 -0.15087835890E+03 -0.81323661009E+02 -0.50528819539E+02  0.17869241346E+03  0.00000000000E+00 0.  1.
<mgrwt>
<rscale>  0 0.20013463E+04</rscale>
<asrwt>0</asrwt>
<pdfrwt beam="1">  1        1 0.16947673E+00 0.20013463E+04</pdfrwt>
<pdfrwt beam="2">  1       -1 0.13984524E+00 0.20013463E+04</pdfrwt>
<totfact> 0.49304323E+00</totfact>
</mgrwt>
</event>
<event>
12    1  0.1397649E-007  0.1542561E+04  0.7818608E-02  0.8856633E-01
          1   -1    0    0  501    0  0.00000000000E+00  0.00000000000E+00  0.29781946247E+03  0.29781946247E+03  0.00000000000E+00 0. -1.
         -1   -1    0    0    0  501 -0.00000000000E+00 -0.00000000000E+00 -0.19974309179E+04  0.19974309179E+04  0.00000000000E+00 0.  1.
         23    2    1    2    0    0 -0.26118157923E+03 -0.22327760416E+03 -0.11300629897E+04  0.11847202970E+04  0.91929949907E+02 0.  0.
        254    2    1    2    0    0  0.26118157923E+03  0.22327760416E+03 -0.56954846571E+03  0.11105300833E+04  0.88928224162E+03 0.  0.
        -24    2    4    4    0    0 -0.14686524656E+03 -0.24566185055E+03 -0.60939361650E+02  0.30338258807E+03  0.80051505161E+02 0.  0.
         24    2    4    4    0    0  0.40804682579E+03  0.46893945472E+03 -0.50860910406E+03  0.80714749523E+03  0.79983961472E+02 0.  0.
         11    1    3    3    0    0 -0.50540239942E+02 -0.40693677630E+01 -0.19464890621E+03  0.20114440658E+03  0.00000000000E+00 0. -1.
        -11    1    3    3    0    0 -0.21064133928E+03 -0.21920823640E+03 -0.93541408346E+03  0.98357589045E+03  0.00000000000E+00 0.  1.
          2    1    6    6  502    0  0.57351664961E+02  0.65645029107E+02 -0.11037970069E+03  0.14064907267E+03  0.00000000000E+00 0. -1.
          1    1    5    5  503    0 -0.37859249151E+02 -0.98687175590E+02  0.12033713475E+02  0.10638276003E+03  0.00000000000E+00 0. -1.
         -2    1    5    5    0  503 -0.10900599741E+03 -0.14697467496E+03 -0.72973075125E+02  0.19699982803E+03  0.00000000000E+00 0.  1.
         -1    1    6    6    0  502  0.35069516083E+03  0.40329442561E+03 -0.39822940337E+03  0.66649842255E+03  0.00000000000E+00 0.  1.
<mgrwt>
<rscale>  0 0.15425612E+04</rscale>
<asrwt>0</asrwt>
<pdfrwt beam="1">  1        1 0.45818381E-01 0.15425612E+04</pdfrwt>
<pdfrwt beam="2">  1       -1 0.30729705E+00 0.15425612E+04</pdfrwt>
<totfact> 0.25333726E+00</totfact>
</mgrwt>
</event>
<event>
12    1  0.1397649E-007  0.1315926E+04  0.7818608E-02  0.9017031E-01
         -2   -1    0    0    0  501 -0.00000000000E+00  0.00000000000E+00  0.33456567877E+03  0.33456567877E+03  0.00000000000E+00 0.  1.
          2   -1    0    0  501    0  0.00000000000E+00 -0.00000000000E+00 -0.12939611823E+04  0.12939611823E+04  0.00000000000E+00 0. -1.
         23    2    1    2    0    0 -0.21094331529E+03  0.37685723000E+02  0.93203920185E+02  0.25076342068E+03  0.90983660232E+02 0.  0.
        254    2    1    2    0    0  0.21094331529E+03 -0.37685723000E+02 -0.10525994237E+04  0.13777634404E+04  0.86275677621E+03 0.  0.
        -24    2    4    4    0    0  0.12949581121E+03 -0.39154848137E+03 -0.23884334020E+03  0.48322630382E+03  0.79888304291E+02 0.  0.
         24    2    4    4    0    0  0.81447504082E+02  0.35386275836E+03 -0.81375608350E+03  0.89453713657E+03  0.78391183071E+02 0.  0.
         13    1    3    3    0    0 -0.11214212743E+03  0.12379773879E+02  0.96874254255E+02  0.14870688176E+03  0.00000000000E+00 0. -1.
        -13    1    3    3    0    0 -0.98801187861E+02  0.25305949121E+02 -0.36703340704E+01  0.10205653892E+03  0.00000000000E+00 0.  1.
          4    1    6    6  502    0  0.69215823680E+02  0.13189035999E+03 -0.34173159530E+03  0.37278194770E+03  0.00000000000E+00 0. -1.
          1    1    5    5  503    0  0.15777117482E+02 -0.12131065012E+03 -0.10377701463E+03  0.16042088403E+03  0.00000000000E+00 0. -1.
         -2    1    5    5    0  503  0.11371869373E+03 -0.27023783125E+03 -0.13506632557E+03  0.32280541979E+03  0.00000000000E+00 0.  1.
         -3    1    6    6    0  502  0.12231680402E+02  0.22197239838E+03 -0.47202448820E+03  0.52175518886E+03  0.00000000000E+00 0.  1.
<mgrwt>
<rscale>  0 0.13159255E+04</rscale>
<asrwt>0</asrwt>
<pdfrwt beam="1">  1        2 0.19907095E+00 0.13159255E+04</pdfrwt>
<pdfrwt beam="2">  1       -2 0.51471642E-01 0.13159255E+04</pdfrwt>
<totfact> 0.58174820E+01</totfact>
</mgrwt>
</event>
<event>
12    1  0.1397649E-007  0.1526781E+04  0.7818608E-02  0.8866837E-01
          2   -1    0    0  501    0  0.00000000000E+00  0.00000000000E+00  0.13461371064E+04  0.13461371064E+04  0.00000000000E+00 0. -1.
         -2   -1    0    0    0  501 -0.00000000000E+00 -0.00000000000E+00 -0.43291666996E+03  0.43291666996E+03  0.00000000000E+00 0.  1.
         23    2    1    2    0    0  0.45708811486E+03  0.21298661199E+02  0.52444320069E+03  0.70228662419E+03  0.93715815439E+02 0.  0.
        254    2    1    2    0    0 -0.45708811486E+03 -0.21298661199E+02  0.38877723573E+03  0.10767671521E+04  0.89381014941E+03 0.  0.
        -24    2    4    4    0    0 -0.32734804062E+02  0.19986035733E+03  0.52888020529E+03  0.57204596165E+03  0.80663379987E+02 0.  0.
         24    2    4    4    0    0 -0.42435331079E+03 -0.22115901853E+03 -0.14010296956E+03  0.50472119048E+03  0.78278951096E+02 0.  0.
         11    1    3    3    0    0  0.16036096076E+02  0.15003298963E+02  0.86443774339E+01  0.23600436825E+02  0.00000000000E+00 0.  1.
        -11    1    3    3    0    0  0.44105201878E+03  0.62953622359E+01  0.51579882325E+03  0.67868618737E+03  0.00000000000E+00 0. -1.
          4    1    6    6  502    0 -0.26730661265E+03 -0.12215885488E+03 -0.49103440334E+02  0.29797107049E+03  0.00000000000E+00 0. -1.
          1    1    5    5  503    0  0.14363832885E+02  0.89568597659E+01  0.18379078636E+02  0.24986707737E+02  0.00000000000E+00 0. -1.
         -2    1    5    5    0  503 -0.47098636947E+02  0.19090349756E+03  0.51050112665E+03  0.54705925392E+03  0.00000000000E+00 0.  1.
         -3    1    6    6    0  502 -0.15704669814E+03 -0.99000163651E+02 -0.90999529227E+02  0.20675012000E+03  0.00000000000E+00 0.  1.
<mgrwt>
<rscale>  0 0.15267812E+04</rscale>
<asrwt>0</asrwt>
<pdfrwt beam="1">  1        2 0.20709801E+00 0.15267812E+04</pdfrwt>
<pdfrwt beam="2">  1       -2 0.66602565E-01 0.15267812E+04</pdfrwt>
<totfact> 0.31040784E+01</totfact>
</mgrwt>
</event>
<event>
12    1  0.1397649E-007  0.1545539E+04  0.7818608E-02  0.8854722E-01
          1   -1    0    0  501    0  0.00000000000E+00  0.00000000000E+00  0.62182556323E+03  0.62182556323E+03  0.00000000000E+00 0. -1.
         -1   -1    0    0    0  501 -0.00000000000E+00 -0.00000000000E+00 -0.96035416532E+03  0.96035416532E+03  0.00000000000E+00 0.  1.
         23    2    1    2    0    0  0.26945648269E+03  0.52313564429E+02 -0.54260412987E+03  0.62102698580E+03  0.12614186559E+03 0.  0.
        254    2    1    2    0    0 -0.26945648269E+03 -0.52313564429E+02  0.20407552778E+03  0.96115274275E+03  0.89823397218E+03 0.  0.
        -24    2    4    4    0    0 -0.48438857150E+03  0.35671739071E+02  0.40996454463E+03  0.64058280193E+03  0.79816270888E+02 0.  0.
         24    2    4    4    0    0  0.21493208881E+03 -0.87985303500E+02 -0.20588901685E+03  0.32056994083E+03  0.80234551588E+02 0.  0.
         11    1    3    3    0    0  0.58308658033E+02  0.42450290046E+02 -0.58778250239E+02  0.93041976697E+02  0.00000000000E+00 0.  1.
        -11    1    3    3    0    0  0.21114782466E+03  0.98632743834E+01 -0.48382587963E+03  0.52798500910E+03  0.00000000000E+00 0. -1.
          2    1    6    6  502    0  0.71264992148E+02  0.49600987417E+01 -0.38286935110E+02  0.81050546485E+02  0.00000000000E+00 0. -1.
          1    1    5    5  503    0  0.12876483848E+01 -0.33396311109E+00 -0.22009201725E+01  0.25716958079E+01  0.00000000000E+00 0. -1.
         -4    1    5    5    0  503 -0.48567621989E+03  0.36005702182E+02  0.41216546480E+03  0.63801110612E+03  0.00000000000E+00 0.  1.
         -1    1    6    6    0  502  0.14366709666E+03 -0.92945402242E+02 -0.16760208174E+03  0.23951939434E+03  0.00000000000E+00 0.  1.
<mgrwt>
<rscale>  0 0.15455391E+04</rscale>
<asrwt>0</asrwt>
<pdfrwt beam="1">  1        1 0.95665472E-01 0.15455391E+04</pdfrwt>
<pdfrwt beam="2">  1       -1 0.14774679E+00 0.15455391E+04</pdfrwt>
<totfact> 0.11388356E+01</totfact>
</mgrwt>
</event>
<event>
12    1  0.1397649E-007  0.1819243E+04  0.7818608E-02  0.8696133E-01
         -1   -1    0    0    0  501 -0.00000000000E+00  0.00000000000E+00  0.16301095483E+04  0.16301095483E+04  0.00000000000E+00 0.  1.
          1   -1    0    0  501    0  0.00000000000E+00 -0.00000000000E+00 -0.50758017836E+03  0.50758017836E+03  0.00000000000E+00 0. -1.
         23    2    1    2    0    0 -0.62934823897E+03  0.14941128848E+02  0.11163476273E+03  0.64540983006E+03  0.88255794519E+02 0.  0.
        254    2    1    2    0    0  0.62934823897E+03 -0.14941128848E+02  0.10108946072E+04  0.14922798966E+04  0.89927133819E+03 0.  0.
        -24    2    4    4    0    0  0.34751546734E+03 -0.20249970422E+03  0.10637957571E+04  0.11399487264E+04  0.77772461326E+02 0.  0.
         24    2    4    4    0    0  0.28183277163E+03  0.18755857538E+03 -0.52901149856E+02  0.35233117023E+03  0.82041401117E+02 0.  0.
         13    1    3    3    0    0 -0.66146412652E+02 -0.42899830188E+01  0.39809128422E+02  0.77320880535E+02  0.00000000000E+00 0.  1.
        -13    1    3    3    0    0 -0.56320182631E+03  0.19231111867E+02  0.71825634306E+02  0.56808894952E+03  0.00000000000E+00 0. -1.
          2    1    6    6  502    0  0.15367315083E+03  0.53649259850E+02 -0.18590228640E+02  0.16382697266E+03  0.00000000000E+00 0. -1.
          1    1    5    5  503    0  0.13398622382E+03 -0.11672529488E+03  0.51778505813E+03  0.54742896257E+03  0.00000000000E+00 0. -1.
         -2    1    5    5    0  503  0.21352924352E+03 -0.85774409347E+02  0.54601069896E+03  0.59251976382E+03  0.00000000000E+00 0.  1.
         -1    1    6    6    0  502  0.12815962080E+03  0.13390931553E+03 -0.34310921217E+02  0.18850419757E+03  0.00000000000E+00 0.  1.
<mgrwt>
<rscale>  0 0.18192430E+04</rscale>
<asrwt>0</asrwt>
<pdfrwt beam="1">  1        1 0.78089259E-01 0.18192430E+04</pdfrwt>
<pdfrwt beam="2">  1       -1 0.25078608E+00 0.18192430E+04</pdfrwt>
<totfact> 0.28177673E+00</totfact>
</mgrwt>
</event>
<event>
12    1  0.1397649E-007  0.1635154E+04  0.7818608E-02  0.8799238E-01
         -1   -1    0    0    0  501 -0.00000000000E+00  0.00000000000E+00  0.49366671339E+03  0.49366671339E+03  0.00000000000E+00 0.  1.
          1   -1    0    0  501    0  0.00000000000E+00 -0.00000000000E+00 -0.13540143185E+04  0.13540143185E+04  0.00000000000E+00 0. -1.
         23    2    1    2    0    0  0.17915206457E+03 -0.54049284958E+03 -0.38669662429E+03  0.69426983696E+03  0.90820397362E+02 0.  0.
        254    2    1    2    0    0 -0.17915206457E+03  0.54049284958E+03 -0.47365098079E+03  0.11534111949E+04  0.88418558585E+03 0.  0.
        -24    2    4    4    0    0  0.67361659592E+02 -0.18382267588E+03 -0.29611351411E+03  0.36394169623E+03  0.80261919152E+02 0.  0.
         24    2    4    4    0    0 -0.24651372416E+03  0.72431552546E+03 -0.17753746668E+03  0.78946949867E+03  0.79627511755E+02 0.  0.
         11    1    3    3    0    0  0.13204032892E+03 -0.35458440102E+03 -0.30421103635E+03  0.48549881621E+03  0.00000000000E+00 0. -1.
        -11    1    3    3    0    0  0.47111735648E+02 -0.18590844856E+03 -0.82485587942E+02  0.20877102074E+03  0.00000000000E+00 0.  1.
          4    1    6    6  502    0 -0.86061856605E+02  0.37390603283E+03 -0.80336181911E+02  0.39200289115E+03  0.00000000000E+00 0. -1.
          1    1    5    5  503    0 -0.11174976691E+02 -0.82807717113E+02 -0.11215844341E+03  0.13986248441E+03  0.00000000000E+00 0. -1.
         -2    1    5    5    0  503  0.78536636283E+02 -0.10101495877E+03 -0.18395507070E+03  0.22407921182E+03  0.00000000000E+00 0.  1.
         -3    1    6    6    0  502 -0.16045186756E+03  0.35040949264E+03 -0.97201284769E+02  0.39746660752E+03  0.00000000000E+00 0.  1.
<mgrwt>
<rscale>  0 0.16351536E+04</rscale>
<asrwt>0</asrwt>
<pdfrwt beam="1">  1        1 0.20830989E+00 0.16351536E+04</pdfrwt>
<pdfrwt beam="2">  1       -1 0.75948727E-01 0.16351536E+04</pdfrwt>
<totfact> 0.13793406E+01</totfact>
</mgrwt>
</event>
<event>
12    1  0.1397649E-007  0.1048677E+04  0.7818608E-02  0.9256711E-01
         -3   -1    0    0    0  501 -0.00000000000E+00  0.00000000000E+00  0.23922529291E+04  0.23922529291E+04  0.00000000000E+00 0.  1.
          3   -1    0    0  501    0  0.00000000000E+00 -0.00000000000E+00 -0.11492542193E+03  0.11492542193E+03  0.00000000000E+00 0. -1.
         23    2    1    2    0    0  0.56019948612E+02 -0.13848541639E+02  0.89535639975E+02  0.14035518663E+03  0.91394369848E+02 0.  0.
        254    2    1    2    0    0 -0.56019948612E+02  0.13848541639E+02  0.21877918672E+04  0.23668231644E+04  0.90115959777E+03 0.  0.
        -24    2    4    4    0    0  0.39010674694E+03 -0.61740021431E+02  0.67737978973E+03  0.78806236342E+03  0.78764235940E+02 0.  0.
         24    2    4    4    0    0 -0.44612669555E+03  0.75588563070E+02  0.15104120774E+04  0.15787608010E+04  0.79989771916E+02 0.  0.
         13    1    3    3    0    0  0.33348882621E+02  0.37158482443E+02  0.56884227408E+02  0.75688282563E+02  0.00000000000E+00 0.  1.
        -13    1    3    3    0    0  0.22671065991E+02 -0.51007024082E+02  0.32651412567E+02  0.64666904066E+02  0.00000000000E+00 0. -1.
          4    1    6    6  502    0 -0.28384790901E+03  0.34424760283E+02  0.82296045112E+03  0.87121673749E+03  0.00000000000E+00 0. -1.
          3    1    5    5  503    0  0.23271326238E+03 -0.32442846733E+01  0.43250175774E+03  0.49114535355E+03  0.00000000000E+00 0. -1.
         -4    1    5    5    0  503  0.15739348456E+03 -0.58495736758E+02  0.24487803199E+03  0.29691700987E+03  0.00000000000E+00 0.  1.
         -3    1    6    6    0  502 -0.16227878654E+03  0.41163802787E+02  0.68745162631E+03  0.70754406346E+03  0.00000000000E+00 0.  1.
<mgrwt>
<rscale>  0 0.10486766E+04</rscale>
<asrwt>0</asrwt>
<pdfrwt beam="1">  1        3 0.17680836E-01 0.10486766E+04</pdfrwt>
<pdfrwt beam="2">  1       -3 0.36803887E+00 0.10486766E+04</pdfrwt>
<totfact> 0.12157459E+00</totfact>
</mgrwt>
</event>
<event>
12    1  0.1397649E-007  0.1292113E+04  0.7818608E-02  0.9035843E-01
          2   -1    0    0  501    0  0.00000000000E+00  0.00000000000E+00  0.19087969083E+04  0.19087969083E+04  0.00000000000E+00 0. -1.
         -2   -1    0    0    0  501 -0.00000000000E+00 -0.00000000000E+00 -0.21866605712E+03  0.21866605712E+03  0.00000000000E+00 0.  1.
         23    2    1    2    0    0 -0.33976951852E+02 -0.97243925575E+02  0.94501629833E+03  0.95486920408E+03  0.90047645542E+02 0.  0.
        254    2    1    2    0    0  0.33976951852E+02  0.97243925575E+02  0.74511455283E+03  0.11725937613E+04  0.89953855832E+03 0.  0.
        -24    2    4    4    0    0  0.43551860216E+03  0.11321283486E+02  0.56262844275E+03  0.71619423167E+03  0.81109731813E+02 0.  0.
         24    2    4    4    0    0 -0.40154165031E+03  0.85922642088E+02  0.18248611008E+03  0.45639952965E+03  0.79880867113E+02 0.  0.
         11    1    3    3    0    0 -0.35269341993E+02 -0.78708187426E+01  0.12879824866E+03  0.13377169032E+03  0.00000000000E+00 0.  1.
        -11    1    3    3    0    0  0.12923901403E+01 -0.89373106832E+02  0.81621804967E+03  0.82109751376E+03  0.00000000000E+00 0. -1.
          4    1    6    6  502    0 -0.34898232335E+03  0.78729884629E+02  0.18603444334E+03  0.40323178304E+03  0.00000000000E+00 0. -1.
          1    1    5    5  503    0  0.43500965531E+03  0.13816969404E+02  0.54063447487E+03  0.69405327193E+03  0.00000000000E+00 0. -1.
         -2    1    5    5    0  503  0.50894685154E+00 -0.24956859174E+01  0.21993967879E+02  0.22140959739E+02  0.00000000000E+00 0.  1.
         -3    1    6    6    0  502 -0.52559326959E+02  0.71927574591E+01 -0.35483332562E+01  0.53167746606E+02  0.00000000000E+00 0.  1.
<mgrwt>
<rscale>  0 0.12921131E+04</rscale>
<asrwt>0</asrwt>
<pdfrwt beam="1">  1        2 0.29366105E+00 0.12921131E+04</pdfrwt>
<pdfrwt beam="2">  1       -2 0.33640933E-01 0.12921131E+04</pdfrwt>
<totfact> 0.60872674E+01</totfact>
</mgrwt>
</event>
<event>
12    1  0.1397649E-007  0.2095896E+04  0.7818608E-02  0.8563053E-01
          1   -1    0    0  501    0  0.00000000000E+00  0.00000000000E+00  0.11428568412E+04  0.11428568412E+04  0.00000000000E+00 0. -1.
         -1   -1    0    0    0  501 -0.00000000000E+00 -0.00000000000E+00 -0.96092101562E+03  0.96092101562E+03  0.00000000000E+00 0.  1.
         23    2    1    2    0    0 -0.35777916198E+03  0.54868391794E+03  0.63241987178E+03  0.91508455554E+03  0.91459712495E+02 0.  0.
        254    2    1    2    0    0  0.35777916198E+03 -0.54868391794E+03 -0.45048404625E+03  0.11886933012E+04  0.88373973426E+03 0.  0.
        -24    2    4    4    0    0  0.18937731042E+03 -0.61614125447E+03 -0.64197869825E+03  0.91319307746E+03  0.79316685230E+02 0.  0.
         24    2    4    4    0    0  0.16840185156E+03  0.67457336528E+02  0.19149465199E+03  0.27550022377E+03  0.79501545261E+02 0.  0.
         11    1    3    3    0    0 -0.14776657018E+03  0.20179203164E+03  0.30112545932E+03  0.39144798575E+03  0.00000000000E+00 0.  1.
        -11    1    3    3    0    0 -0.21001259180E+03  0.34689188629E+03  0.33129441247E+03  0.52363656979E+03  0.00000000000E+00 0. -1.
          2    1    6    6  502    0  0.83829653364E+02  0.42228210977E+02  0.15237005325E+03  0.17896163196E+03  0.00000000000E+00 0. -1.
          1    1    5    5  503    0  0.12323821127E+03 -0.34065997325E+03 -0.40920776378E+03  0.54652343777E+03  0.00000000000E+00 0. -1.
         -2    1    5    5    0  503  0.66139099154E+02 -0.27548128122E+03 -0.23277093447E+03  0.36666963969E+03  0.00000000000E+00 0.  1.
         -1    1    6    6    0  502  0.84572198192E+02  0.25229125551E+02  0.39124598742E+02  0.96538591816E+02  0.00000000000E+00 0.  1.
<mgrwt>
<rscale>  0 0.20958961E+04</rscale>
<asrwt>0</asrwt>
<pdfrwt beam="1">  1        1 0.17582413E+00 0.20958961E+04</pdfrwt>
<pdfrwt beam="2">  1       -1 0.14783400E+00 0.20958961E+04</pdfrwt>
<totfact> 0.39310196E+00</totfact>
</mgrwt>
</event>
<event>
12    1  0.1397649E-007  0.1588706E+04  0.7818608E-02  0.8827517E-01
          2   -1    0    0  501    0  0.00000000000E+00  0.00000000000E+00  0.27093555275E+04  0.27093555275E+04  0.00000000000E+00 0. -1.
         -2   -1    0    0    0  501 -0.00000000000E+00 -0.00000000000E+00 -0.23289542124E+03  0.23289542124E+03  0.00000000000E+00 0.  1.
         23    2    1    2    0    0 -0.54692281731E+02  0.24329286199E+03  0.16924855551E+04  0.17127198361E+04  0.81970852266E+02 0.  0.
        254    2    1    2    0    0  0.54692281731E+02 -0.24329286199E+03  0.78397455122E+03  0.12295311126E+04  0.91375488923E+03 0.  0.
        -24    2    4    4    0    0  0.22524754630E+03 -0.28143227943E+03 -0.50908591360E+02  0.37279191713E+03  0.80259228669E+02 0.  0.
         24    2    4    4    0    0 -0.17055526457E+03  0.38139417440E+02  0.83488314258E+03  0.85673919550E+03  0.80177764378E+02 0.  0.
         11    1    3    3    0    0 -0.53532840279E+02  0.12409052019E+03  0.68483067849E+03  0.69803816542E+03  0.00000000000E+00 0. -1.
        -11    1    3    3    0    0 -0.11594414519E+01  0.11920234180E+03  0.10076548766E+04  0.10146816707E+04  0.00000000000E+00 0.  1.
          4    1    6    6  502    0 -0.12953971586E+03  0.63184721114E+02  0.63762607139E+03  0.65371236326E+03  0.00000000000E+00 0. -1.
          3    1    5    5  503    0  0.96802042262E+02 -0.17466928403E+03 -0.57952545327E+01  0.19978383104E+03  0.00000000000E+00 0. -1.
         -4    1    5    5    0  503  0.12844550404E+03 -0.10676299540E+03 -0.45113336828E+02  0.17300808609E+03  0.00000000000E+00 0.  1.
         -3    1    6    6    0  502 -0.41015548709E+02 -0.25045303674E+02  0.19725707120E+03  0.20302683224E+03  0.00000000000E+00 0.  1.
<mgrwt>
<rscale>  0 0.15887058E+04</rscale>
<asrwt>0</asrwt>
<pdfrwt beam="1">  1        2 0.41682391E+00 0.15887058E+04</pdfrwt>
<pdfrwt beam="2">  1       -2 0.35830067E-01 0.15887058E+04</pdfrwt>
<totfact> 0.18493966E+01</totfact>
</mgrwt>
</event>
<event>
12    1  0.1397649E-007  0.1330428E+04  0.7818608E-02  0.9005778E-01
          1   -1    0    0  501    0  0.00000000000E+00  0.00000000000E+00  0.33310474612E+03  0.33310474612E+03  0.00000000000E+00 0. -1.
         -1   -1    0    0    0  501 -0.00000000000E+00 -0.00000000000E+00 -0.13284396655E+04  0.13284396655E+04  0.00000000000E+00 0.  1.
         23    2    1    2    0    0 -0.11124444570E+03  0.13846118038E+03  0.10799752382E+03  0.22730497715E+03  0.91963374869E+02 0.  0.
        254    2    1    2    0    0  0.11124444570E+03 -0.13846118038E+03 -0.11033324432E+04  0.14342394345E+04  0.89897355355E+03 0.  0.
        -24    2    4    4    0    0  0.11303173349E+03  0.70840112060E+02  0.11632657692E+03  0.19414969872E+03  0.79798112541E+02 0.  0.
         24    2    4    4    0    0 -0.17872877874E+01 -0.20930129244E+03 -0.12196590201E+04  0.12400897357E+04  0.80275786700E+02 0.  0.
         13    1    3    3    0    0 -0.21590697765E+02  0.74093955264E+02  0.66455267146E+01  0.77461186810E+02  0.00000000000E+00 0.  1.
        -13    1    3    3    0    0 -0.89653747933E+02  0.64367225113E+02  0.10135199711E+03  0.14984379034E+03  0.00000000000E+00 0. -1.
          4    1    6    6  502    0 -0.16064457629E+02 -0.32225609171E+01 -0.61099337620E+02  0.63258048937E+02  0.00000000000E+00 0. -1.
          1    1    5    5  503    0  0.50158447634E+02  0.63175391006E+02  0.27849795209E+02  0.85338215303E+02  0.00000000000E+00 0. -1.
         -4    1    5    5    0  503  0.62873285851E+02  0.76647210539E+01  0.88476781707E+02  0.10881148342E+03  0.00000000000E+00 0.  1.
         -3    1    6    6    0  502  0.14277169841E+02 -0.20607873152E+03 -0.11585596825E+04  0.11768316868E+04  0.00000000000E+00 0.  1.
<mgrwt>
<rscale>  0 0.13304278E+04</rscale>
<asrwt>0</asrwt>
<pdfrwt beam="1">  1        1 0.51246884E-01 0.13304278E+04</pdfrwt>
<pdfrwt beam="2">  1       -1 0.20437533E+00 0.13304278E+04</pdfrwt>
<totfact> 0.10523215E+01</totfact>
</mgrwt>
</event>
<event>
12    1  0.1397649E-007  0.1310631E+04  0.7818608E-02  0.9021177E-01
         -1   -1    0    0    0  501 -0.00000000000E+00  0.00000000000E+00  0.24793302631E+03  0.24793302631E+03  0.00000000000E+00 0.  1.
          1   -1    0    0  501    0  0.00000000000E+00 -0.00000000000E+00 -0.17320732873E+04  0.17320732873E+04  0.00000000000E+00 0. -1.
         23    2    1    2    0    0 -0.14707767977E+02 -0.60699808588E+02  0.10851898899E+03  0.15498162827E+03  0.91335365156E+02 0.  0.
        254    2    1    2    0    0  0.14707767977E+02  0.60699808588E+02 -0.15926592500E+04  0.18250246854E+04  0.88896053364E+03 0.  0.
        -24    2    4    4    0    0  0.14095554983E+03 -0.21934358124E+03 -0.83925144754E+02  0.28274292313E+03  0.70143117967E+02 0.  0.
         24    2    4    4    0    0 -0.12624778186E+03  0.28004338983E+03 -0.15087341053E+04  0.15422817622E+04  0.89395923645E+02 0.  0.
         11    1    3    3    0    0  0.15135489681E+02  0.16071101772E+02  0.48998907995E+01  0.22613542180E+02  0.00000000000E+00 0. -1.
        -11    1    3    3    0    0 -0.29843257658E+02 -0.76770910361E+02  0.10361909819E+03  0.13236808609E+03  0.00000000000E+00 0.  1.
          4    1    6    6  502    0 -0.71759908347E+02  0.22488105242E+03 -0.98804156171E+03  0.10158479708E+04  0.00000000000E+00 0. -1.
          3    1    5    5  503    0  0.89717452836E+01 -0.49162217685E+02 -0.37379313964E+02  0.62406962541E+02  0.00000000000E+00 0. -1.
         -4    1    5    5    0  503  0.13198380455E+03 -0.17018136356E+03 -0.46545830789E+02  0.22033596059E+03  0.00000000000E+00 0.  1.
         -3    1    6    6    0  502 -0.54487873508E+02  0.55162337406E+02 -0.52069254354E+03  0.52643379140E+03  0.00000000000E+00 0.  1.
<mgrwt>
<rscale>  0 0.13106306E+04</rscale>
<asrwt>0</asrwt>
<pdfrwt beam="1">  1        1 0.26647281E+00 0.13106306E+04</pdfrwt>
<pdfrwt beam="2">  1       -1 0.38143543E-01 0.13106306E+04</pdfrwt>
<totfact> 0.29563164E+01</totfact>
</mgrwt>
</event>
<event>
12    1  0.1397649E-007  0.1336873E+04  0.7818608E-02  0.9000825E-01
          2   -1    0    0  501    0  0.00000000000E+00  0.00000000000E+00  0.16927472129E+04  0.16927472129E+04  0.00000000000E+00 0. -1.
         -2   -1    0    0    0  501 -0.00000000000E+00 -0.00000000000E+00 -0.26395415090E+03  0.26395415090E+03  0.00000000000E+00 0.  1.
         23    2    1    2    0    0 -0.10992497323E+03  0.29583855692E+03  0.60629253346E+03  0.68963589163E+03  0.91668290025E+02 0.  0.
        254    2    1    2    0    0  0.10992497323E+03 -0.29583855692E+03  0.82250052849E+03  0.12670654721E+04  0.91068317201E+03 0.  0.
        -24    2    4    4    0    0 -0.34979426903E+03  0.23411404406E+02  0.50133881236E+03  0.61693333044E+03  0.79762177320E+02 0.  0.
         24    2    4    4    0    0  0.45971924227E+03 -0.31924996133E+03  0.32116171613E+03  0.65013214169E+03  0.79149442358E+02 0.  0.
         11    1    3    3    0    0 -0.10062049726E+03  0.28217294163E+03  0.50633705154E+03  0.58832241435E+03  0.00000000000E+00 0. -1.
        -11    1    3    3    0    0 -0.93044759727E+01  0.13665615290E+02  0.99955481913E+02  0.10131347728E+03  0.00000000000E+00 0.  1.
          4    1    6    6  502    0  0.42076566085E+03 -0.30645825509E+03  0.31564429298E+03  0.60876245216E+03  0.00000000000E+00 0. -1.
          3    1    5    5  503    0 -0.31821463671E+03 -0.27315105510E+01  0.45198014606E+03  0.55276945338E+03  0.00000000000E+00 0. -1.
         -4    1    5    5    0  503 -0.31579632326E+02  0.26142914957E+02  0.49358666300E+02  0.64163877059E+02  0.00000000000E+00 0.  1.
         -3    1    6    6    0  502  0.38953581413E+02 -0.12791706238E+02  0.55174231527E+01  0.41369689528E+02  0.00000000000E+00 0.  1.
<mgrwt>
<rscale>  0 0.13368734E+04</rscale>
<asrwt>0</asrwt>
<pdfrwt beam="1">  1        2 0.26042264E+00 0.13368734E+04</pdfrwt>
<pdfrwt beam="2">  1       -2 0.40608332E-01 0.13368734E+04</pdfrwt>
<totfact> 0.55555800E+01</totfact>
</mgrwt>
</event>
<event>
12    1  0.1397649E-007  0.1491538E+04  0.7818608E-02  0.8890100E-01
          1   -1    0    0  501    0  0.00000000000E+00  0.00000000000E+00  0.20633865296E+04  0.20633865296E+04  0.00000000000E+00 0. -1.
         -1   -1    0    0    0  501 -0.00000000000E+00 -0.00000000000E+00 -0.26954302225E+03  0.26954302225E+03  0.00000000000E+00 0.  1.
         23    2    1    2    0    0  0.26458156408E+03  0.23395128544E+03  0.95120272234E+02  0.37651232577E+03  0.89314373165E+02 0.  0.
        254    2    1    2    0    0 -0.26458156408E+03 -0.23395128544E+03  0.16987232351E+04  0.19564172261E+04  0.90397517940E+03 0.  0.
        -24    2    4    4    0    0 -0.13832802485E+03  0.28872392016E+03  0.10950860835E+04  0.11435360447E+04  0.77233480809E+02 0.  0.
         24    2    4    4    0    0 -0.12625353923E+03 -0.52267520560E+03  0.60363715156E+03  0.81288118140E+03  0.85256539953E+02 0.  0.
         11    1    3    3    0    0  0.43676937124E+02  0.79279434138E+02  0.48998720875E+02  0.10292608105E+03  0.00000000000E+00 0. -1.
        -11    1    3    3    0    0  0.22090462696E+03  0.15467185130E+03  0.46121551359E+02  0.27358624471E+03  0.00000000000E+00 0.  1.
          2    1    6    6  502    0 -0.43234951330E+02 -0.14331968006E+03  0.22689406354E+03  0.27182845285E+03  0.00000000000E+00 0. -1.
          3    1    5    5  503    0 -0.56608460778E+02  0.48503561953E+02  0.28881823924E+03  0.29828357090E+03  0.00000000000E+00 0. -1.
         -4    1    5    5    0  503 -0.81719564074E+02  0.24022035821E+03  0.80626784431E+03  0.84525247377E+03  0.00000000000E+00 0.  1.
         -1    1    6    6    0  502 -0.83018587900E+02 -0.37935552554E+03  0.37674308802E+03  0.54105272855E+03  0.00000000000E+00 0.  1.
<mgrwt>
<rscale>  0 0.14915381E+04</rscale>
<asrwt>0</asrwt>
<pdfrwt beam="1">  1        1 0.31744407E+00 0.14915381E+04</pdfrwt>
<pdfrwt beam="2">  1       -1 0.41468158E-01 0.14915381E+04</pdfrwt>
<totfact> 0.14904035E+01</totfact>
</mgrwt>
</event>
<event>
12    1  0.1397649E-007  0.2857038E+04  0.7818608E-02  0.8285776E-01
          2   -1    0    0  501    0  0.00000000000E+00  0.00000000000E+00  0.14051885994E+04  0.14051885994E+04  0.00000000000E+00 0. -1.
         -2   -1    0    0    0  501 -0.00000000000E+00 -0.00000000000E+00 -0.14522371453E+04  0.14522371453E+04  0.00000000000E+00 0.  1.
         23    2    1    2    0    0 -0.28912209819E+03 -0.41970589292E+03 -0.12014921799E+04  0.13083586423E+04  0.92055713828E+02 0.  0.
        254    2    1    2    0    0  0.28912209819E+03  0.41970589292E+03  0.11544436340E+04  0.15490671024E+04  0.89840089002E+03 0.  0.
        -24    2    4    4    0    0  0.25567766232E+03  0.65152689369E+03  0.10760925623E+04  0.12862333613E+04  0.81010473103E+02 0.  0.
         24    2    4    4    0    0  0.33444435870E+02 -0.23182100077E+03  0.78351071718E+02  0.26283374108E+03  0.89906497662E+02 0.  0.
         13    1    3    3    0    0 -0.24912156905E+03 -0.29198049518E+03 -0.87310525399E+03  0.95374365019E+03  0.00000000000E+00 0.  1.
        -13    1    3    3    0    0 -0.40000529140E+02 -0.12772539774E+03 -0.32838692589E+03  0.35461499215E+03  0.00000000000E+00 0. -1.
          4    1    6    6  502    0  0.20070382221E+02 -0.26195443322E+02  0.42290166389E+02  0.53642144500E+02  0.00000000000E+00 0. -1.
          1    1    5    5  503    0  0.11174147759E+03  0.24518062221E+03  0.34835827887E+03  0.44040116460E+03  0.00000000000E+00 0. -1.
         -2    1    5    5    0  503  0.14393618473E+03  0.40634627148E+03  0.72773428345E+03  0.84583219668E+03  0.00000000000E+00 0.  1.
         -3    1    6    6    0  502  0.13374053649E+02 -0.20562555744E+03  0.36060905330E+02  0.20919159658E+03  0.00000000000E+00 0.  1.
<mgrwt>
<rscale>  0 0.28570384E+04</rscale>
<asrwt>0</asrwt>
<pdfrwt beam="1">  1        2 0.21618286E+00 0.28570384E+04</pdfrwt>
<pdfrwt beam="2">  1       -2 0.22342110E+00 0.28570384E+04</pdfrwt>
<totfact> 0.11705439E+00</totfact>
</mgrwt>
</event>
<event>
12    1  0.1397649E-007  0.2220282E+04  0.7818608E-02  0.8510033E-01
         -2   -1    0    0    0  501 -0.00000000000E+00  0.00000000000E+00  0.48096210814E+03  0.48096210814E+03  0.00000000000E+00 0.  1.
          2   -1    0    0  501    0  0.00000000000E+00 -0.00000000000E+00 -0.25623910497E+04  0.25623910497E+04  0.00000000000E+00 0. -1.
         23    2    1    2    0    0 -0.30807067726E+03  0.81607485493E+03 -0.64128265316E+03  0.10864537769E+04  0.90844136679E+02 0.  0.
        254    2    1    2    0    0  0.30807067726E+03 -0.81607485493E+03 -0.14401462884E+04  0.19568993809E+04  0.99727034645E+03 0.  0.
        -24    2    4    4    0    0 -0.34023683448E+03 -0.47017687705E+03 -0.63547307536E+03  0.86434499958E+03  0.80242442260E+02 0.  0.
         24    2    4    4    0    0  0.64830751173E+03 -0.34589797788E+03 -0.80467321305E+03  0.10925543813E+04  0.78918030048E+02 0.  0.
         11    1    3    3    0    0 -0.20246752720E+03  0.51458142513E+03 -0.45897203576E+03  0.71863932001E+03  0.00000000000E+00 0. -1.
        -11    1    3    3    0    0 -0.10560315006E+03  0.30149342980E+03 -0.18231061740E+03  0.36781445694E+03  0.00000000000E+00 0.  1.
          2    1    6    6  502    0  0.43241761735E+03 -0.19762730989E+03 -0.55374126181E+03  0.72984308891E+03  0.00000000000E+00 0. -1.
          1    1    5    5  503    0 -0.10518181073E+03 -0.20428280967E+03 -0.22275297657E+03  0.32002119962E+03  0.00000000000E+00 0. -1.
         -2    1    5    5    0  503 -0.23505502375E+03 -0.26589406739E+03 -0.41272009879E+03  0.54432379996E+03  0.00000000000E+00 0.  1.
         -1    1    6    6    0  502  0.21588989438E+03 -0.14827066799E+03 -0.25093195125E+03  0.36271129241E+03  0.00000000000E+00 0.  1.
<mgrwt>
<rscale>  0 0.22202820E+04</rscale>
<asrwt>0</asrwt>
<pdfrwt beam="1">  1        2 0.39421401E+00 0.22202820E+04</pdfrwt>
<pdfrwt beam="2">  1       -2 0.73994170E-01 0.22202820E+04</pdfrwt>
<totfact> 0.48076587E+00</totfact>
</mgrwt>
</event>
<event>
12    1  0.1397649E-007  0.1687569E+04  0.7818608E-02  0.8768486E-01
          2   -1    0    0  501    0  0.00000000000E+00  0.00000000000E+00  0.33853756232E+04  0.33853756232E+04  0.00000000000E+00 0. -1.
         -2   -1    0    0    0  501 -0.00000000000E+00 -0.00000000000E+00 -0.21030814492E+03  0.21030814492E+03  0.00000000000E+00 0.  1.
         23    2    1    2    0    0  0.92192909330E+02  0.18262582094E+03 -0.60778855404E+02  0.23201533717E+03  0.91023757411E+02 0.  0.
        254    2    1    2    0    0 -0.92192909330E+02 -0.18262582094E+03  0.32358463336E+04  0.33636684309E+04  0.89538376980E+03 0.  0.
        -24    2    4    4    0    0  0.15434442302E+03  0.26994639658E+03  0.64183846157E+03  0.71766543529E+03  0.79961292593E+02 0.  0.
         24    2    4    4    0    0 -0.24653733235E+03 -0.45257221752E+03  0.25940078721E+04  0.26460029956E+04  0.82781303412E+02 0.  0.
         11    1    3    3    0    0 -0.10102931938E+02 -0.30634733410E+01  0.23460885376E+01  0.10814723024E+02  0.00000000000E+00 0. -1.
        -11    1    3    3    0    0  0.10229584127E+03  0.18568929428E+03 -0.63124943941E+02  0.22120061414E+03  0.00000000000E+00 0.  1.
          2    1    6    6  502    0 -0.10774291490E+03 -0.15068203552E+03  0.76909755765E+03  0.79109080688E+03  0.00000000000E+00 0. -1.
          3    1    5    5  503    0  0.19156365655E+02  0.10908085761E+03  0.20978473594E+03  0.23722401918E+03  0.00000000000E+00 0. -1.
         -4    1    5    5    0  503  0.13518805737E+03  0.16086553897E+03  0.43205372562E+03  0.48044141610E+03  0.00000000000E+00 0.  1.
         -1    1    6    6    0  502 -0.13879441745E+03 -0.30189018200E+03  0.18249103144E+04  0.18549121888E+04  0.00000000000E+00 0.  1.
<mgrwt>
<rscale>  0 0.16875687E+04</rscale>
<asrwt>0</asrwt>
<pdfrwt beam="1">  1        2 0.52082698E+00 0.16875687E+04</pdfrwt>
<pdfrwt beam="2">  1       -2 0.32355102E-01 0.16875687E+04</pdfrwt>
<totfact> 0.83397997E+00</totfact>
</mgrwt>
</event>
<event>
12    1  0.1397649E-007  0.1420053E+04  0.7818608E-02  0.8939429E-01
          1   -1    0    0  501    0  0.00000000000E+00  0.00000000000E+00  0.16309164779E+04  0.16309164779E+04  0.00000000000E+00 0. -1.
         -1   -1    0    0    0  501 -0.00000000000E+00 -0.00000000000E+00 -0.30911324143E+03  0.30911324143E+03  0.00000000000E+00 0.  1.
         23    2    1    2    0    0 -0.29854392175E+03  0.54968470204E+02  0.10746497880E+04  0.11205529401E+04  0.92826282972E+02 0.  0.
        254    2    1    2    0    0  0.29854392175E+03 -0.54968470204E+02  0.24715344840E+03  0.81947677916E+03  0.71993566281E+03 0.  0.
        -24    2    4    4    0    0  0.11784616481E+03 -0.27665791458E+02  0.48661353502E+03  0.50807683819E+03  0.81830473906E+02 0.  0.
         24    2    4    4    0    0  0.18069775694E+03 -0.27302678746E+02 -0.23946008663E+03  0.31139994097E+03  0.78940955892E+02 0.  0.
         11    1    3    3    0    0 -0.22047396772E+03  0.61790013446E+02  0.90756597934E+03  0.93600362343E+03  0.00000000000E+00 0. -1.
        -11    1    3    3    0    0 -0.78069954023E+02 -0.68215432418E+01  0.16708380868E+03  0.18454931670E+03  0.00000000000E+00 0.  1.
          2    1    6    6  502    0  0.88479902136E+02 -0.12874583508E+02 -0.17928712336E+03  0.20034550303E+03  0.00000000000E+00 0. -1.
          3    1    5    5  503    0  0.11777690059E+03 -0.25756685664E+02  0.32805239235E+03  0.34950418781E+03  0.00000000000E+00 0. -1.
         -4    1    5    5    0  503  0.69264213203E-01 -0.19091057943E+01  0.15856114268E+03  0.15857265038E+03  0.00000000000E+00 0.  1.
         -1    1    6    6    0  502  0.92217854805E+02 -0.14428095238E+02 -0.60172963268E+02  0.11105443794E+03  0.00000000000E+00 0.  1.
<mgrwt>
<rscale>  0 0.14200533E+04</rscale>
<asrwt>0</asrwt>
<pdfrwt beam="1">  1        1 0.25091022E+00 0.14200533E+04</pdfrwt>
<pdfrwt beam="2">  1       -1 0.47555884E-01 0.14200533E+04</pdfrwt>
<totfact> 0.22837888E+01</totfact>
</mgrwt>
</event>
<event>
12    1  0.1397649E-007  0.1852448E+04  0.7818608E-02  0.8678895E-01
          2   -1    0    0  501    0  0.00000000000E+00  0.00000000000E+00  0.21707428924E+04  0.21707428924E+04  0.00000000000E+00 0. -1.
         -2   -1    0    0    0  501 -0.00000000000E+00 -0.00000000000E+00 -0.39520603855E+03  0.39520603855E+03  0.00000000000E+00 0.  1.
         23    2    1    2    0    0 -0.64724964581E+02  0.11383873073E+03  0.16416424300E+04  0.16494782987E+04  0.92952742043E+02 0.  0.
        254    2    1    2    0    0  0.64724964581E+02 -0.11383873073E+03  0.13389442391E+03  0.91647063231E+03  0.89712993791E+03 0.  0.
        -24    2    4    4    0    0 -0.37090665389E+03 -0.21757787925E+03  0.14830289017E+03  0.46162427329E+03  0.78685087661E+02 0.  0.
         24    2    4    4    0    0  0.43563161847E+03  0.10373914852E+03 -0.14408466260E+02  0.45484635902E+03  0.78363821189E+02 0.  0.
         13    1    3    3    0    0 -0.53108769413E+02  0.48717816209E+02  0.12664732141E+04  0.12685221201E+04  0.00000000000E+00 0. -1.
        -13    1    3    3    0    0 -0.11616195168E+02  0.65120914520E+02  0.37516921586E+03  0.38095617861E+03  0.00000000000E+00 0.  1.
          4    1    6    6  502    0  0.29362518790E+02  0.24183774367E+02  0.12358620123E+02  0.39996849172E+02  0.00000000000E+00 0. -1.
          1    1    5    5  503    0 -0.35528362801E+02  0.27639289673E+01  0.16296205921E+02  0.39185076166E+02  0.00000000000E+00 0. -1.
         -2    1    5    5    0  503 -0.33537829109E+03 -0.22034180821E+03  0.13200668425E+03  0.42243919712E+03  0.00000000000E+00 0.  1.
         -3    1    6    6    0  502  0.40626909968E+03  0.79555374151E+02 -0.26767086383E+02  0.41484950985E+03  0.00000000000E+00 0.  1.
<mgrwt>
<rscale>  0 0.18524478E+04</rscale>
<asrwt>0</asrwt>
<pdfrwt beam="1">  1        2 0.33396044E+00 0.18524478E+04</pdfrwt>
<pdfrwt beam="2">  1       -2 0.60800930E-01 0.18524478E+04</pdfrwt>
<totfact> 0.12698540E+01</totfact>
</mgrwt>
</event>
<event>
12    1  0.1397649E-007  0.2541669E+04  0.7818608E-02  0.8388289E-01
          2   -1    0    0  501    0  0.00000000000E+00  0.00000000000E+00  0.89612556797E+03  0.89612556797E+03  0.00000000000E+00 0.  1.
         -2   -1    0    0    0  501 -0.00000000000E+00 -0.00000000000E+00 -0.18022259645E+04  0.18022259645E+04  0.00000000000E+00 0. -1.
         23    2    1    2    0    0  0.15497174879E+03  0.10521666432E+04 -0.72839143714E+03  0.12922615527E+04  0.91186331375E+02 0.  0.
        254    2    1    2    0    0 -0.15497174879E+03 -0.10521666432E+04 -0.17770895934E+03  0.14060899797E+04  0.90246200404E+03 0.  0.
        -24    2    4    4    0    0 -0.17747215400E+03 -0.98338939267E+03  0.19163166696E+03  0.10205092346E+04  0.78519673776E+02 0.  0.
         24    2    4    4    0    0  0.22500405208E+02 -0.68777250534E+02 -0.36934062630E+03  0.38558074503E+03  0.83805932217E+02 0.  0.
         11    1    3    3    0    0  0.80254896612E+02  0.56755001861E+03 -0.33747703431E+03  0.66516510788E+03  0.00000000000E+00 0. -1.
        -11    1    3    3    0    0  0.74716852181E+02  0.48461662459E+03 -0.39091440282E+03  0.62709644486E+03  0.00000000000E+00 0.  1.
          2    1    6    6  502    0 -0.23498558344E+01 -0.81386372335E+02 -0.24571822310E+03  0.25885654056E+03  0.00000000000E+00 0. -1.
          1    1    5    5  503    0 -0.11649373267E+03 -0.70256081357E+03  0.17100723141E+03  0.73239740559E+03  0.00000000000E+00 0. -1.
         -2    1    5    5    0  503 -0.60978421326E+02 -0.28082857909E+03  0.20624435556E+02  0.28811182906E+03  0.00000000000E+00 0.  1.
         -1    1    6    6    0  502  0.24850261042E+02  0.12609121801E+02 -0.12362240320E+03  0.12672420447E+03  0.00000000000E+00 0.  1.
<mgrwt>
<rscale>  0 0.25416693E+04</rscale>
<asrwt>0</asrwt>
<pdfrwt beam="1">  1        2 0.13786547E+00 0.25416693E+04</pdfrwt>
<pdfrwt beam="2">  1       -2 0.27726553E+00 0.25416693E+04</pdfrwt>
<totfact> 0.11474234E+00</totfact>
</mgrwt>
</event>
<event>
12    1  0.1397649E-007  0.1666194E+04  0.7818608E-02  0.8780883E-01
          2   -1    0    0  501    0  0.00000000000E+00  0.00000000000E+00  0.39371378131E+03  0.39371378131E+03  0.00000000000E+00 0. -1.
         -2   -1    0    0    0  501 -0.00000000000E+00 -0.00000000000E+00 -0.17628308160E+04  0.17628308160E+04  0.00000000000E+00 0.  1.
         23    2    1    2    0    0  0.19765261945E+03  0.32049320075E+03  0.86747700917E+02  0.39809076449E+03  0.95753033669E+02 0.  0.
        254    2    1    2    0    0 -0.19765261945E+03 -0.32049320075E+03 -0.14558647357E+04  0.17584538329E+04  0.91150167532E+03 0.  0.
        -24    2    4    4    0    0 -0.41242109296E+03  0.24622454229E+02 -0.11997796028E+04  0.12713261502E+04  0.78113133503E+02 0.  0.
         24    2    4    4    0    0  0.21476847352E+03 -0.34511565498E+03 -0.25608513281E+03  0.48712768266E+03  0.80520006447E+02 0.  0.
         13    1    3    3    0    0  0.50636114670E+02  0.47397438519E+02  0.50566349117E+02  0.85834078023E+02  0.00000000000E+00 0.  1.
        -13    1    3    3    0    0  0.14701650478E+03  0.27309576223E+03  0.36181351800E+02  0.31225668647E+03  0.00000000000E+00 0. -1.
          4    1    6    6  502    0 -0.67059359930E+01 -0.10521946626E+02 -0.33698654144E+01  0.12924276817E+02  0.00000000000E+00 0. -1.
          1    1    5    5  503    0 -0.30960410839E+02  0.79821141524E+01 -0.46089817804E+02  0.56093961269E+02  0.00000000000E+00 0. -1.
         -2    1    5    5    0  503 -0.38146068212E+03  0.16640340076E+02 -0.11536897850E+04  0.12152321889E+04  0.00000000000E+00 0.  1.
         -3    1    6    6    0  502  0.22147440951E+03 -0.33459370836E+03 -0.25271526740E+03  0.47420340584E+03  0.00000000000E+00 0.  1.
<mgrwt>
<rscale>  0 0.16661942E+04</rscale>
<asrwt>0</asrwt>
<pdfrwt beam="1">  1        2 0.60571352E-01 0.16661942E+04</pdfrwt>
<pdfrwt beam="2">  1       -2 0.27120474E+00 0.16661942E+04</pdfrwt>
<totfact> 0.36842076E+00</totfact>
</mgrwt>
</event>
<event>
12    1  0.1397649E-007  0.2861888E+04  0.7818608E-02  0.8284308E-01
          1   -1    0    0  501    0  0.00000000000E+00  0.00000000000E+00  0.23992572604E+04  0.23992572604E+04  0.00000000000E+00 0. -1.
         -1   -1    0    0    0  501 -0.00000000000E+00 -0.00000000000E+00 -0.85343113664E+03  0.85343113664E+03  0.00000000000E+00 0.  1.
         23    2    1    2    0    0  0.75974907670E+03  0.42847869809E+03 -0.38759284082E+03  0.95895680123E+03  0.92505578766E+02 0.  0.
        254    2    1    2    0    0 -0.75974907670E+03 -0.42847869809E+03  0.19334189646E+04  0.22937315958E+04  0.87308824682E+03 0.  0.
        -24    2    4    4    0    0 -0.62064626077E+03 -0.48317263209E+03  0.19668986448E+04  0.21198453263E+04  0.79977216659E+02 0.  0.
         24    2    4    4    0    0 -0.13910281594E+03  0.54693934002E+02 -0.33479680196E+02  0.17388626951E+03  0.82307508289E+02 0.  0.
         13    1    3    3    0    0  0.38067804264E+03  0.26366922345E+03 -0.22410054819E+03  0.51444949922E+03  0.00000000000E+00 0. -1.
        -13    1    3    3    0    0  0.37907103406E+03  0.16480947464E+03 -0.16349229263E+03  0.44450730201E+03  0.00000000000E+00 0.  1.
          2    1    6    6  502    0 -0.66133250444E+02  0.16354426020E+02  0.25272759907E+02  0.72662139096E+02  0.00000000000E+00 0. -1.
          3    1    5    5  503    0 -0.40400826096E+02 -0.18035724278E+02  0.15715790098E+03  0.16326702036E+03  0.00000000000E+00 0. -1.
         -4    1    5    5    0  503 -0.58024543467E+03 -0.46513690781E+03  0.18097407438E+04  0.19565783059E+04  0.00000000000E+00 0.  1.
         -1    1    6    6    0  502 -0.72969565491E+02  0.38339507982E+02 -0.58752440102E+02  0.10122413042E+03  0.00000000000E+00 0.  1.
<mgrwt>
<rscale>  0 0.28618881E+04</rscale>
<asrwt>0</asrwt>
<pdfrwt beam="1">  1        1 0.36911650E+00 0.28618881E+04</pdfrwt>
<pdfrwt beam="2">  1       -1 0.13129710E+00 0.28618881E+04</pdfrwt>
<totfact> 0.67715009E-01</totfact>
</mgrwt>
</event>
<event>
12    1  0.1397649E-007  0.1223089E+04  0.7818608E-02  0.9092883E-01
         -1   -1    0    0    0  501 -0.00000000000E+00  0.00000000000E+00  0.37667715997E+03  0.37667715997E+03  0.00000000000E+00 0.  1.
          1   -1    0    0  501    0  0.00000000000E+00 -0.00000000000E+00 -0.99285759484E+03  0.99285759484E+03  0.00000000000E+00 0. -1.
         23    2    1    2    0    0 -0.51722205912E+02  0.36551174149E+01  0.14959016301E+03  0.18493609543E+03  0.95580312075E+02 0.  0.
        254    2    1    2    0    0  0.51722205912E+02 -0.36551174149E+01 -0.76577059788E+03  0.11845986594E+04  0.90231969321E+03 0.  0.
        -24    2    4    4    0    0  0.35868598914E+03  0.26861818588E+03 -0.24743502713E+03  0.51867893318E+03  0.83620419017E+02 0.  0.
         24    2    4    4    0    0 -0.30696378323E+03 -0.27227330330E+03 -0.51833557075E+03  0.66591972620E+03  0.80111184848E+02 0.  0.
         11    1    3    3    0    0 -0.71344494324E+02 -0.51634209763E+01  0.14672578672E+03  0.16323343492E+03  0.00000000000E+00 0.  1.
        -11    1    3    3    0    0  0.19622288412E+02  0.88185383912E+01  0.28643762923E+01  0.21702660515E+02  0.00000000000E+00 0. -1.
          2    1    6    6  502    0 -0.14014314038E+03 -0.91413175863E+02 -0.16204409145E+03  0.23292650362E+03  0.00000000000E+00 0. -1.
          1    1    5    5  503    0  0.29292194611E+03  0.18421708065E+03 -0.21273107737E+03  0.40619417844E+03  0.00000000000E+00 0. -1.
         -2    1    5    5    0  503  0.65764043029E+02  0.84401105227E+02 -0.34703949761E+02  0.11248475474E+03  0.00000000000E+00 0.  1.
         -1    1    6    6    0  502 -0.16682064285E+03 -0.18086012743E+03 -0.35629147930E+03  0.43299322258E+03  0.00000000000E+00 0.  1.
<mgrwt>
<rscale>  0 0.12230892E+04</rscale>
<asrwt>0</asrwt>
<pdfrwt beam="1">  1        1 0.15274732E+00 0.12230892E+04</pdfrwt>
<pdfrwt beam="2">  1       -1 0.57950333E-01 0.12230892E+04</pdfrwt>
<totfact> 0.45684612E+01</totfact>
</mgrwt>
</event>
<event>
12    1  0.1397649E-007  0.1675031E+04  0.7818608E-02  0.8775735E-01
         -2   -1    0    0    0  501 -0.00000000000E+00  0.00000000000E+00  0.12310108655E+04  0.12310108655E+04  0.00000000000E+00 0. -1.
          2   -1    0    0  501    0  0.00000000000E+00 -0.00000000000E+00 -0.56980182782E+03  0.56980182782E+03  0.00000000000E+00 0.  1.
         23    2    1    2    0    0  0.14464222739E+03 -0.33984955566E+03 -0.25646761223E+03  0.46040948239E+03  0.98904807422E+02 0.  0.
        254    2    1    2    0    0 -0.14464222739E+03  0.33984955566E+03  0.91767664996E+03  0.13404032110E+04  0.90450607498E+03 0.  0.
        -24    2    4    4    0    0 -0.50745550826E+03  0.22046203811E+03  0.37896286837E+03  0.67560065713E+03  0.81907198689E+02 0.  0.
         24    2    4    4    0    0  0.36281328088E+03  0.11938751755E+03  0.53871378159E+03  0.66480255385E+03  0.76570496886E+02 0.  0.
         13    1    3    3    0    0  0.14284993930E+03 -0.34631427656E+03 -0.25589603393E+03  0.45367660673E+03  0.00000000000E+00 0.  1.
        -13    1    3    3    0    0  0.17922880914E+01  0.64647209059E+01 -0.57157829592E+00  0.67328756666E+01  0.00000000000E+00 0. -1.
          2    1    6    6  502    0  0.10970232382E+03  0.73242217621E+02  0.16917015333E+03  0.21451704611E+03  0.00000000000E+00 0. -1.
          1    1    5    5  503    0 -0.50089487260E+03  0.20749575967E+03  0.37820070959E+03  0.66104912103E+03  0.00000000000E+00 0. -1.
         -2    1    5    5    0  503 -0.65606356641E+01  0.12966278439E+02  0.76215877673E+00  0.14551536100E+02  0.00000000000E+00 0.  1.
         -1    1    6    6    0  502  0.25311095705E+03  0.46145299929E+02  0.36954362826E+03  0.45028550773E+03  0.00000000000E+00 0.  1.
<mgrwt>
<rscale>  0 0.16750310E+04</rscale>
<asrwt>0</asrwt>
<pdfrwt beam="1">  1        2 0.87661820E-01 0.16750310E+04</pdfrwt>
<pdfrwt beam="2">  1       -2 0.18938629E+00 0.16750310E+04</pdfrwt>
<totfact> 0.78664887E+00</totfact>
</mgrwt>
</event>
<event>
12    1  0.1397649E-007  0.2036475E+04  0.7818608E-02  0.8589755E-01
         -2   -1    0    0    0  501 -0.00000000000E+00  0.00000000000E+00  0.64682033535E+03  0.64682033535E+03  0.00000000000E+00 0.  1.
          2   -1    0    0  501    0  0.00000000000E+00 -0.00000000000E+00 -0.16029301289E+04  0.16029301289E+04  0.00000000000E+00 0. -1.
         23    2    1    2    0    0 -0.54261445456E+03 -0.62188474368E+03 -0.41297605742E+03  0.92737895094E+03  0.91166956327E+02 0.  0.
        254    2    1    2    0    0  0.54261445456E+03  0.62188474368E+03 -0.54313373614E+03  0.13223715133E+04  0.87892040776E+03 0.  0.
        -24    2    4    4    0    0  0.72401976238E+03  0.25558470782E+03 -0.24645311998E+03  0.81038733157E+03  0.80376163343E+02 0.  0.
         24    2    4    4    0    0 -0.18140530781E+03  0.36630003585E+03 -0.29668061616E+03  0.51198418175E+03  0.83814153867E+02 0.  0.
         13    1    3    3    0    0 -0.51262575480E+03 -0.59032972195E+03 -0.36578584319E+03  0.86317647569E+03  0.00000000000E+00 0. -1.
        -13    1    3    3    0    0 -0.29988699760E+02 -0.31555021728E+02 -0.47190214226E+02  0.64202475250E+02  0.00000000000E+00 0.  1.
          2    1    6    6  502    0 -0.12965822730E+03  0.32449910613E+03 -0.23377874670E+03  0.42043243000E+03  0.00000000000E+00 0. -1.
          1    1    5    5  503    0  0.54777699660E+03  0.21102445810E+03 -0.21898858746E+03  0.62653568243E+03  0.00000000000E+00 0. -1.
         -2    1    5    5    0  503  0.17624276578E+03  0.44560249721E+02 -0.27464532517E+02  0.18385164914E+03  0.00000000000E+00 0.  1.
         -1    1    6    6    0  502 -0.51747080510E+02  0.41800929724E+02 -0.62901869461E+02  0.91551751752E+02  0.00000000000E+00 0.  1.
<mgrwt>
<rscale>  0 0.20364752E+04</rscale>
<asrwt>0</asrwt>
<pdfrwt beam="1">  1        2 0.24660463E+00 0.20364752E+04</pdfrwt>
<pdfrwt beam="2">  1       -2 0.99510822E-01 0.20364752E+04</pdfrwt>
<totfact> 0.86006735E+00</totfact>
</mgrwt>
</event>
<event>
12    1  0.1397649E-007  0.1953996E+04  0.7818608E-02  0.8628436E-01
          1   -1    0    0  501    0  0.00000000000E+00  0.00000000000E+00  0.93545074356E+03  0.93545074356E+03  0.00000000000E+00 0. -1.
         -1   -1    0    0    0  501 -0.00000000000E+00 -0.00000000000E+00 -0.10203909478E+04  0.10203909478E+04  0.00000000000E+00 0.  1.
         23    2    1    2    0    0  0.35530911586E+03 -0.53757360773E+03 -0.44794378536E+03  0.78996439648E+03  0.90333611248E+02 0.  0.
        254    2    1    2    0    0 -0.35530911586E+03  0.53757360773E+03  0.36300358109E+03  0.11658772949E+04  0.90125929418E+03 0.  0.
        -24    2    4    4    0    0  0.23559767263E+03 -0.58838500777E+01 -0.57783234805E+02  0.25607849267E+03  0.81831590128E+02 0.  0.
         24    2    4    4    0    0 -0.59090678849E+03  0.54345745781E+03  0.42078681589E+03  0.90979880224E+03  0.78456835194E+02 0.  0.
         11    1    3    3    0    0  0.84511047315E+01 -0.89566893753E+01 -0.28997396691E+02  0.31503848505E+02  0.00000000000E+00 0. -1.
        -11    1    3    3    0    0  0.34685801113E+03 -0.52861691836E+03 -0.41894638866E+03  0.75846054798E+03  0.00000000000E+00 0.  1.
          2    1    6    6  502    0 -0.52777859874E+03  0.51218922288E+03  0.39473977988E+03  0.83469008808E+03  0.00000000000E+00 0. -1.
          3    1    5    5  503    0  0.22213421613E+03  0.15476593538E+02 -0.60330530433E+02  0.23070090556E+03  0.00000000000E+00 0. -1.
         -4    1    5    5    0  503  0.13463456494E+02 -0.21360443616E+02  0.25472956289E+01  0.25377587105E+02  0.00000000000E+00 0.  1.
         -1    1    6    6    0  502 -0.63128189752E+02  0.31268234926E+02  0.26047036015E+02  0.75108714154E+02  0.00000000000E+00 0.  1.
<mgrwt>
<rscale>  0 0.19539964E+04</rscale>
<asrwt>0</asrwt>
<pdfrwt beam="1">  1        1 0.14391550E+00 0.19539964E+04</pdfrwt>
<pdfrwt beam="2">  1       -1 0.15698322E+00 0.19539964E+04</pdfrwt>
<totfact> 0.48864105E+00</totfact>
</mgrwt>
</event>
<event>
12    1  0.1397649E-007  0.1496188E+04  0.7818608E-02  0.8886992E-01
          1   -1    0    0  501    0  0.00000000000E+00  0.00000000000E+00  0.16898872745E+04  0.16898872745E+04  0.00000000000E+00 0. -1.
         -1   -1    0    0    0  501 -0.00000000000E+00 -0.00000000000E+00 -0.33117263651E+03  0.33117263651E+03  0.00000000000E+00 0.  1.
         23    2    1    2    0    0  0.11789458198E+03 -0.37471075237E+03  0.89669585362E+02  0.41468068455E+03  0.98041599295E+02 0.  0.
        254    2    1    2    0    0 -0.11789458198E+03  0.37471075237E+03  0.12690450526E+04  0.16063792264E+04  0.90314538873E+03 0.  0.
        -24    2    4    4    0    0 -0.99356579907E+01  0.22049850789E+03  0.13617412030E+04  0.13820002747E+04  0.82869451697E+02 0.  0.
         24    2    4    4    0    0 -0.10795892399E+03  0.15421224448E+03 -0.92696150358E+02  0.22437895178E+03  0.79478249187E+02 0.  0.
         11    1    3    3    0    0  0.10769056555E+03 -0.18048010856E+03  0.39996453259E+02  0.21393934600E+03  0.00000000000E+00 0.  1.
        -11    1    3    3    0    0  0.10204016428E+02 -0.19423064382E+03  0.49673132103E+02  0.20074133855E+03  0.00000000000E+00 0. -1.
          2    1    6    6  502    0 -0.71997835997E+02  0.14366479242E+03 -0.95270448087E+02  0.18681466551E+03  0.00000000000E+00 0. -1.
          1    1    5    5  503    0 -0.19218309582E+01  0.22581292816E+03  0.12898227958E+04  0.13094418721E+04  0.00000000000E+00 0. -1.
         -2    1    5    5    0  503 -0.80138270325E+01 -0.53144202676E+01  0.71918407186E+02  0.72558402537E+02  0.00000000000E+00 0.  1.
         -1    1    6    6    0  502 -0.35961087991E+02  0.10547452062E+02  0.25742977289E+01  0.37564286274E+02  0.00000000000E+00 0.  1.
<mgrwt>
<rscale>  0 0.14961877E+04</rscale>
<asrwt>0</asrwt>
<pdfrwt beam="1">  1        1 0.25998265E+00 0.14961877E+04</pdfrwt>
<pdfrwt beam="2">  1       -1 0.50949637E-01 0.14961877E+04</pdfrwt>
<totfact> 0.18145047E+01</totfact>
</mgrwt>
</event>
<event>
12    1  0.1397649E-007  0.1580343E+04  0.7818608E-02  0.8832716E-01
         -2   -1    0    0    0  501 -0.00000000000E+00  0.00000000000E+00  0.39060810604E+03  0.39060810604E+03  0.00000000000E+00 0.  1.
          2   -1    0    0  501    0  0.00000000000E+00 -0.00000000000E+00 -0.15984587953E+04  0.15984587953E+04  0.00000000000E+00 0. -1.
         23    2    1    2    0    0 -0.20447141992E+03 -0.24004936625E+03  0.12116897818E+03  0.34980934758E+03  0.90842713425E+02 0.  0.
        254    2    1    2    0    0  0.20447141992E+03  0.24004936625E+03 -0.13290196674E+04  0.16392575537E+04  0.90633315690E+03 0.  0.
        -24    2    4    4    0    0 -0.28536407954E+02 -0.82830935243E+02 -0.12091650604E+04  0.12147420210E+04  0.76437842992E+02 0.  0.
         24    2    4    4    0    0  0.23300782787E+03  0.32288030149E+03 -0.11985460700E+03  0.42451553273E+03  0.85463289031E+02 0.  0.
         13    1    3    3    0    0 -0.19887721304E+02 -0.33226135553E+02 -0.14283292244E+02  0.41273599065E+02  0.00000000000E+00 0. -1.
        -13    1    3    3    0    0 -0.18458369861E+03 -0.20682323069E+03  0.13545227043E+03  0.30853574851E+03  0.00000000000E+00 0.  1.
          2    1    6    6  502    0  0.11637504175E+03  0.22973067629E+03 -0.66177824646E+02  0.26589253177E+03  0.00000000000E+00 0. -1.
          1    1    5    5  503    0 -0.52535551691E+02 -0.69649423384E+02 -0.82417027861E+03  0.82877480326E+03  0.00000000000E+00 0. -1.
         -2    1    5    5    0  503  0.23999143736E+02 -0.13181511859E+02 -0.38499478180E+03  0.38596721774E+03  0.00000000000E+00 0.  1.
         -1    1    6    6    0  502  0.11663278612E+03  0.93149625195E+02 -0.53676782351E+02  0.15862300096E+03  0.00000000000E+00 0.  1.
<mgrwt>
<rscale>  0 0.15803430E+04</rscale>
<asrwt>0</asrwt>
<pdfrwt beam="1">  1        2 0.24591674E+00 0.15803430E+04</pdfrwt>
<pdfrwt beam="2">  1       -2 0.60093555E-01 0.15803430E+04</pdfrwt>
<totfact> 0.27698081E+01</totfact>
</mgrwt>
</event>
<event>
12    1  0.1397649E-007  0.2179815E+04  0.7818608E-02  0.8526877E-01
          2   -1    0    0  501    0  0.00000000000E+00  0.00000000000E+00  0.19196043049E+04  0.19196043049E+04  0.00000000000E+00 0. -1.
         -2   -1    0    0    0  501 -0.00000000000E+00 -0.00000000000E+00 -0.61882478149E+03  0.61882478149E+03  0.00000000000E+00 0.  1.
         23    2    1    2    0    0 -0.48943933199E+03 -0.61974953201E+03  0.10393446176E+04  0.13085063267E+04  0.91165951778E+02 0.  0.
        254    2    1    2    0    0  0.48943933199E+03  0.61974953201E+03  0.26143490574E+03  0.12299227596E+04  0.90593677627E+03 0.  0.
        -24    2    4    4    0    0  0.10398203004E+03  0.39010716821E+03 -0.29816096873E+03  0.50833632643E+03  0.80684522904E+02 0.  0.
         24    2    4    4    0    0  0.38545730195E+03  0.22964236379E+03  0.55959587448E+03  0.72158643320E+03  0.78908117253E+02 0.  0.
         13    1    3    3    0    0 -0.21628229169E+03 -0.26347463412E+03  0.37591293768E+03  0.50745191815E+03  0.00000000000E+00 0.  1.
        -13    1    3    3    0    0 -0.27315704030E+03 -0.35627489789E+03  0.66343167997E+03  0.80105440859E+03  0.00000000000E+00 0. -1.
          2    1    6    6  502    0  0.36267961384E+03  0.20985053535E+03  0.54661106585E+03  0.68873609372E+03  0.00000000000E+00 0. -1.
          3    1    5    5  503    0  0.89721842541E+02  0.35968795945E+03 -0.29650342857E+03  0.47469961065E+03  0.00000000000E+00 0. -1.
         -4    1    5    5    0  503  0.14260187497E+02  0.30419208764E+02 -0.16575401659E+01  0.33636715783E+02  0.00000000000E+00 0.  1.
         -1    1    6    6    0  502  0.22777688103E+02  0.19791828447E+02  0.12984808626E+02  0.32850339476E+02  0.00000000000E+00 0.  1.
<mgrwt>
<rscale>  0 0.21798153E+04</rscale>
<asrwt>0</asrwt>
<pdfrwt beam="1">  1        2 0.29532374E+00 0.21798153E+04</pdfrwt>
<pdfrwt beam="2">  1       -2 0.95203813E-01 0.21798153E+04</pdfrwt>
<totfact> 0.62871750E+00</totfact>
</mgrwt>
</event>
<event>
12    1  0.1397649E-007  0.1387221E+04  0.7818608E-02  0.8963121E-01
         -4   -1    0    0    0  501 -0.00000000000E+00  0.00000000000E+00  0.59014160677E+03  0.59014160677E+03  0.00000000000E+00 0.  1.
          4   -1    0    0  501    0  0.00000000000E+00 -0.00000000000E+00 -0.81522012452E+03  0.81522012452E+03  0.00000000000E+00 0. -1.
         23    2    1    2    0    0 -0.35386664841E+03  0.89251092573E+02 -0.24814219645E+03  0.45085726044E+03  0.92251597559E+02 0.  0.
        254    2    1    2    0    0  0.35386664841E+03 -0.89251092573E+02  0.23063678702E+02  0.95450447085E+03  0.88167992447E+03 0.  0.
        -24    2    4    4    0    0  0.24418435012E+03 -0.47784857712E+03  0.14395914847E+02  0.54273120672E+03  0.79904073001E+02 0.  0.
         24    2    4    4    0    0  0.10968229828E+03  0.38859748455E+03  0.86677638545E+01  0.41177326413E+03  0.80273777587E+02 0.  0.
         11    1    3    3    0    0 -0.17056471330E+03  0.90555564200E+02 -0.12877212404E+03  0.23210965417E+03  0.00000000000E+00 0. -1.
        -11    1    3    3    0    0 -0.18330193511E+03 -0.13044716272E+01 -0.11937007241E+03  0.21874760626E+03  0.00000000000E+00 0.  1.
          4    1    6    6  502    0  0.10812881187E+03  0.27477464995E+03  0.26826413168E+02  0.29650059807E+03  0.00000000000E+00 0. -1.
          1    1    5    5  503    0  0.24781321249E+03 -0.47101600538E+03  0.73688518403E+01  0.53227978130E+03  0.00000000000E+00 0. -1.
         -2    1    5    5    0  503 -0.36288623704E+01 -0.68325717472E+01  0.70270630071E+01  0.10451425419E+02  0.00000000000E+00 0.  1.
         -3    1    6    6    0  502  0.15534864136E+01  0.11382283460E+03 -0.18158649313E+02  0.11527266606E+03  0.00000000000E+00 0.  1.
<mgrwt>
<rscale>  0 0.13872207E+04</rscale>
<asrwt>0</asrwt>
<pdfrwt beam="1">  1        4 0.12541848E+00 0.13872207E+04</pdfrwt>
<pdfrwt beam="2">  1       -4 0.90791017E-01 0.13872207E+04</pdfrwt>
<totfact> 0.95621993E-01</totfact>
</mgrwt>
</event>
<event>
12    1  0.1397649E-007  0.3372541E+04  0.7818608E-02  0.8144679E-01
         -1   -1    0    0    0  501 -0.00000000000E+00  0.00000000000E+00  0.95254383937E+03  0.95254383937E+03  0.00000000000E+00 0.  1.
          1   -1    0    0  501    0  0.00000000000E+00 -0.00000000000E+00 -0.29851731705E+04  0.29851731705E+04  0.00000000000E+00 0. -1.
         23    2    1    2    0    0 -0.12991987570E+03  0.82268992796E+03 -0.25014886826E+04  0.26380706876E+04  0.90958407022E+02 0.  0.
        254    2    1    2    0    0  0.12991987570E+03 -0.82268992796E+03  0.46885935152E+03  0.12996463222E+04  0.88065519911E+03 0.  0.
        -24    2    4    4    0    0  0.30241938940E+03 -0.36286085100E+03  0.61640873507E+03  0.78084528829E+03  0.81450299598E+02 0.  0.
         24    2    4    4    0    0 -0.17249951370E+03 -0.45982907696E+03 -0.14754938354E+03  0.51880103394E+03  0.78643690115E+02 0.  0.
         11    1    3    3    0    0  0.13229405970E+02  0.10565836317E+03 -0.33621813539E+03  0.35267739005E+03  0.00000000000E+00 0. -1.
        -11    1    3    3    0    0 -0.14314928167E+03  0.71703156479E+03 -0.21652705472E+04  0.22853932975E+04  0.00000000000E+00 0.  1.
          2    1    6    6  502    0 -0.15060648462E+03 -0.32732448840E+03 -0.82779171278E+02  0.36969720734E+03  0.00000000000E+00 0. -1.
          1    1    5    5  503    0  0.26272126551E+03 -0.27334035637E+03  0.45736740223E+03  0.59407268443E+03  0.00000000000E+00 0. -1.
         -2    1    5    5    0  503  0.39698123888E+02 -0.89520494631E+02  0.15904133284E+03  0.18677260386E+03  0.00000000000E+00 0.  1.
         -1    1    6    6    0  502 -0.21893029072E+02 -0.13250458856E+03 -0.64770212265E+02  0.14910382660E+03  0.00000000000E+00 0.  1.
<mgrwt>
<rscale>  0 0.33725411E+04</rscale>
<asrwt>0</asrwt>
<pdfrwt beam="1">  1        1 0.45925741E+00 0.33725411E+04</pdfrwt>
<pdfrwt beam="2">  1       -1 0.14654521E+00 0.33725411E+04</pdfrwt>
<totfact> 0.18754723E-01</totfact>
</mgrwt>
</event>
<event>
12    1  0.1397649E-007  0.1871729E+04  0.7818608E-02  0.8669058E-01
         -1   -1    0    0    0  501 -0.00000000000E+00  0.00000000000E+00  0.37577113913E+03  0.37577113913E+03  0.00000000000E+00 0.  1.
          1   -1    0    0  501    0  0.00000000000E+00 -0.00000000000E+00 -0.23307854344E+04  0.23307854344E+04  0.00000000000E+00 0. -1.
         23    2    1    2    0    0 -0.28007318405E+03 -0.19948038315E+03 -0.16663985489E+04  0.17039138983E+04  0.90581661624E+02 0.  0.
        254    2    1    2    0    0  0.28007318405E+03  0.19948038315E+03 -0.28861574645E+03  0.10026426753E+04  0.89652656041E+03 0.  0.
        -24    2    4    4    0    0 -0.29874808260E+03 -0.60393348630E+02 -0.44627466279E+02  0.31821123369E+03  0.79806046677E+02 0.  0.
         24    2    4    4    0    0  0.57882126665E+03  0.25987373178E+03 -0.24398828017E+03  0.68443144159E+03  0.79672468165E+02 0.  0.
         13    1    3    3    0    0 -0.13454091812E+03 -0.12472894209E+03 -0.69360840764E+03  0.71746163019E+03  0.00000000000E+00 0. -1.
        -13    1    3    3    0    0 -0.14553226593E+03 -0.74751441055E+02 -0.97279014122E+03  0.98645226809E+03  0.00000000000E+00 0.  1.
          2    1    6    6  502    0  0.18190113327E+03  0.46917334640E+02 -0.90868745157E+02  0.20867771184E+03  0.00000000000E+00 0. -1.
          1    1    5    5  503    0 -0.28340646289E+02  0.16938721348E+02 -0.11762651959E+02  0.35049571952E+02  0.00000000000E+00 0. -1.
         -2    1    5    5    0  503 -0.27040743631E+03 -0.77332069978E+02 -0.32864814320E+02  0.28316166174E+03  0.00000000000E+00 0.  1.
         -1    1    6    6    0  502  0.39692013338E+03  0.21295639714E+03 -0.15311953501E+03  0.47575372975E+03  0.00000000000E+00 0.  1.
<mgrwt>
<rscale>  0 0.18717285E+04</rscale>
<asrwt>0</asrwt>
<pdfrwt beam="1">  1        1 0.35858239E+00 0.18717285E+04</pdfrwt>
<pdfrwt beam="2">  1       -1 0.57810943E-01 0.18717285E+04</pdfrwt>
<totfact> 0.50418418E+00</totfact>
</mgrwt>
</event>
<event>
12    1  0.1450738E-007  0.2779062E+04  0.7818608E-02  0.8309798E-01
          1   -1    0    0  501    0  0.00000000000E+00  0.00000000000E+00  0.15354679346E+04  0.15354679346E+04  0.00000000000E+00 0. -1.
         -1   -1    0    0    0  501 -0.00000000000E+00 -0.00000000000E+00 -0.12574648395E+04  0.12574648395E+04  0.00000000000E+00 0.  1.
         23    2    1    2    0    0  0.41081204613E+03 -0.57120902075E+03 -0.90268969837E+03  0.11481304963E+04  0.91151863988E+02 0.  0.
        254    2    1    2    0    0 -0.41081204613E+03  0.57120902075E+03  0.11806927935E+04  0.16448022777E+04  0.90348922385E+03 0.  0.
        -24    2    4    4    0    0 -0.43454162785E+03 -0.90213019638E+02  0.65806895561E+03  0.79753880969E+03  0.77772664648E+02 0.  0.
         24    2    4    4    0    0  0.23729581722E+02  0.66142204039E+03  0.52262383786E+03  0.84726346804E+03  0.81715970317E+02 0.  0.
         13    1    3    3    0    0  0.28655436171E+03 -0.44038003908E+03 -0.61893476776E+03  0.81186712445E+03  0.00000000000E+00 0.  1.
        -13    1    3    3    0    0  0.12425768442E+03 -0.13082898168E+03 -0.28375493061E+03  0.33626337183E+03  0.00000000000E+00 0. -1.
          4    1    6    6  502    0  0.31309859349E+02  0.88173881617E+02  0.71988013080E+02  0.11805598129E+03  0.00000000000E+00 0. -1.
          3    1    5    5  503    0 -0.22190192605E+02  0.12104086353E+02  0.29401778515E+02  0.38773420459E+02  0.00000000000E+00 0. -1.
         -4    1    5    5    0  503 -0.41235143525E+03 -0.10231710599E+03  0.62866717710E+03  0.75876538923E+03  0.00000000000E+00 0.  1.
         -3    1    6    6    0  502 -0.75802776265E+01  0.57324815878E+03  0.45063582478E+03  0.72920748675E+03  0.00000000000E+00 0.  1.
<mgrwt>
<rscale>  0 0.27790624E+04</rscale>
<asrwt>0</asrwt>
<pdfrwt beam="1">  1        1 0.23622584E+00 0.27790624E+04</pdfrwt>
<pdfrwt beam="2">  1       -1 0.19345613E+00 0.27790624E+04</pdfrwt>
<totfact> 0.89601738E-01</totfact>
</mgrwt>
</event>
<event>
12    1  0.1397649E-007  0.3640415E+04  0.7818608E-02  0.8081296E-01
         -1   -1    0    0    0  501 -0.00000000000E+00  0.00000000000E+00  0.17045096806E+04  0.17045096806E+04  0.00000000000E+00 0.  1.
          1   -1    0    0  501    0  0.00000000000E+00 -0.00000000000E+00 -0.19437581136E+04  0.19437581136E+04  0.00000000000E+00 0. -1.
         23    2    1    2    0    0  0.95099767066E+01  0.11995931032E+04  0.11049087611E+04  0.16333642455E+04  0.89114168533E+02 0.  0.
        254    2    1    2    0    0 -0.95099767066E+01 -0.11995931032E+04 -0.13441571942E+04  0.20149035487E+04  0.90219936536E+03 0.  0.
        -24    2    4    4    0    0  0.37141863163E+03 -0.63856265426E+03 -0.10120695650E+04  0.12555644813E+04  0.80270162666E+02 0.  0.
         24    2    4    4    0    0 -0.38092860834E+03 -0.56103044897E+03 -0.33208762919E+03  0.75933906737E+03  0.80323448958E+02 0.  0.
         13    1    3    3    0    0  0.67900543049E+01  0.11234210201E+04  0.10617159276E+04  0.15457559976E+04  0.00000000000E+00 0.  1.
        -13    1    3    3    0    0  0.27199224017E+01  0.76172083156E+02  0.43192833535E+02  0.87608247894E+02  0.00000000000E+00 0. -1.
          4    1    6    6  502    0 -0.26585918131E+03 -0.32751691806E+03 -0.22205127112E+03  0.47671291456E+03  0.00000000000E+00 0. -1.
          1    1    5    5  503    0  0.25194247281E+03 -0.38287774395E+03 -0.57541042371E+03  0.73564089890E+03  0.00000000000E+00 0. -1.
         -2    1    5    5    0  503  0.11947615882E+03 -0.25568491031E+03 -0.43665914128E+03  0.51992358242E+03  0.00000000000E+00 0.  1.
         -3    1    6    6    0  502 -0.11506942702E+03 -0.23351353091E+03 -0.11003635807E+03  0.28262615281E+03  0.00000000000E+00 0.  1.
<mgrwt>
<rscale>  0 0.36404145E+04</rscale>
<asrwt>0</asrwt>
<pdfrwt beam="1">  1        1 0.29903971E+00 0.36404145E+04</pdfrwt>
<pdfrwt beam="2">  1       -1 0.26223226E+00 0.36404145E+04</pdfrwt>
<totfact> 0.15225819E-01</totfact>
</mgrwt>
</event>
<event>
12    1  0.1397649E-007  0.2207933E+04  0.7818608E-02  0.8515134E-01
          1   -1    0    0  501    0  0.00000000000E+00  0.00000000000E+00  0.30518097619E+04  0.30518097619E+04  0.00000000000E+00 0. -1.
         -1   -1    0    0    0  501 -0.00000000000E+00 -0.00000000000E+00 -0.39935051065E+03  0.39935051065E+03  0.00000000000E+00 0.  1.
         23    2    1    2    0    0  0.21306766166E+03  0.18602121077E+03  0.24953742882E+04  0.25129723770E+04  0.90197618476E+02 0.  0.
        254    2    1    2    0    0 -0.21306766166E+03 -0.18602121077E+03  0.15708496303E+03  0.93818789547E+03  0.88063563538E+03 0.  0.
        -24    2    4    4    0    0  0.33668158035E+03 -0.57308258333E+02  0.10346465501E+03  0.36561404755E+03  0.79561133158E+02 0.  0.
         24    2    4    4    0    0 -0.54974924200E+03 -0.12871295244E+03  0.53620308020E+02  0.57257384793E+03  0.78577482072E+02 0.  0.
         13    1    3    3    0    0  0.15732333455E+03  0.12265206836E+03  0.13712428400E+04  0.13856771225E+04  0.00000000000E+00 0. -1.
        -13    1    3    3    0    0  0.55744327109E+02  0.63369142412E+02  0.11241314482E+04  0.11272952546E+04  0.00000000000E+00 0.  1.
          4    1    6    6  502    0 -0.46704540382E+03 -0.10087893467E+03  0.17513218211E+02  0.47813667659E+03  0.00000000000E+00 0. -1.
          3    1    5    5  503    0  0.21717283951E+03 -0.45849487660E+02  0.10501066940E+03  0.24554726312E+03  0.00000000000E+00 0. -1.
         -4    1    5    5    0  503  0.11950874083E+03 -0.11458770673E+02 -0.15460143874E+01  0.12006678442E+03  0.00000000000E+00 0.  1.
         -3    1    6    6    0  502 -0.82703838183E+02 -0.27834017767E+02  0.36107089809E+02  0.94437171335E+02  0.00000000000E+00 0.  1.
<mgrwt>
<rscale>  0 0.22079328E+04</rscale>
<asrwt>0</asrwt>
<pdfrwt beam="1">  1        1 0.46950918E+00 0.22079328E+04</pdfrwt>
<pdfrwt beam="2">  1       -1 0.61438542E-01 0.22079328E+04</pdfrwt>
<totfact> 0.13421835E+00</totfact>
</mgrwt>
</event>
<event>
12    1  0.1397649E-007  0.1311932E+04  0.7818608E-02  0.9020156E-01
         -2   -1    0    0    0  501 -0.00000000000E+00  0.00000000000E+00  0.42103948022E+03  0.42103948022E+03  0.00000000000E+00 0. -1.
          2   -1    0    0  501    0  0.00000000000E+00 -0.00000000000E+00 -0.10219745284E+04  0.10219745284E+04  0.00000000000E+00 0.  1.
         23    2    1    2    0    0 -0.14336284304E+03  0.13039938052E+03 -0.46752305383E+03  0.51489374450E+03  0.94767394459E+02 0.  0.
        254    2    1    2    0    0  0.14336284304E+03 -0.13039938052E+03 -0.13341199434E+03  0.92812026411E+03  0.89780374315E+03 0.  0.
        -24    2    4    4    0    0  0.33130878239E+03 -0.43085495634E+03 -0.28255680050E+02  0.54980927272E+03  0.78040695927E+02 0.  0.
         24    2    4    4    0    0 -0.18794593934E+03  0.30045557582E+03 -0.10515631429E+03  0.37831099139E+03  0.80399792368E+02 0.  0.
         13    1    3    3    0    0 -0.17570135856E+01  0.30069077153E+02 -0.23636471209E+02  0.38287325171E+02  0.00000000000E+00 0. -1.
        -13    1    3    3    0    0 -0.14160582946E+03  0.10033030337E+03 -0.44388658262E+03  0.47660641932E+03  0.00000000000E+00 0.  1.
          4    1    6    6  502    0 -0.38896566701E+02  0.23819719782E+02  0.36893248517E+01  0.45759513431E+02  0.00000000000E+00 0. -1.
          3    1    5    5  503    0  0.11122185430E+03 -0.88721701717E+02 -0.71847913915E+01  0.14245512436E+03  0.00000000000E+00 0. -1.
         -4    1    5    5    0  503  0.22008692809E+03 -0.34213325462E+03 -0.21070888658E+02  0.40735414836E+03  0.00000000000E+00 0.  1.
         -3    1    6    6    0  502 -0.14904937264E+03  0.27663585604E+03 -0.10884563914E+03  0.33255147796E+03  0.00000000000E+00 0.  1.
<mgrwt>
<rscale>  0 0.13119324E+04</rscale>
<asrwt>0</asrwt>
<pdfrwt beam="1">  1        2 0.15722685E+00 0.13119324E+04</pdfrwt>
<pdfrwt beam="2">  1       -2 0.64775306E-01 0.13119324E+04</pdfrwt>
<totfact> 0.52537613E+01</totfact>
</mgrwt>
</event>
<event>
12    1  0.1397649E-007  0.1255840E+04  0.7818608E-02  0.9065337E-01
          2   -1    0    0  501    0  0.00000000000E+00  0.00000000000E+00  0.15560611185E+04  0.15560611185E+04  0.00000000000E+00 0. -1.
         -2   -1    0    0    0  501 -0.00000000000E+00 -0.00000000000E+00 -0.25338564293E+03  0.25338564293E+03  0.00000000000E+00 0.  1.
         23    2    1    2    0    0  0.76766956347E+02  0.25619476066E+02 -0.84026743240E+02  0.14939938972E+03  0.93328242933E+02 0.  0.
        254    2    1    2    0    0 -0.76766956347E+02 -0.25619476066E+02  0.13867022188E+04  0.16600473717E+04  0.90899103927E+03 0.  0.
        -24    2    4    4    0    0 -0.38660466397E+03  0.26645711100E+03  0.66078609284E+03  0.81469736661E+03  0.81430832432E+02 0.  0.
         24    2    4    4    0    0  0.30983770762E+03 -0.29207658707E+03  0.72591612596E+03  0.84535000507E+03  0.79713683689E+02 0.  0.
         13    1    3    3    0    0  0.76677382953E+02  0.67798300712E+01 -0.98949817202E+02  0.12536528019E+03  0.00000000000E+00 0.  1.
        -13    1    3    3    0    0  0.89573393816E-01  0.18839645995E+02  0.14923073962E+02  0.24034109534E+02  0.00000000000E+00 0. -1.
          4    1    6    6  502    0  0.28367944415E+03 -0.23568667053E+03  0.64879618314E+03  0.74629667087E+03  0.00000000000E+00 0. -1.
          1    1    5    5  503    0 -0.25341105360E+03  0.12997787965E+03  0.36910973750E+03  0.46621176476E+03  0.00000000000E+00 0. -1.
         -2    1    5    5    0  503 -0.13319361037E+03  0.13647923135E+03  0.29167635534E+03  0.34848560185E+03  0.00000000000E+00 0.  1.
         -1    1    6    6    0  502  0.26158263477E+02 -0.56389916545E+02  0.77119942820E+02  0.99053334202E+02  0.00000000000E+00 0.  1.
<mgrwt>
<rscale>  0 0.12558400E+04</rscale>
<asrwt>0</asrwt>
<pdfrwt beam="1">  1        2 0.23939401E+00 0.12558400E+04</pdfrwt>
<pdfrwt beam="2">  1       -2 0.38982408E-01 0.12558400E+04</pdfrwt>
<totfact> 0.72145724E+01</totfact>
</mgrwt>
</event>
<event>
12    1  0.1397649E-007  0.2396226E+04  0.7818608E-02  0.8440918E-01
          2   -1    0    0  501    0  0.00000000000E+00  0.00000000000E+00  0.25456470189E+04  0.25456470189E+04  0.00000000000E+00 0. -1.
         -2   -1    0    0    0  501 -0.00000000000E+00 -0.00000000000E+00 -0.56389394308E+03  0.56389394308E+03  0.00000000000E+00 0.  1.
         23    2    1    2    0    0 -0.71596235210E+03 -0.66297693378E+03  0.45144618489E+03  0.10790083693E+04  0.91186066851E+02 0.  0.
        254    2    1    2    0    0  0.71596235210E+03  0.66297693378E+03  0.15303068909E+04  0.20305325927E+04  0.91053990863E+03 0.  0.
        -24    2    4    4    0    0  0.38843855472E+03 -0.14721117640E+03  0.72162266062E+03  0.83722986910E+03  0.87515416544E+02 0.  0.
         24    2    4    4    0    0  0.32752379738E+03  0.81018811018E+03  0.80868423032E+03  0.11933027236E+04  0.79527316495E+02 0.  0.
         13    1    3    3    0    0 -0.68443313832E+01 -0.25618946405E+02  0.14135254706E+02  0.30049637479E+02  0.00000000000E+00 0. -1.
        -13    1    3    3    0    0 -0.70911802072E+03 -0.63735798738E+03  0.43731093018E+03  0.10489587318E+04  0.00000000000E+00 0.  1.
          2    1    6    6  502    0  0.19779610422E+03  0.44229431805E+03  0.39957178273E+03  0.62801685661E+03  0.00000000000E+00 0. -1.
          1    1    5    5  503    0  0.24401619025E+03 -0.10464612468E+03  0.53653856781E+03  0.59863874521E+03  0.00000000000E+00 0. -1.
         -2    1    5    5    0  503  0.14442236447E+03 -0.42565051722E+02  0.18508409281E+03  0.23859112389E+03  0.00000000000E+00 0.  1.
         -1    1    6    6    0  502  0.12972769317E+03  0.36789379213E+03  0.40911244759E+03  0.56528586700E+03  0.00000000000E+00 0.  1.
<mgrwt>
<rscale>  0 0.23962261E+04</rscale>
<asrwt>0</asrwt>
<pdfrwt beam="1">  1        2 0.39163800E+00 0.23962261E+04</pdfrwt>
<pdfrwt beam="2">  1       -2 0.86752916E-01 0.23962261E+04</pdfrwt>
<totfact> 0.33871071E+00</totfact>
</mgrwt>
</event>
<event>
12    1  0.1397649E-007  0.1483503E+04  0.7818608E-02  0.8895498E-01
          1   -1    0    0  501    0  0.00000000000E+00  0.00000000000E+00  0.42199539624E+03  0.42199539624E+03  0.00000000000E+00 0. -1.
         -1   -1    0    0    0  501 -0.00000000000E+00 -0.00000000000E+00 -0.13037954042E+04  0.13037954042E+04  0.00000000000E+00 0.  1.
         23    2    1    2    0    0 -0.49739429159E+02  0.42455846075E+03 -0.47926415171E+03  0.64884777973E+03  0.92657523905E+02 0.  0.
        254    2    1    2    0    0  0.49739429159E+02 -0.42455846075E+03 -0.40253585625E+03  0.10769430207E+04  0.90279967704E+03 0.  0.
        -24    2    4    4    0    0 -0.48760196740E+01 -0.65147351719E+03 -0.48640886105E+03  0.81705139487E+03  0.80857173996E+02 0.  0.
         24    2    4    4    0    0  0.54615448833E+02  0.22691505643E+03  0.83873004802E+02  0.25989162583E+03  0.77689678570E+02 0.  0.
         13    1    3    3    0    0 -0.48606122822E+02  0.32351958795E+03 -0.41754434109E+03  0.53044392328E+03  0.00000000000E+00 0.  1.
        -13    1    3    3    0    0 -0.11333063368E+01  0.10103887280E+03 -0.61719810622E+02  0.11840385646E+03  0.00000000000E+00 0. -1.
          2    1    6    6  502    0  0.52337046563E+02  0.20556184555E+03  0.47066862482E+02  0.21727891828E+03  0.00000000000E+00 0. -1.
          3    1    5    5  503    0 -0.59187518636E+01 -0.64709227915E+03 -0.46934938405E+03  0.79940746410E+03  0.00000000000E+00 0. -1.
         -4    1    5    5    0  503  0.10427321897E+01 -0.43812380348E+01 -0.17059477008E+02  0.17643930767E+02  0.00000000000E+00 0.  1.
         -1    1    6    6    0  502  0.22784022706E+01  0.21353210886E+02  0.36806142319E+02  0.42612707547E+02  0.00000000000E+00 0.  1.
<mgrwt>
<rscale>  0 0.14835035E+04</rscale>
<asrwt>0</asrwt>
<pdfrwt beam="1">  1        1 0.64922369E-01 0.14835035E+04</pdfrwt>
<pdfrwt beam="2">  1       -1 0.20058391E+00 0.14835035E+04</pdfrwt>
<totfact> 0.80650282E+00</totfact>
</mgrwt>
</event>
<event>
12    1  0.1397649E-007  0.1765658E+04  0.7818608E-02  0.8724778E-01
          2   -1    0    0  501    0  0.00000000000E+00  0.00000000000E+00  0.38992598521E+04  0.38992598521E+04  0.00000000000E+00 0. -1.
         -2   -1    0    0    0  501 -0.00000000000E+00 -0.00000000000E+00 -0.19988076670E+03  0.19988076670E+03  0.00000000000E+00 0.  1.
         23    2    1    2    0    0  0.30695723975E+03  0.49102255151E+03  0.70425328625E+03  0.91616080882E+03  0.89733178339E+02 0.  0.
        254    2    1    2    0    0 -0.30695723975E+03 -0.49102255151E+03  0.29951257992E+04  0.31829798100E+04  0.90843603238E+03 0.  0.
        -24    2    4    4    0    0 -0.32362411770E+03 -0.12518675311E+03  0.31077899676E+03  0.47245991027E+03  0.78933448350E+02 0.  0.
         24    2    4    4    0    0  0.16666877958E+02 -0.36583579840E+03  0.26843468024E+04  0.27105198998E+04  0.84182866758E+02 0.  0.
         13    1    3    3    0    0  0.31075020066E+03  0.48819951034E+03  0.70413214448E+03  0.91143103194E+03  0.00000000000E+00 0.  1.
        -13    1    3    3    0    0 -0.37929609114E+01  0.28230411707E+01  0.12114177055E+00  0.47297768717E+01  0.00000000000E+00 0. -1.
          4    1    6    6  502    0 -0.41752024408E+01 -0.33731721210E+03  0.25154072298E+04  0.25379270805E+04  0.00000000000E+00 0. -1.
          1    1    5    5  503    0 -0.25300216284E+03 -0.63546471945E+02  0.24563029180E+03  0.35830502194E+03  0.00000000000E+00 0. -1.
         -2    1    5    5    0  503 -0.70621954867E+02 -0.61640281163E+02  0.65148704960E+02  0.11415488833E+03  0.00000000000E+00 0.  1.
         -3    1    6    6    0  502  0.20842080399E+02 -0.28518586303E+02  0.16893957259E+03  0.17259281928E+03  0.00000000000E+00 0.  1.
<mgrwt>
<rscale>  0 0.17656580E+04</rscale>
<asrwt>0</asrwt>
<pdfrwt beam="1">  1        2 0.59988608E+00 0.17656580E+04</pdfrwt>
<pdfrwt beam="2">  1       -2 0.30750890E-01 0.17656580E+04</pdfrwt>
<totfact> 0.38688337E+00</totfact>
</mgrwt>
</event>
<event>
12    1  0.1397649E-007  0.1348314E+04  0.7818608E-02  0.8992105E-01
          2   -1    0    0  501    0  0.00000000000E+00  0.00000000000E+00  0.16201108895E+04  0.16201108895E+04  0.00000000000E+00 0. -1.
         -2   -1    0    0    0  501 -0.00000000000E+00 -0.00000000000E+00 -0.28052889558E+03  0.28052889558E+03  0.00000000000E+00 0.  1.
         23    2    1    2    0    0  0.83348972266E+02  0.35028443503E+03  0.33222295801E+03  0.49882613102E+03  0.93857224327E+02 0.  0.
        254    2    1    2    0    0 -0.83348972266E+02 -0.35028443503E+03  0.10073590359E+04  0.14018136541E+04  0.90590455176E+03 0.  0.
        -24    2    4    4    0    0 -0.47637799384E+03 -0.24549870968E+03  0.43202744222E+03  0.69291147359E+03  0.79202209097E+02 0.  0.
         24    2    4    4    0    0  0.39302902158E+03 -0.10478572535E+03  0.57533159373E+03  0.70890218051E+03  0.77999991979E+02 0.  0.
         13    1    3    3    0    0  0.76268755494E+02  0.26355300914E+03  0.19601201124E+03  0.33719107379E+03  0.00000000000E+00 0.  1.
        -13    1    3    3    0    0  0.70802167714E+01  0.86731425882E+02  0.13621094677E+03  0.16163505723E+03  0.00000000000E+00 0. -1.
          4    1    6    6  502    0  0.16021565788E+03 -0.82280056575E+02  0.26014171982E+03  0.31640603523E+03  0.00000000000E+00 0. -1.
          3    1    5    5  503    0 -0.47241017448E+03 -0.24432226636E+03  0.41282349987E+03  0.67326665211E+03  0.00000000000E+00 0. -1.
         -4    1    5    5    0  503 -0.39678193588E+01 -0.11764433221E+01  0.19203942341E+02  0.19644821475E+02  0.00000000000E+00 0.  1.
         -3    1    6    6    0  502  0.23281336370E+03 -0.22505668771E+02  0.31518987391E+03  0.39249614528E+03  0.00000000000E+00 0.  1.
<mgrwt>
<rscale>  0 0.13483144E+04</rscale>
<asrwt>0</asrwt>
<pdfrwt beam="1">  1        2 0.24924782E+00 0.13483144E+04</pdfrwt>
<pdfrwt beam="2">  1       -2 0.43158292E-01 0.13483144E+04</pdfrwt>
<totfact> 0.54024351E+01</totfact>
</mgrwt>
</event>
<event>
12    1  0.1397649E-007  0.1327367E+04  0.7818608E-02  0.9008140E-01
         -2   -1    0    0    0  501 -0.00000000000E+00  0.00000000000E+00  0.43388382058E+03  0.43388382058E+03  0.00000000000E+00 0.  1.
          2   -1    0    0  501    0  0.00000000000E+00 -0.00000000000E+00 -0.10151926651E+04  0.10151926651E+04  0.00000000000E+00 0. -1.
         23    2    1    2    0    0 -0.13598349291E+03  0.22657116788E+03  0.95886639902E+02  0.29429098753E+03  0.87103003241E+02 0.  0.
        254    2    1    2    0    0  0.13598349291E+03 -0.22657116788E+03 -0.67719548447E+03  0.11547854982E+04  0.89727911944E+03 0.  0.
        -24    2    4    4    0    0  0.11018895428E+03 -0.56139947060E+03 -0.32945554553E+03  0.66466973695E+03  0.77032016050E+02 0.  0.
         24    2    4    4    0    0  0.25794538632E+02  0.33482830272E+03 -0.34773993894E+03  0.49011576124E+03  0.80715821009E+02 0.  0.
         13    1    3    3    0    0 -0.84778617568E+02  0.18532814549E+03  0.10265807753E+03  0.22819425144E+03  0.00000000000E+00 0.  1.
        -13    1    3    3    0    0 -0.51204875343E+02  0.41243022390E+02 -0.67714376314E+01  0.66096736095E+02  0.00000000000E+00 0. -1.
          2    1    6    6  502    0 -0.23109177648E+02  0.86960696611E+02 -0.11990922641E+03  0.14991470716E+03  0.00000000000E+00 0. -1.
          3    1    5    5  503    0  0.10901857616E+02 -0.19550108335E+03 -0.84288408643E+02  0.21317612418E+03  0.00000000000E+00 0. -1.
         -4    1    5    5    0  503  0.99287096663E+02 -0.36589838725E+03 -0.24516713689E+03  0.45149361277E+03  0.00000000000E+00 0.  1.
         -1    1    6    6    0  502  0.48903716280E+02  0.24786760611E+03 -0.22783071253E+03  0.34020105408E+03  0.00000000000E+00 0.  1.
<mgrwt>
<rscale>  0 0.13273668E+04</rscale>
<asrwt>0</asrwt>
<pdfrwt beam="1">  1        2 0.15618349E+00 0.13273668E+04</pdfrwt>
<pdfrwt beam="2">  1       -2 0.66751357E-01 0.13273668E+04</pdfrwt>
<totfact> 0.49680511E+01</totfact>
</mgrwt>
</event>
<event>
12    1  0.1397649E-007  0.3855244E+04  0.7818608E-02  0.8034402E-01
          1   -1    0    0  501    0  0.00000000000E+00  0.00000000000E+00  0.22599120814E+04  0.22599120814E+04  0.00000000000E+00 0. -1.
         -1   -1    0    0    0  501 -0.00000000000E+00 -0.00000000000E+00 -0.16441908984E+04  0.16441908984E+04  0.00000000000E+00 0.  1.
         23    2    1    2    0    0  0.14112302108E+04 -0.71007918151E+03  0.12139706510E+04  0.19944425959E+04  0.91067970694E+02 0.  0.
        254    2    1    2    0    0 -0.14112302108E+04  0.71007918151E+03 -0.59824946807E+03  0.19096603839E+04  0.89057127950E+03 0.  0.
        -24    2    4    4    0    0 -0.14453502114E+04  0.79556656616E+03 -0.65403505120E+03  0.17764415065E+04  0.77583394375E+02 0.  0.
         24    2    4    4    0    0  0.34120000663E+02 -0.85487384655E+02  0.55785583129E+02  0.13321887733E+03  0.78504589747E+02 0.  0.
         11    1    3    3    0    0  0.11872516227E+04 -0.57682098368E+03  0.10486302324E+04  0.16857978013E+04  0.00000000000E+00 0. -1.
        -11    1    3    3    0    0  0.22397858808E+03 -0.13325819783E+03  0.16534041862E+03  0.30864479460E+03  0.00000000000E+00 0.  1.
          4    1    6    6  502    0  0.30395306577E+02  0.11545192193E+01  0.30053097405E+02  0.42759750235E+02  0.00000000000E+00 0. -1.
          3    1    5    5  503    0 -0.11306541924E+04  0.59079653155E+03 -0.48679588753E+03  0.13654265563E+04  0.00000000000E+00 0. -1.
         -4    1    5    5    0  503 -0.31469601900E+03  0.20477003462E+03 -0.16723916368E+03  0.41101495023E+03  0.00000000000E+00 0.  1.
         -3    1    6    6    0  502  0.37246940859E+01 -0.86641903875E+02  0.25732485724E+02  0.90459127094E+02  0.00000000000E+00 0.  1.
<mgrwt>
<rscale>  0 0.38552442E+04</rscale>
<asrwt>0</asrwt>
<pdfrwt beam="1">  1        1 0.34767878E+00 0.38552442E+04</pdfrwt>
<pdfrwt beam="2">  1       -1 0.25295245E+00 0.38552442E+04</pdfrwt>
<totfact> 0.10472906E-01</totfact>
</mgrwt>
</event>
<event>
12    1  0.1397649E-007  0.2078950E+04  0.7818608E-02  0.8570573E-01
          2   -1    0    0  501    0  0.00000000000E+00  0.00000000000E+00  0.16516552592E+04  0.16516552592E+04  0.00000000000E+00 0. -1.
         -2   -1    0    0    0  501 -0.00000000000E+00 -0.00000000000E+00 -0.65419750191E+03  0.65419750191E+03  0.00000000000E+00 0.  1.
         23    2    1    2    0    0  0.52215769940E+03  0.99698165314E+02  0.11269430458E+04  0.12494244091E+04  0.92045305713E+02 0.  0.
        254    2    1    2    0    0 -0.52215769940E+03 -0.99698165314E+02 -0.12948528858E+03  0.10564283520E+04  0.90370683059E+03 0.  0.
        -24    2    4    4    0    0 -0.70064703842E+03 -0.13741659284E+03 -0.31449108946E+03  0.78426367431E+03  0.79845306952E+02 0.  0.
         24    2    4    4    0    0  0.17848933903E+03  0.37718427526E+02  0.18500580088E+03  0.27216467765E+03  0.81026794827E+02 0.  0.
         13    1    3    3    0    0  0.43629392769E+03  0.11742159813E+03  0.94131569678E+03  0.10441338344E+04  0.00000000000E+00 0. -1.
        -13    1    3    3    0    0  0.85863771703E+02 -0.17723432817E+02  0.18562734904E+03  0.20529057473E+03  0.00000000000E+00 0.  1.
          2    1    6    6  502    0  0.93924050630E+01  0.16793205459E+02 -0.17992442913E+01  0.19325276259E+02  0.00000000000E+00 0. -1.
          3    1    5    5  503    0 -0.16143827140E+03 -0.35792060158E+02 -0.37265564755E+02  0.16950548475E+03  0.00000000000E+00 0. -1.
         -4    1    5    5    0  503 -0.53920876703E+03 -0.10162453268E+03 -0.27722552471E+03  0.61475818956E+03  0.00000000000E+00 0.  1.
         -1    1    6    6    0  502  0.16909693397E+03  0.20925222067E+02  0.18680504517E+03  0.25283940140E+03  0.00000000000E+00 0.  1.
<mgrwt>
<rscale>  0 0.20789505E+04</rscale>
<asrwt>0</asrwt>
<pdfrwt beam="1">  1        2 0.25410081E+00 0.20789505E+04</pdfrwt>
<pdfrwt beam="2">  1       -2 0.10064577E+00 0.20789505E+04</pdfrwt>
<totfact> 0.78361909E+00</totfact>
</mgrwt>
</event>
<event>
12    1  0.1397649E-007  0.2363075E+04  0.7818608E-02  0.8453458E-01
         -1   -1    0    0    0  501 -0.00000000000E+00  0.00000000000E+00  0.25389852605E+04  0.25389852605E+04  0.00000000000E+00 0.  1.
          1   -1    0    0  501    0  0.00000000000E+00 -0.00000000000E+00 -0.54983831523E+03  0.54983831523E+03  0.00000000000E+00 0. -1.
         23    2    1    2    0    0  0.10738864377E+03  0.91518416831E+03  0.31748313116E+03  0.97926063476E+03  0.95191751114E+02 0.  0.
        254    2    1    2    0    0 -0.10738864377E+03 -0.91518416831E+03  0.16716638141E+04  0.21095629410E+04  0.89816563715E+03 0.  0.
        -24    2    4    4    0    0 -0.26059572524E+03 -0.94530275610E+03  0.16642271294E+04  0.19332609529E+04  0.79614954668E+02 0.  0.
         24    2    4    4    0    0  0.15320708147E+03  0.30118587790E+02  0.74366847004E+01  0.17630198807E+03  0.81532493993E+02 0.  0.
         11    1    3    3    0    0  0.59385346291E+01  0.45283950567E+03  0.14659247249E+03  0.47601285390E+03  0.00000000000E+00 0. -1.
        -11    1    3    3    0    0  0.10145010914E+03  0.46234466264E+03  0.17089065867E+03  0.50324778086E+03  0.00000000000E+00 0.  1.
          2    1    6    6  502    0  0.13966319319E+03  0.44263725131E+02 -0.14107301202E+02  0.14718729850E+03  0.00000000000E+00 0. -1.
          1    1    5    5  503    0 -0.23933106126E+03 -0.88670508640E+03  0.15912794704E+04  0.18373066212E+04  0.00000000000E+00 0. -1.
         -2    1    5    5    0  503 -0.21264663977E+02 -0.58597669695E+02  0.72947658988E+02  0.95954331740E+02  0.00000000000E+00 0.  1.
         -1    1    6    6    0  502  0.13543888281E+02 -0.14145137341E+02  0.21543985903E+02  0.29114689570E+02  0.00000000000E+00 0.  1.
<mgrwt>
<rscale>  0 0.23630754E+04</rscale>
<asrwt>0</asrwt>
<pdfrwt beam="1">  1        1 0.84590511E-01 0.23630754E+04</pdfrwt>
<pdfrwt beam="2">  1       -1 0.39061311E+00 0.23630754E+04</pdfrwt>
<totfact> 0.28935429E-01</totfact>
</mgrwt>
</event>
<event>
12    1  0.1397649E-007  0.1945481E+04  0.7818608E-02  0.8632543E-01
          2   -1    0    0  501    0  0.00000000000E+00  0.00000000000E+00  0.13938781612E+04  0.13938781612E+04  0.00000000000E+00 0. -1.
         -2   -1    0    0    0  501 -0.00000000000E+00 -0.00000000000E+00 -0.67884254603E+03  0.67884254603E+03  0.00000000000E+00 0.  1.
         23    2    1    2    0    0 -0.46831916143E+03  0.29349336303E+03 -0.27626302317E+03  0.62169651048E+03  0.68732103596E+02 0.  0.
        254    2    1    2    0    0  0.46831916143E+03 -0.29349336303E+03  0.99129863831E+03  0.14510241967E+04  0.90406694335E+03 0.  0.
        -24    2    4    4    0    0  0.55991108679E+03 -0.48690301930E+03  0.47188975435E+03  0.88323493668E+03  0.82758913623E+02 0.  0.
         24    2    4    4    0    0 -0.91591925363E+02  0.19340965627E+03  0.51940888396E+03  0.56778926005E+03  0.82478355705E+02 0.  0.
         13    1    3    3    0    0 -0.23923084868E+03  0.13927447398E+03 -0.10127823707E+03  0.29476441333E+03  0.00000000000E+00 0. -1.
        -13    1    3    3    0    0 -0.22908831275E+03  0.15421888905E+03 -0.17498478610E+03  0.32693209715E+03  0.00000000000E+00 0.  1.
          4    1    6    6  502    0 -0.89950804197E+01 -0.66357324052E+01  0.13473247198E+02  0.17506364739E+02  0.00000000000E+00 0. -1.
          3    1    5    5  503    0  0.30159185229E+03 -0.21345910954E+03  0.21152652125E+03  0.42575333940E+03  0.00000000000E+00 0. -1.
         -2    1    5    5    0  503  0.25831923450E+03 -0.27344390976E+03  0.26036323310E+03  0.45748159728E+03  0.00000000000E+00 0.  1.
         -3    1    6    6    0  502 -0.82596844943E+02  0.20004538868E+03  0.50593563676E+03  0.55028289531E+03  0.00000000000E+00 0.  1.
<mgrwt>
<rscale>  0 0.19454807E+04</rscale>
<asrwt>0</asrwt>
<pdfrwt beam="1">  1        2 0.21444279E+00 0.19454807E+04</pdfrwt>
<pdfrwt beam="2">  1       -2 0.10443732E+00 0.19454807E+04</pdfrwt>
<totfact> 0.10138115E+01</totfact>
</mgrwt>
</event>
<event>
12    1  0.1397649E-007  0.1145298E+04  0.7818608E-02  0.9162132E-01
          1   -1    0    0  501    0  0.00000000000E+00  0.00000000000E+00  0.87384648143E+03  0.87384648143E+03  0.00000000000E+00 0. -1.
         -1   -1    0    0    0  501 -0.00000000000E+00 -0.00000000000E+00 -0.37526823751E+03  0.37526823751E+03  0.00000000000E+00 0.  1.
         23    2    1    2    0    0 -0.19482148284E+03  0.29186301459E+02 -0.84660055646E+01  0.21715708694E+03  0.90985036070E+02 0.  0.
        254    2    1    2    0    0  0.19482148284E+03 -0.29186301459E+02  0.50704424948E+03  0.10319576320E+04  0.87694665342E+03 0.  0.
        -24    2    4    4    0    0  0.47848259199E+03  0.16257096837E+03  0.15481921083E+03  0.53442818075E+03  0.79180690485E+02 0.  0.
         24    2    4    4    0    0 -0.28366110916E+03 -0.19175726983E+03  0.35222503866E+03  0.49752945125E+03  0.78984818930E+02 0.  0.
         11    1    3    3    0    0 -0.93361222500E+02  0.87345471127E+01  0.41122775164E+02  0.10238990584E+03  0.00000000000E+00 0. -1.
        -11    1    3    3    0    0 -0.10146026034E+03  0.20451754347E+02 -0.49588780728E+02  0.11476718110E+03  0.00000000000E+00 0.  1.
          2    1    6    6  502    0 -0.26946512326E+03 -0.19789909772E+03  0.32526258205E+03  0.46644533743E+03  0.00000000000E+00 0. -1.
          3    1    5    5  503    0  0.37011298907E+03  0.13933084678E+03  0.88444352683E+02  0.40523957490E+03  0.00000000000E+00 0. -1.
         -4    1    5    5    0  503  0.10836960292E+03  0.23240121594E+02  0.66374858143E+02  0.12918860585E+03  0.00000000000E+00 0.  1.
         -1    1    6    6    0  502 -0.14195985898E+02  0.61418278877E+01  0.26962456608E+02  0.31084113816E+02  0.00000000000E+00 0.  1.
<mgrwt>
<rscale>  0 0.11452979E+04</rscale>
<asrwt>0</asrwt>
<pdfrwt beam="1">  1        1 0.13443792E+00 0.11452979E+04</pdfrwt>
<pdfrwt beam="2">  1       -1 0.57733575E-01 0.11452979E+04</pdfrwt>
<totfact> 0.57743421E+01</totfact>
</mgrwt>
</event>
<event>
12    1  0.1397649E-007  0.2022082E+04  0.7818608E-02  0.8596366E-01
          2   -1    0    0  501    0  0.00000000000E+00  0.00000000000E+00  0.22204523463E+04  0.22204523463E+04  0.00000000000E+00 0. -1.
         -2   -1    0    0    0  501 -0.00000000000E+00 -0.00000000000E+00 -0.46035821170E+03  0.46035821170E+03  0.00000000000E+00 0.  1.
         23    2    1    2    0    0  0.35107721719E+03  0.51112599723E+03  0.13839428092E+04  0.15196075928E+04  0.96977006342E+02 0.  0.
        254    2    1    2    0    0 -0.35107721719E+03 -0.51112599723E+03  0.37615132541E+03  0.11612029651E+04  0.90686135056E+03 0.  0.
        -24    2    4    4    0    0  0.70781856993E+02 -0.41640388920E+03  0.54145702828E+03  0.69125486767E+03  0.79090507642E+02 0.  0.
         24    2    4    4    0    0 -0.42185907419E+03 -0.94722108035E+02 -0.16530570286E+03  0.46994809745E+03  0.81165772816E+02 0.  0.
         11    1    3    3    0    0  0.35755416888E+03  0.50184977467E+03  0.13625803219E+04  0.14954341556E+04  0.00000000000E+00 0. -1.
        -11    1    3    3    0    0 -0.64769516874E+01  0.92762225569E+01  0.21362487248E+02  0.24173437271E+02  0.00000000000E+00 0.  1.
          4    1    6    6  502    0 -0.18108843115E+02 -0.15099064831E+02 -0.26900135354E+02  0.35770507961E+02  0.00000000000E+00 0. -1.
          3    1    5    5  503    0  0.45128157704E+02 -0.35075212763E+03  0.48859470655E+03  0.60314873201E+03  0.00000000000E+00 0. -1.
         -4    1    5    5    0  503  0.25653699289E+02 -0.65651761564E+02  0.52862321723E+02  0.88106135664E+02  0.00000000000E+00 0.  1.
         -3    1    6    6    0  502 -0.40375023107E+03 -0.79623043204E+02 -0.13840556751E+03  0.43417758949E+03  0.00000000000E+00 0.  1.
<mgrwt>
<rscale>  0 0.20220816E+04</rscale>
<asrwt>0</asrwt>
<pdfrwt beam="1">  1        2 0.34160805E+00 0.20220816E+04</pdfrwt>
<pdfrwt beam="2">  1       -2 0.70824342E-01 0.20220816E+04</pdfrwt>
<totfact> 0.84499899E+00</totfact>
</mgrwt>
</event>
<event>
12    1  0.1397649E-007  0.3613721E+04  0.7818608E-02  0.8087356E-01
         -1   -1    0    0    0  501 -0.00000000000E+00  0.00000000000E+00  0.77799760151E+03  0.77799760151E+03  0.00000000000E+00 0.  1.
          1   -1    0    0  501    0  0.00000000000E+00 -0.00000000000E+00 -0.41963425291E+04  0.41963425291E+04  0.00000000000E+00 0. -1.
         23    2    1    2    0    0  0.12985722577E+04 -0.57551708898E+03 -0.28725725743E+04  0.32058642485E+04  0.91556304083E+02 0.  0.
        254    2    1    2    0    0 -0.12985722577E+04  0.57551708898E+03 -0.54577235328E+03  0.17684758821E+04  0.90118236540E+03 0.  0.
        -24    2    4    4    0    0 -0.29157245195E+03  0.53387619784E+03  0.11485713362E+02  0.61397471242E+03  0.82430191857E+02 0.  0.
         24    2    4    4    0    0 -0.10069998058E+04  0.41640891146E+02 -0.55725806664E+03  0.11545011697E+04  0.80955699498E+02 0.  0.
         11    1    3    3    0    0  0.14737880451E+03 -0.98245495405E+02 -0.35415656143E+03  0.39597924111E+03  0.00000000000E+00 0.  1.
        -11    1    3    3    0    0  0.11511934532E+04 -0.47727159358E+03 -0.25184160129E+04  0.28098850074E+04  0.00000000000E+00 0. -1.
          2    1    6    6  502    0 -0.60358138669E+03 -0.33524217088E+01 -0.30121851989E+03  0.67457714593E+03  0.00000000000E+00 0. -1.
          1    1    5    5  503    0 -0.27888887340E+03  0.53006120784E+03  0.44321763319E+01  0.59896872369E+03  0.00000000000E+00 0. -1.
         -2    1    5    5    0  503 -0.12683578541E+02  0.38149899967E+01  0.70535370297E+01  0.15005988735E+02  0.00000000000E+00 0.  1.
         -1    1    6    6    0  502 -0.40341841912E+03  0.44993312854E+02 -0.25603954675E+03  0.47992402376E+03  0.00000000000E+00 0.  1.
<mgrwt>
<rscale>  0 0.36137208E+04</rscale>
<asrwt>0</asrwt>
<pdfrwt beam="1">  1        1 0.64559116E+00 0.36137208E+04</pdfrwt>
<pdfrwt beam="2">  1       -1 0.11969194E+00 0.36137208E+04</pdfrwt>
<totfact> 0.31986653E-02</totfact>
</mgrwt>
</event>
<event>
12    1  0.1397649E-007  0.1502987E+04  0.7818608E-02  0.8882469E-01
         -2   -1    0    0    0  501 -0.00000000000E+00  0.00000000000E+00  0.18858960911E+03  0.18858960911E+03  0.00000000000E+00 0.  1.
          2   -1    0    0  501    0  0.00000000000E+00 -0.00000000000E+00 -0.29945569874E+04  0.29945569874E+04  0.00000000000E+00 0. -1.
         23    2    1    2    0    0  0.39394958288E+03  0.25275216267E+03 -0.10597856549E+04  0.11620322743E+04  0.89963562964E+02 0.  0.
        254    2    1    2    0    0 -0.39394958288E+03 -0.25275216267E+03 -0.17461817234E+04  0.20211143221E+04  0.90369937625E+03 0.  0.
        -24    2    4    4    0    0 -0.23083937173E+03 -0.35453509314E+03 -0.22554276153E+03  0.48624869258E+03  0.81156059231E+02 0.  0.
         24    2    4    4    0    0 -0.16311021115E+03  0.10178293047E+03 -0.15206389618E+04  0.15348656296E+04  0.80653225029E+02 0.  0.
         11    1    3    3    0    0  0.20542811388E+03  0.16672602415E+03 -0.67494132597E+03  0.72494418448E+03  0.00000000000E+00 0. -1.
        -11    1    3    3    0    0  0.18852146899E+03  0.86026138523E+02 -0.38484432894E+03  0.43708808986E+03  0.00000000000E+00 0.  1.
          4    1    6    6  502    0 -0.44394148666E+02  0.39649753137E+02 -0.77504318269E+03  0.77732546491E+03  0.00000000000E+00 0. -1.
          3    1    5    5  503    0 -0.13207705963E+03 -0.13311510925E+03 -0.83654969217E+02  0.20533420530E+03  0.00000000000E+00 0. -1.
         -4    1    5    5    0  503 -0.98762312097E+02 -0.22141998389E+03 -0.14188779231E+03  0.28091448728E+03  0.00000000000E+00 0.  1.
         -3    1    6    6    0  502 -0.11871606248E+03  0.62133177329E+02 -0.74559577913E+03  0.75754016466E+03  0.00000000000E+00 0.  1.
<mgrwt>
<rscale>  0 0.15029868E+04</rscale>
<asrwt>0</asrwt>
<pdfrwt beam="1">  1        2 0.46070108E+00 0.15029868E+04</pdfrwt>
<pdfrwt beam="2">  1       -2 0.29013786E-01 0.15029868E+04</pdfrwt>
<totfact> 0.18634629E+01</totfact>
</mgrwt>
</event>
<event>
12    1  0.1397649E-007  0.1921138E+04  0.7818608E-02  0.8644405E-01
         -1   -1    0    0    0  501 -0.00000000000E+00  0.00000000000E+00  0.55218476263E+03  0.55218476263E+03  0.00000000000E+00 0.  1.
          1   -1    0    0  501    0  0.00000000000E+00 -0.00000000000E+00 -0.16709863181E+04  0.16709863181E+04  0.00000000000E+00 0. -1.
         23    2    1    2    0    0  0.62558673258E+03  0.37461348413E+03 -0.52297284068E+03  0.90218645529E+03  0.93518904751E+02 0.  0.
        254    2    1    2    0    0 -0.62558673258E+03 -0.37461348413E+03 -0.59582871474E+03  0.13209846254E+04  0.92644184962E+03 0.  0.
        -24    2    4    4    0    0 -0.36815810949E+03  0.11404549296E+03  0.12150784218E+03  0.41220445609E+03  0.81250168377E+02 0.  0.
         24    2    4    4    0    0 -0.25742862308E+03 -0.48865897710E+03 -0.71733655692E+03  0.90878016930E+03  0.79073183435E+02 0.  0.
         13    1    3    3    0    0  0.14788142795E+03  0.86103170572E+02 -0.17369019535E+03  0.24382566862E+03  0.00000000000E+00 0. -1.
        -13    1    3    3    0    0  0.47770530463E+03  0.28851031356E+03 -0.34928264533E+03  0.65836078667E+03  0.00000000000E+00 0.  1.
          2    1    6    6  502    0 -0.61330663893E+02 -0.19714629950E+03 -0.25527007832E+03  0.32831528540E+03  0.00000000000E+00 0. -1.
          1    1    5    5  503    0 -0.34966143816E+03  0.91719515332E+02  0.97097482561E+02  0.37430403678E+03  0.00000000000E+00 0. -1.
         -2    1    5    5    0  503 -0.18496671332E+02  0.22325977632E+02  0.24410359614E+02  0.37900419313E+02  0.00000000000E+00 0.  1.
         -1    1    6    6    0  502 -0.19609795919E+03 -0.29151267760E+03 -0.46206647860E+03  0.58046488390E+03  0.00000000000E+00 0.  1.
<mgrwt>
<rscale>  0 0.19211384E+04</rscale>
<asrwt>0</asrwt>
<pdfrwt beam="1">  1        1 0.25707481E+00 0.19211384E+04</pdfrwt>
<pdfrwt beam="2">  1       -1 0.84951504E-01 0.19211384E+04</pdfrwt>
<totfact> 0.63859732E+00</totfact>
</mgrwt>
</event>
<event>
12    1  0.1397649E-007  0.1699826E+04  0.7818608E-02  0.8761464E-01
          2   -1    0    0  501    0  0.00000000000E+00  0.00000000000E+00  0.41921108551E+04  0.41921108551E+04  0.00000000000E+00 0. -1.
         -2   -1    0    0    0  501 -0.00000000000E+00 -0.00000000000E+00 -0.17231226712E+03  0.17231226712E+03  0.00000000000E+00 0.  1.
         23    2    1    2    0    0  0.37544833291E+03  0.41287090305E+03  0.21003482567E+04  0.21750926959E+04  0.90230831438E+02 0.  0.
        254    2    1    2    0    0 -0.37544833291E+03 -0.41287090305E+03  0.19194503312E+04  0.21893304263E+04  0.89300297211E+03 0.  0.
        -24    2    4    4    0    0 -0.41544171162E+03 -0.43264099596E+03  0.55302935734E+03  0.81986690796E+03  0.81056952535E+02 0.  0.
         24    2    4    4    0    0  0.39993378711E+02  0.19770092909E+02  0.13664209739E+04  0.13694635183E+04  0.79584692337E+02 0.  0.
         13    1    3    3    0    0  0.26191236035E+03  0.32231517987E+03  0.14239573510E+04  0.14832867886E+04  0.00000000000E+00 0. -1.
        -13    1    3    3    0    0  0.11353597256E+03  0.90555723184E+02  0.67639090566E+03  0.69180590727E+03  0.00000000000E+00 0.  1.
          2    1    6    6  502    0  0.62354172081E+02  0.26671172660E+02  0.10269329624E+04  0.10291699100E+04  0.00000000000E+00 0. -1.
          1    1    5    5  503    0 -0.37331028206E+03 -0.41111865922E+03  0.52834795480E+03  0.76650549900E+03  0.00000000000E+00 0. -1.
         -2    1    5    5    0  503 -0.42131429554E+02 -0.21522336735E+02  0.24681402533E+02  0.53361408956E+02  0.00000000000E+00 0.  1.
         -1    1    6    6    0  502 -0.22360793370E+02 -0.69010797514E+01  0.33948801146E+03  0.34029360839E+03  0.00000000000E+00 0.  1.
<mgrwt>
<rscale>  0 0.16998260E+04</rscale>
<asrwt>0</asrwt>
<pdfrwt beam="1">  1        2 0.64494005E+00 0.16998260E+04</pdfrwt>
<pdfrwt beam="2">  1       -2 0.26509583E-01 0.16998260E+04</pdfrwt>
<totfact> 0.29579329E+00</totfact>
</mgrwt>
</event>
<event>
12    1  0.1397649E-007  0.2722389E+04  0.7818608E-02  0.8327777E-01
          1   -1    0    0  501    0  0.00000000000E+00  0.00000000000E+00  0.19595171484E+04  0.19595171484E+04  0.00000000000E+00 0. -1.
         -1   -1    0    0    0  501 -0.00000000000E+00 -0.00000000000E+00 -0.94556484269E+03  0.94556484269E+03  0.00000000000E+00 0.  1.
         23    2    1    2    0    0  0.69367012287E+03  0.25039850181E+03  0.14755497905E+04  0.16520695313E+04  0.90602995771E+02 0.  0.
        254    2    1    2    0    0 -0.69367012287E+03 -0.25039850181E+03 -0.46159748487E+03  0.12530124597E+04  0.90171521954E+03 0.  0.
        -24    2    4    4    0    0 -0.87476402762E+03 -0.34419387129E+03 -0.40278777452E+03  0.10258591857E+04  0.80421094845E+02 0.  0.
         24    2    4    4    0    0  0.18109390474E+03  0.93795369483E+02 -0.58809710347E+02  0.22715327406E+03  0.80916340822E+02 0.  0.
         11    1    3    3    0    0  0.29386018295E+03  0.75521491596E+02  0.68204649380E+03  0.74648826013E+03  0.00000000000E+00 0. -1.
        -11    1    3    3    0    0  0.39980993993E+03  0.17487701021E+03  0.79350329674E+03  0.90558127117E+03  0.00000000000E+00 0.  1.
          2    1    6    6  502    0  0.11117445361E+03  0.25358060043E+02 -0.20619055983E+01  0.11404841866E+03  0.00000000000E+00 0. -1.
          1    1    5    5  503    0 -0.32948016520E+02 -0.28567020917E+02 -0.98895835517E+01  0.44715213737E+02  0.00000000000E+00 0. -1.
         -2    1    5    5    0  503 -0.84181601110E+03 -0.31562685037E+03 -0.39289819097E+03  0.98114397195E+03  0.00000000000E+00 0.  1.
         -1    1    6    6    0  502  0.69919451134E+02  0.68437309440E+02 -0.56747804748E+02  0.11310485540E+03  0.00000000000E+00 0.  1.
<mgrwt>
<rscale>  0 0.27223890E+04</rscale>
<asrwt>0</asrwt>
<pdfrwt beam="1">  1        1 0.30146418E+00 0.27223890E+04</pdfrwt>
<pdfrwt beam="2">  1       -1 0.14547151E+00 0.27223890E+04</pdfrwt>
<totfact> 0.10478857E+00</totfact>
</mgrwt>
</event>
<event>
12    1  0.1397649E-007  0.2070215E+04  0.7818608E-02  0.8574479E-01
         -2   -1    0    0    0  501 -0.00000000000E+00  0.00000000000E+00  0.79100176391E+03  0.79100176391E+03  0.00000000000E+00 0.  1.
          2   -1    0    0  501    0  0.00000000000E+00 -0.00000000000E+00 -0.13545450810E+04  0.13545450810E+04  0.00000000000E+00 0. -1.
         23    2    1    2    0    0 -0.51764810643E+03  0.65472525753E+03 -0.15509864156E+03  0.85337510072E+03  0.86998557284E+02 0.  0.
        254    2    1    2    0    0  0.51764810643E+03 -0.65472525753E+03 -0.40844467559E+03  0.12921717442E+04  0.89791761239E+03 0.  0.
        -24    2    4    4    0    0 -0.13720605056E+03 -0.50620830459E+03 -0.62089564268E+02  0.53299211090E+03  0.71785293393E+02 0.  0.
         24    2    4    4    0    0  0.65485415699E+03 -0.14851695294E+03 -0.34635511132E+03  0.75917963333E+03  0.74166031954E+02 0.  0.
         13    1    3    3    0    0 -0.24593542492E+03  0.30457130429E+03 -0.11675498514E+03  0.40850904419E+03  0.00000000000E+00 0.  1.
        -13    1    3    3    0    0 -0.27171268151E+03  0.35015395324E+03 -0.38343656413E+02  0.44486605653E+03  0.00000000000E+00 0. -1.
          2    1    6    6  502    0  0.60695988077E+02 -0.36741242813E+02 -0.33954928686E+02  0.78656589515E+02  0.00000000000E+00 0. -1.
          3    1    5    5  503    0 -0.35014245021E+02 -0.75098624024E+02  0.12191810094E+02  0.83752259182E+02  0.00000000000E+00 0. -1.
         -4    1    5    5    0  503 -0.10219180554E+03 -0.43110968057E+03 -0.74281374363E+02  0.44923985172E+03  0.00000000000E+00 0.  1.
         -1    1    6    6    0  502  0.59415816891E+03 -0.11177571013E+03 -0.31240018263E+03  0.68052304382E+03  0.00000000000E+00 0.  1.
<mgrwt>
<rscale>  0 0.20702150E+04</rscale>
<asrwt>0</asrwt>
<pdfrwt beam="1">  1        2 0.20839155E+00 0.20702150E+04</pdfrwt>
<pdfrwt beam="2">  1       -2 0.12169258E+00 0.20702150E+04</pdfrwt>
<totfact> 0.72815376E+00</totfact>
</mgrwt>
</event>
<event>
12    1  0.1397649E-007  0.1463535E+04  0.7818608E-02  0.8909070E-01
         -1   -1    0    0    0  501 -0.00000000000E+00  0.00000000000E+00  0.39570063945E+03  0.39570063945E+03  0.00000000000E+00 0.  1.
          1   -1    0    0  501    0  0.00000000000E+00 -0.00000000000E+00 -0.13532548760E+04  0.13532548760E+04  0.00000000000E+00 0. -1.
         23    2    1    2    0    0 -0.22309415974E+03 -0.21072426632E+03 -0.68855919565E+03  0.75909919161E+03  0.89118439596E+02 0.  0.
        254    2    1    2    0    0  0.22309415974E+03  0.21072426632E+03 -0.26899504093E+03  0.98985632386E+03  0.90182120696E+03 0.  0.
        -24    2    4    4    0    0  0.18329052336E+03 -0.21732660355E+03 -0.43183348448E+03  0.52315622310E+03  0.79912495136E+02 0.  0.
         24    2    4    4    0    0  0.39803636374E+02  0.42805086987E+03  0.16283844356E+03  0.46670010076E+03  0.80503097381E+02 0.  0.
         11    1    3    3    0    0 -0.46984282626E+02 -0.10136422274E+03 -0.26237700780E+03  0.28517349576E+03  0.00000000000E+00 0.  1.
        -11    1    3    3    0    0 -0.17610987711E+03 -0.10936004358E+03 -0.42618218785E+03  0.47392569585E+03  0.00000000000E+00 0. -1.
          4    1    6    6  502    0  0.12471903229E+02  0.38462038167E+03  0.15465465105E+03  0.41473660010E+03  0.00000000000E+00 0. -1.
          1    1    5    5  503    0  0.13744735170E+03 -0.10949924214E+03 -0.29111882752E+03  0.34004710005E+03  0.00000000000E+00 0. -1.
         -2    1    5    5    0  503  0.45843171660E+02 -0.10782736141E+03 -0.14071465696E+03  0.18310912304E+03  0.00000000000E+00 0.  1.
         -3    1    6    6    0  502  0.27331733145E+02  0.43430488194E+02  0.81837925060E+01  0.51963500664E+02  0.00000000000E+00 0.  1.
<mgrwt>
<rscale>  0 0.14635352E+04</rscale>
<asrwt>0</asrwt>
<pdfrwt beam="1">  1        1 0.20819306E+00 0.14635352E+04</pdfrwt>
<pdfrwt beam="2">  1       -1 0.60877021E-01 0.14635352E+04</pdfrwt>
<totfact> 0.22006345E+01</totfact>
</mgrwt>
</event>
<event>
12    1  0.1397649E-007  0.1512103E+04  0.7818608E-02  0.8876445E-01
         -2   -1    0    0    0  501 -0.00000000000E+00  0.00000000000E+00  0.49992207082E+03  0.49992207082E+03  0.00000000000E+00 0.  1.
          2   -1    0    0  501    0  0.00000000000E+00 -0.00000000000E+00 -0.11434053301E+04  0.11434053301E+04  0.00000000000E+00 0. -1.
         23    2    1    2    0    0 -0.16145234588E+03 -0.21667736882E+03 -0.60227535789E+03  0.66874380503E+03  0.10708280863E+03 0.  0.
        254    2    1    2    0    0  0.16145234588E+03  0.21667736882E+03 -0.41207901434E+02  0.97458359592E+03  0.93546734425E+03 0.  0.
        -24    2    4    4    0    0  0.42712654000E+03  0.40500345458E+03 -0.16393225753E+03  0.61746558509E+03  0.89022942655E+02 0.  0.
         24    2    4    4    0    0 -0.26567419412E+03 -0.18832608577E+03  0.12272435610E+03  0.35711801083E+03  0.80140589436E+02 0.  0.
         11    1    3    3    0    0 -0.17224247798E+03 -0.17002928665E+03 -0.51964764352E+03  0.57324611028E+03  0.00000000000E+00 0. -1.
        -11    1    3    3    0    0  0.10790132101E+02 -0.46648082173E+02 -0.82627714370E+02  0.95497694753E+02  0.00000000000E+00 0.  1.
          2    1    6    6  502    0 -0.24412824205E+03 -0.19162569823E+03  0.10107684345E+03  0.32639781720E+03  0.00000000000E+00 0. -1.
          3    1    5    5  503    0  0.28652708173E+03  0.30415031218E+03 -0.81203234182E+02  0.42567493021E+03  0.00000000000E+00 0. -1.
         -4    1    5    5    0  503  0.14059945827E+03  0.10085314241E+03 -0.82729023347E+02  0.19179065489E+03  0.00000000000E+00 0.  1.
         -1    1    6    6    0  502 -0.21545952073E+02  0.32996124613E+01  0.21647512644E+02  0.30720193632E+02  0.00000000000E+00 0.  1.
<mgrwt>
<rscale>  0 0.15121026E+04</rscale>
<asrwt>0</asrwt>
<pdfrwt beam="1">  1        2 0.17590851E+00 0.15121026E+04</pdfrwt>
<pdfrwt beam="2">  1       -2 0.76911088E-01 0.15121026E+04</pdfrwt>
<totfact> 0.29869560E+01</totfact>
</mgrwt>
</event>
<event>
12    1  0.1397649E-007  0.1554578E+04  0.7818608E-02  0.8848949E-01
          2   -1    0    0  501    0  0.00000000000E+00  0.00000000000E+00  0.19739171094E+04  0.19739171094E+04  0.00000000000E+00 0. -1.
         -2   -1    0    0    0  501 -0.00000000000E+00 -0.00000000000E+00 -0.30608073532E+03  0.30608073532E+03  0.00000000000E+00 0.  1.
         23    2    1    2    0    0 -0.24788433995E+03 -0.30125996792E+03  0.75766645324E+02  0.40686712115E+03  0.87155352486E+02 0.  0.
        254    2    1    2    0    0  0.24788433995E+03  0.30125996792E+03  0.15920697288E+04  0.18731307236E+04  0.90649240048E+03 0.  0.
        -24    2    4    4    0    0 -0.16883979120E+02 -0.30544411825E+03  0.59353742796E+03  0.67249893565E+03  0.79918470540E+02 0.  0.
         24    2    4    4    0    0  0.26476831907E+03  0.60670408617E+03  0.99853230084E+03  0.12006317880E+04  0.79106406149E+02 0.  0.
         13    1    3    3    0    0 -0.15319459466E+02 -0.45273708137E+02 -0.13524672283E+02  0.49672036873E+02  0.00000000000E+00 0. -1.
        -13    1    3    3    0    0 -0.23256488049E+03 -0.25598625978E+03  0.89291317607E+02  0.35719508428E+03  0.00000000000E+00 0.  1.
          4    1    6    6  502    0  0.23209000045E+03  0.49054450813E+03  0.76738195444E+03  0.93988017681E+03  0.00000000000E+00 0. -1.
          3    1    5    5  503    0 -0.45231356484E+02 -0.24147731338E+03  0.44517721237E+03  0.50846820835E+03  0.00000000000E+00 0. -1.
         -4    1    5    5    0  503  0.28347377364E+02 -0.63966804873E+02  0.14836021559E+03  0.16403072731E+03  0.00000000000E+00 0.  1.
         -3    1    6    6    0  502  0.32678318624E+02  0.11615957804E+03  0.23115034640E+03  0.26075161116E+03  0.00000000000E+00 0.  1.
<mgrwt>
<rscale>  0 0.15545778E+04</rscale>
<asrwt>0</asrwt>
<pdfrwt beam="1">  1        2 0.30367955E+00 0.15545778E+04</pdfrwt>
<pdfrwt beam="2">  1       -2 0.47089345E-01 0.15545778E+04</pdfrwt>
<totfact> 0.28421434E+01</totfact>
</mgrwt>
</event>
<event>
12    1  0.1397649E-007  0.3450405E+04  0.7818608E-02  0.8125645E-01
         -2   -1    0    0    0  501 -0.00000000000E+00  0.00000000000E+00  0.80140967849E+03  0.80140967849E+03  0.00000000000E+00 0.  1.
          2   -1    0    0  501    0  0.00000000000E+00 -0.00000000000E+00 -0.37138593844E+04  0.37138593844E+04  0.00000000000E+00 0. -1.
         23    2    1    2    0    0  0.51647933758E+03 -0.13810477707E+04 -0.22077333012E+04  0.26562398324E+04  0.86486222993E+02 0.  0.
        254    2    1    2    0    0 -0.51647933758E+03  0.13810477707E+04 -0.70471640475E+03  0.18590292305E+04  0.88618317395E+03 0.  0.
        -24    2    4    4    0    0 -0.65150288963E+03  0.96052601565E+03 -0.78416156532E+03  0.14029842809E+04  0.79933034438E+02 0.  0.
         24    2    4    4    0    0  0.13502355205E+03  0.42052175505E+03  0.79445160575E+02  0.45604494964E+03  0.81213031438E+02 0.  0.
         11    1    3    3    0    0  0.44137349494E+03 -0.11430608307E+04 -0.18855416845E+04  0.22487031971E+04  0.00000000000E+00 0. -1.
        -11    1    3    3    0    0  0.75105842635E+02 -0.23798694000E+03 -0.32219161669E+03  0.40753663525E+03  0.00000000000E+00 0.  1.
          4    1    6    6  502    0  0.20521601101E+02  0.16184429067E+03  0.54752149482E+02  0.17208285332E+03  0.00000000000E+00 0. -1.
          3    1    5    5  503    0 -0.35445133685E+03  0.49060295082E+03 -0.36565210663E+03  0.70712691127E+03  0.00000000000E+00 0. -1.
         -4    1    5    5    0  503 -0.29705155278E+03  0.46992306483E+03 -0.41850945869E+03  0.69585736964E+03  0.00000000000E+00 0.  1.
         -3    1    6    6    0  502  0.11450195095E+03  0.25867746438E+03  0.24693011093E+02  0.28396209632E+03  0.00000000000E+00 0.  1.
<mgrwt>
<rscale>  0 0.34504045E+04</rscale>
<asrwt>0</asrwt>
<pdfrwt beam="1">  1        2 0.57136298E+00 0.34504045E+04</pdfrwt>
<pdfrwt beam="2">  1       -2 0.12329380E+00 0.34504045E+04</pdfrwt>
<totfact> 0.23296335E-01</totfact>
</mgrwt>
</event>
<event>
12    1  0.1397649E-007  0.1603680E+04  0.7818608E-02  0.8818290E-01
          2   -1    0    0  501    0  0.00000000000E+00  0.00000000000E+00  0.21014414887E+04  0.21014414887E+04  0.00000000000E+00 0. -1.
         -2   -1    0    0    0  501 -0.00000000000E+00 -0.00000000000E+00 -0.30595558326E+03  0.30595558326E+03  0.00000000000E+00 0.  1.
         23    2    1    2    0    0 -0.84407908635E+02 -0.16686244768E+02 -0.18558858152E+03  0.22360997712E+03  0.90306004636E+02 0.  0.
        254    2    1    2    0    0  0.84407908635E+02  0.16686244768E+02  0.19810744870E+04  0.21837870948E+04  0.91480425608E+03 0.  0.
        -24    2    4    4    0    0 -0.13965302886E+03 -0.34492376833E+03  0.43460722235E+03  0.57785101426E+03  0.80950494319E+02 0.  0.
         24    2    4    4    0    0  0.22406093749E+03  0.36161001310E+03  0.15464672646E+04  0.16059360806E+04  0.80651033130E+02 0.  0.
         11    1    3    3    0    0 -0.39346358151E+02 -0.17286863902E+02 -0.12509355502E+02  0.44759976970E+02  0.00000000000E+00 0. -1.
        -11    1    3    3    0    0 -0.45061550485E+02  0.60061913426E+00 -0.17307922602E+03  0.17885000015E+03  0.00000000000E+00 0.  1.
          2    1    6    6  502    0  0.52547908916E+02  0.91950783249E+02  0.52756839054E+03  0.53809351972E+03  0.00000000000E+00 0. -1.
          1    1    5    5  503    0  0.83122129718E+01 -0.12440168424E+02  0.75279888207E+01  0.16748769823E+02  0.00000000000E+00 0. -1.
         -2    1    5    5    0  503 -0.14796524183E+03 -0.33248359991E+03  0.42707923353E+03  0.56110224444E+03  0.00000000000E+00 0.  1.
         -1    1    6    6    0  502  0.17151302858E+03  0.26965922985E+03  0.10188988741E+04  0.10678425609E+04  0.00000000000E+00 0.  1.
<mgrwt>
<rscale>  0 0.16036805E+04</rscale>
<asrwt>0</asrwt>
<pdfrwt beam="1">  1        2 0.32329868E+00 0.16036805E+04</pdfrwt>
<pdfrwt beam="2">  1       -2 0.47070091E-01 0.16036805E+04</pdfrwt>
<totfact> 0.24064988E+01</totfact>
</mgrwt>
</event>
<event>
12    1  0.1397649E-007  0.1316058E+04  0.7818608E-02  0.9016927E-01
         -1   -1    0    0    0  501 -0.00000000000E+00  0.00000000000E+00  0.65796331024E+03  0.65796331024E+03  0.00000000000E+00 0.  1.
          1   -1    0    0  501    0  0.00000000000E+00 -0.00000000000E+00 -0.65809452523E+03  0.65809452523E+03  0.00000000000E+00 0. -1.
         23    2    1    2    0    0 -0.27439530345E+03  0.13758848070E+03  0.15093047739E+03  0.35408693030E+03  0.91510505549E+02 0.  0.
        254    2    1    2    0    0  0.27439530345E+03 -0.13758848070E+03 -0.15106169238E+03  0.96197090517E+03  0.89908009371E+03 0.  0.
        -24    2    4    4    0    0  0.28903579682E+03  0.32899878868E+03  0.48606896996E+02  0.44778947524E+03  0.79817848273E+02 0.  0.
         24    2    4    4    0    0 -0.14640493375E+02 -0.46658726937E+03 -0.19966858938E+03  0.51418142993E+03  0.81221753947E+02 0.  0.
         13    1    3    3    0    0 -0.26272839544E+03  0.14208531831E+03  0.15980817527E+03  0.33875226986E+03  0.00000000000E+00 0.  1.
        -13    1    3    3    0    0 -0.11666908006E+02 -0.44968376170E+01 -0.88776978815E+01  0.15334660435E+02  0.00000000000E+00 0. -1.
          4    1    6    6  502    0 -0.13279536615E+02 -0.39480548635E+02 -0.41297131544E+02  0.58655885357E+02  0.00000000000E+00 0. -1.
          1    1    5    5  503    0  0.67198712583E+02  0.12066883320E+03 -0.75635473653E+01  0.13832512978E+03  0.00000000000E+00 0. -1.
         -2    1    5    5    0  503  0.22183708424E+03  0.20832995548E+03  0.56170444361E+02  0.30946434546E+03  0.00000000000E+00 0.  1.
         -3    1    6    6    0  502 -0.13609567603E+01 -0.42710672074E+03 -0.15837145783E+03  0.45552554457E+03  0.00000000000E+00 0.  1.
<mgrwt>
<rscale>  0 0.13160578E+04</rscale>
<asrwt>0</asrwt>
<pdfrwt beam="1">  1        1 0.10124531E+00 0.13160578E+04</pdfrwt>
<pdfrwt beam="2">  1       -1 0.10122512E+00 0.13160578E+04</pdfrwt>
<totfact> 0.27208619E+01</totfact>
</mgrwt>
</event>
<event>
12    1  0.1397649E-007  0.2950313E+04  0.7818608E-02  0.8258063E-01
          1   -1    0    0  501    0  0.00000000000E+00  0.00000000000E+00  0.29081494124E+04  0.29081494124E+04  0.00000000000E+00 0. -1.
         -1   -1    0    0    0  501 -0.00000000000E+00 -0.00000000000E+00 -0.74827207823E+03  0.74827207823E+03  0.00000000000E+00 0.  1.
         23    2    1    2    0    0 -0.65732486913E+03  0.10736181179E+04  0.42836162831E+03  0.13332841323E+04  0.97062074377E+02 0.  0.
        254    2    1    2    0    0  0.65732486913E+03 -0.10736181179E+04  0.17315157059E+04  0.23231373583E+04  0.90226864028E+03 0.  0.
        -24    2    4    4    0    0  0.80583055221E+02 -0.10650298904E+03  0.91844056184E+03  0.93200061439E+03  0.85179599253E+02 0.  0.
         24    2    4    4    0    0  0.57674181391E+03 -0.96711512885E+03  0.81307514404E+03  0.13911367439E+04  0.78914245027E+02 0.  0.
         13    1    3    3    0    0 -0.28119785045E+03  0.43424511895E+03  0.22471321631E+03  0.56403642082E+03  0.00000000000E+00 0.  1.
        -13    1    3    3    0    0 -0.37612701868E+03  0.63937299893E+03  0.20364841200E+03  0.76924771151E+03  0.00000000000E+00 0. -1.
          4    1    6    6  502    0  0.10213969536E+03 -0.12455142361E+03  0.13332049490E+03  0.20909311048E+03  0.00000000000E+00 0. -1.
          1    1    5    5  503    0  0.42627576891E+02 -0.46109839339E+02  0.19070242548E+03  0.20077510473E+03  0.00000000000E+00 0. -1.
         -2    1    5    5    0  503  0.37955478330E+02 -0.60393149701E+02  0.72773813636E+03  0.73122550966E+03  0.00000000000E+00 0.  1.
         -3    1    6    6    0  502  0.47460211855E+03 -0.84256370524E+03  0.67975464914E+03  0.11820436334E+04  0.00000000000E+00 0.  1.
<mgrwt>
<rscale>  0 0.29503132E+04</rscale>
<asrwt>0</asrwt>
<pdfrwt beam="1">  1        1 0.44740759E+00 0.29503132E+04</pdfrwt>
<pdfrwt beam="2">  1       -1 0.11511878E+00 0.29503132E+04</pdfrwt>
<totfact> 0.40759439E-01</totfact>
</mgrwt>
</event>
<event>
12    1  0.1397649E-007  0.1551436E+04  0.7818608E-02  0.8850951E-01
          2   -1    0    0  501    0  0.00000000000E+00  0.00000000000E+00  0.22260308175E+04  0.22260308175E+04  0.00000000000E+00 0. -1.
         -2   -1    0    0    0  501 -0.00000000000E+00 -0.00000000000E+00 -0.27031905418E+03  0.27031905418E+03  0.00000000000E+00 0.  1.
         23    2    1    2    0    0  0.78146508514E+02  0.15908668989E+03  0.14189013586E+04  0.14334349978E+04  0.10019668543E+03 0.  0.
        254    2    1    2    0    0 -0.78146508514E+02 -0.15908668989E+03  0.53681040477E+03  0.10629148739E+04  0.90011508535E+03 0.  0.
        -24    2    4    4    0    0 -0.33154130775E+03 -0.14419836127E+01 -0.99312618028E+02  0.35536479976E+03  0.80619022243E+02 0.  0.
         24    2    4    4    0    0  0.25339479924E+03 -0.15764470628E+03  0.63612302280E+03  0.70755007417E+03  0.83149441521E+02 0.  0.
         13    1    3    3    0    0  0.82803144636E+02  0.15120981768E+03  0.14105512357E+04  0.14210473456E+04  0.00000000000E+00 0. -1.
        -13    1    3    3    0    0 -0.46566361214E+01  0.78768722096E+01  0.83501228720E+01  0.12387652229E+02  0.00000000000E+00 0.  1.
          2    1    6    6  502    0  0.33463970091E+02 -0.46188962179E+02  0.18308531572E+03  0.19176415294E+03  0.00000000000E+00 0. -1.
          1    1    5    5  503    0 -0.13015473597E+03 -0.11052685740E+02 -0.79176528178E+02  0.15274599756E+03  0.00000000000E+00 0. -1.
         -2    1    5    5    0  503 -0.20138657179E+03  0.96107021270E+01 -0.20136089850E+02  0.20261880220E+03  0.00000000000E+00 0.  1.
         -1    1    6    6    0  502  0.21993082915E+03 -0.11145574410E+03  0.45303770709E+03  0.51578592123E+03  0.00000000000E+00 0.  1.
<mgrwt>
<rscale>  0 0.15514362E+04</rscale>
<asrwt>0</asrwt>
<pdfrwt beam="1">  1        2 0.34246627E+00 0.15514362E+04</pdfrwt>
<pdfrwt beam="2">  1       -2 0.41587548E-01 0.15514362E+04</pdfrwt>
<totfact> 0.26349526E+01</totfact>
</mgrwt>
</event>
<event>
12    1  0.1397649E-007  0.1183409E+04  0.7818608E-02  0.9127504E-01
         -1   -1    0    0    0  501 -0.00000000000E+00  0.00000000000E+00  0.32362438873E+03  0.32362438873E+03  0.00000000000E+00 0.  1.
          1   -1    0    0  501    0  0.00000000000E+00 -0.00000000000E+00 -0.10818536395E+04  0.10818536395E+04  0.00000000000E+00 0. -1.
         23    2    1    2    0    0  0.10259059976E+03  0.13038224579E+02  0.10261271421E+03  0.17133555046E+03  0.90175802054E+02 0.  0.
        254    2    1    2    0    0 -0.10259059976E+03 -0.13038224579E+02 -0.86084196501E+03  0.12341424778E+04  0.87827327202E+03 0.  0.
        -24    2    4    4    0    0  0.33546679083E+03 -0.20442671584E+03 -0.39921725858E+03  0.56572488837E+03  0.79636548640E+02 0.  0.
         24    2    4    4    0    0 -0.43805739059E+03  0.19138849126E+03 -0.46162470644E+03  0.66841758944E+03  0.71839211100E+02 0.  0.
         11    1    3    3    0    0  0.90979672732E+02  0.37889252496E+02  0.46703502987E+02  0.10906013706E+03  0.00000000000E+00 0.  1.
        -11    1    3    3    0    0  0.11610927030E+02 -0.24851027917E+02  0.55909211218E+02  0.62275413399E+02  0.00000000000E+00 0. -1.
          4    1    6    6  502    0 -0.33821201490E+02  0.21917193830E+02 -0.16032434009E+02  0.43373678606E+02  0.00000000000E+00 0. -1.
          3    1    5    5  503    0  0.23954700016E+03 -0.18562117782E+03 -0.29826647231E+03  0.42520686195E+03  0.00000000000E+00 0. -1.
         -4    1    5    5    0  503  0.95919790669E+02 -0.18805538011E+02 -0.10095078627E+03  0.14051802642E+03  0.00000000000E+00 0.  1.
         -3    1    6    6    0  502 -0.40423618910E+03  0.16947129743E+03 -0.44559227243E+03  0.62504391084E+03  0.00000000000E+00 0.  1.
<mgrwt>
<rscale>  0 0.11834090E+04</rscale>
<asrwt>0</asrwt>
<pdfrwt beam="1">  1        1 0.16643902E+00 0.11834090E+04</pdfrwt>
<pdfrwt beam="2">  1       -1 0.49788367E-01 0.11834090E+04</pdfrwt>
<totfact> 0.52452320E+01</totfact>
</mgrwt>
</event>
<event>
12    1  0.1432568E-007  0.2174675E+04  0.7818608E-02  0.8529043E-01
         -2   -1    0    0    0  501 -0.00000000000E+00  0.00000000000E+00  0.50863031635E+03  0.50863031635E+03  0.00000000000E+00 0.  1.
          2   -1    0    0  501    0  0.00000000000E+00 -0.00000000000E+00 -0.23244834530E+04  0.23244834530E+04  0.00000000000E+00 0. -1.
         23    2    1    2    0    0 -0.21389118106E+02  0.86246308736E+03 -0.10702584623E+04  0.13776674493E+04  0.90633069082E+02 0.  0.
        254    2    1    2    0    0  0.21389118106E+02 -0.86246308736E+03 -0.74559467431E+03  0.14554463201E+04  0.90449571629E+03 0.  0.
        -24    2    4    4    0    0  0.75570611953E+02 -0.60694856591E+02  0.18501450387E+03  0.22330721157E+03  0.78999753737E+02 0.  0.
         24    2    4    4    0    0 -0.54181493847E+02 -0.80176823076E+03 -0.93060917818E+03  0.12321391085E+04  0.79783519593E+02 0.  0.
         13    1    3    3    0    0 -0.81570842591E+01  0.93696395928E+02 -0.76773553654E+02  0.12140729457E+03  0.00000000000E+00 0. -1.
        -13    1    3    3    0    0 -0.13232033847E+02  0.76876669143E+03 -0.99348490869E+03  0.12562601547E+04  0.00000000000E+00 0.  1.
          2    1    6    6  502    0  0.81939896610E-02 -0.10222235734E+03 -0.82111258958E+02  0.13111700597E+03  0.00000000000E+00 0. -1.
          3    1    5    5  503    0  0.58388289694E+02 -0.51939868393E+01  0.52808638763E+02  0.78898176155E+02  0.00000000000E+00 0. -1.
         -4    1    5    5    0  503  0.17182322260E+02 -0.55500869752E+02  0.13220586511E+03  0.14440903542E+03  0.00000000000E+00 0.  1.
         -1    1    6    6    0  502 -0.54189687837E+02 -0.69954587343E+03 -0.84849791922E+03  0.11010221025E+04  0.00000000000E+00 0.  1.
<mgrwt>
<rscale>  0 0.21746749E+04</rscale>
<asrwt>0</asrwt>
<pdfrwt beam="1">  1        2 0.35761283E+00 0.21746749E+04</pdfrwt>
<pdfrwt beam="2">  1       -2 0.78250819E-01 0.21746749E+04</pdfrwt>
<totfact> 0.58417036E+00</totfact>
</mgrwt>
</event>
<event>
12    1  0.1397649E-007  0.2215160E+04  0.7818608E-02  0.8512145E-01
          2   -1    0    0  501    0  0.00000000000E+00  0.00000000000E+00  0.10575582376E+04  0.10575582376E+04  0.00000000000E+00 0. -1.
         -2   -1    0    0    0  501 -0.00000000000E+00 -0.00000000000E+00 -0.11599678593E+04  0.11599678593E+04  0.00000000000E+00 0.  1.
         23    2    1    2    0    0  0.43138742121E+03 -0.74789340969E+03 -0.29414221822E+03  0.91657592338E+03  0.90289087550E+02 0.  0.
        254    2    1    2    0    0 -0.43138742121E+03  0.74789340969E+03  0.19173259647E+03  0.13009501735E+04  0.95408086971E+03 0.  0.
        -24    2    4    4    0    0 -0.11970105662E+03 -0.18794953765E+02 -0.30132145861E+03  0.33434807792E+03  0.79450755476E+02 0.  0.
         24    2    4    4    0    0 -0.31168636459E+03  0.76668836346E+03  0.49305405508E+03  0.96660209559E+03  0.79106721770E+02 0.  0.
         11    1    3    3    0    0  0.36947166965E+03 -0.64352951892E+03 -0.21837426074E+03  0.77351591720E+03  0.00000000000E+00 0.  1.
        -11    1    3    3    0    0  0.61915751566E+02 -0.10436389077E+03 -0.75767957477E+02  0.14306000618E+03  0.00000000000E+00 0. -1.
          2    1    6    6  502    0 -0.96878312430E+02  0.15323731291E+03  0.10053859104E+03  0.20730434095E+03  0.00000000000E+00 0. -1.
          3    1    5    5  503    0  0.11041810024E+02 -0.77229927228E+01 -0.33627806715E+02  0.36227000561E+02  0.00000000000E+00 0. -1.
         -4    1    5    5    0  503 -0.13074286664E+03 -0.11071961042E+02 -0.26769365190E+03  0.29812107736E+03  0.00000000000E+00 0.  1.
         -1    1    6    6    0  502 -0.21480805216E+03  0.61345105054E+03  0.39251546404E+03  0.75929775464E+03  0.00000000000E+00 0.  1.
<mgrwt>
<rscale>  0 0.22151601E+04</rscale>
<asrwt>0</asrwt>
<pdfrwt beam="1">  1        2 0.16270127E+00 0.22151601E+04</pdfrwt>
<pdfrwt beam="2">  1       -2 0.17845659E+00 0.22151601E+04</pdfrwt>
<totfact> 0.39277962E+00</totfact>
</mgrwt>
</event>
<event>
12    1  0.1397649E-007  0.1951950E+04  0.7818608E-02  0.8629421E-01
          1   -1    0    0  501    0  0.00000000000E+00  0.00000000000E+00  0.98149256477E+03  0.98149256477E+03  0.00000000000E+00 0. -1.
         -1   -1    0    0    0  501 -0.00000000000E+00 -0.00000000000E+00 -0.97048861285E+03  0.97048861285E+03  0.00000000000E+00 0.  1.
         23    2    1    2    0    0 -0.27848830009E+03  0.71737756597E+02  0.71031024544E+03  0.77234234753E+03  0.96280932696E+02 0.  0.
        254    2    1    2    0    0  0.27848830009E+03 -0.71737756597E+02 -0.69930629352E+03  0.11796388301E+04  0.90543715315E+03 0.  0.
        -24    2    4    4    0    0  0.23066330317E+03 -0.15235955271E+03 -0.89962347942E+03  0.94442644336E+03  0.78739503804E+02 0.  0.
         24    2    4    4    0    0  0.47824996926E+02  0.80621796116E+02  0.20031718590E+03  0.23521238674E+03  0.80067393922E+02 0.  0.
         11    1    3    3    0    0 -0.10015889681E+03  0.75446137457E+01  0.14730084010E+03  0.17828702505E+03  0.00000000000E+00 0.  1.
        -11    1    3    3    0    0 -0.17832940328E+03  0.64193142851E+02  0.56300940534E+03  0.59405532248E+03  0.00000000000E+00 0. -1.
          4    1    6    6  502    0  0.10209796526E+02  0.49405061598E+02  0.17083507776E+03  0.17812839147E+03  0.00000000000E+00 0. -1.
          1    1    5    5  503    0  0.97737350266E+02 -0.44628766883E+02 -0.46692003094E+03  0.47912277317E+03  0.00000000000E+00 0. -1.
         -2    1    5    5    0  503  0.13292595290E+03 -0.10773078583E+03 -0.43270344847E+03  0.46530367019E+03  0.00000000000E+00 0.  1.
         -3    1    6    6    0  502  0.37615200399E+02  0.31216734518E+02  0.29482108140E+02  0.57083995265E+02  0.00000000000E+00 0.  1.
<mgrwt>
<rscale>  0 0.19519502E+04</rscale>
<asrwt>0</asrwt>
<pdfrwt beam="1">  1        1 0.15099886E+00 0.19519502E+04</pdfrwt>
<pdfrwt beam="2">  1       -1 0.14930594E+00 0.19519502E+04</pdfrwt>
<totfact> 0.51494210E+00</totfact>
</mgrwt>
</event>
<event>
12    1  0.1397649E-007  0.2501443E+04  0.7818608E-02  0.8402472E-01
         -2   -1    0    0    0  501 -0.00000000000E+00  0.00000000000E+00  0.93906420735E+03  0.93906420735E+03  0.00000000000E+00 0.  1.
          2   -1    0    0  501    0  0.00000000000E+00 -0.00000000000E+00 -0.16658112329E+04  0.16658112329E+04  0.00000000000E+00 0. -1.
         23    2    1    2    0    0  0.76621347203E+03  0.66839604583E+03 -0.70096702573E+03  0.12385153965E+04  0.93430495615E+02 0.  0.
        254    2    1    2    0    0 -0.76621347203E+03 -0.66839604583E+03 -0.25779999790E+02  0.13663600437E+04  0.91238084249E+03 0.  0.
        -24    2    4    4    0    0 -0.88990848990E+03 -0.69430335654E+03 -0.18220333765E+03  0.11461626900E+04  0.80601392085E+02 0.  0.
         24    2    4    4    0    0  0.12369501786E+03  0.25907310710E+02  0.15642333786E+03  0.22019735367E+03  0.89704892526E+02 0.  0.
         11    1    3    3    0    0  0.71670318527E+03  0.63537186767E+03 -0.68292223877E+03  0.11763263366E+04  0.00000000000E+00 0. -1.
        -11    1    3    3    0    0  0.49510286763E+02  0.33024178156E+02 -0.18044786953E+02  0.62189059925E+02  0.00000000000E+00 0.  1.
          2    1    6    6  502    0  0.10916833028E+03  0.54993943820E+02  0.11854408546E+03  0.17027847307E+03  0.00000000000E+00 0. -1.
          1    1    5    5  503    0 -0.59554324931E+03 -0.49398775195E+03 -0.15450173970E+03  0.78902880077E+03  0.00000000000E+00 0. -1.
         -2    1    5    5    0  503 -0.29436524059E+03 -0.20031560459E+03 -0.27701597956E+02  0.35713388923E+03  0.00000000000E+00 0.  1.
         -1    1    6    6    0  502  0.14526687578E+02 -0.29086633110E+02  0.37879252401E+02  0.49918880597E+02  0.00000000000E+00 0.  1.
<mgrwt>
<rscale>  0 0.25014425E+04</rscale>
<asrwt>0</asrwt>
<pdfrwt beam="1">  1        2 0.25627865E+00 0.25014425E+04</pdfrwt>
<pdfrwt beam="2">  1       -2 0.14447142E+00 0.25014425E+04</pdfrwt>
<totfact> 0.30235406E+00</totfact>
</mgrwt>
</event>
<event>
12    1  0.1397649E-007  0.3101898E+04  0.7818608E-02  0.8215217E-01
         -1   -1    0    0    0  501 -0.00000000000E+00  0.00000000000E+00  0.11071322123E+04  0.11071322123E+04  0.00000000000E+00 0.  1.
          1   -1    0    0  501    0  0.00000000000E+00 -0.00000000000E+00 -0.21726791671E+04  0.21726791671E+04  0.00000000000E+00 0. -1.
         23    2    1    2    0    0 -0.84258142884E+03  0.82962176862E+03  0.34070494744E+03  0.12338740303E+04  0.90274682014E+02 0.  0.
        254    2    1    2    0    0  0.84258142884E+03 -0.82962176862E+03 -0.14062519023E+04  0.20459373491E+04  0.90005526528E+03 0.  0.
        -24    2    4    4    0    0  0.55363532986E+03 -0.98564297262E+03 -0.11963897549E+04  0.16480233048E+04  0.81413877606E+02 0.  0.
         24    2    4    4    0    0  0.28894609898E+03  0.15602120401E+03 -0.20986214737E+03  0.39791404432E+03  0.80380355504E+02 0.  0.
         11    1    3    3    0    0 -0.38866228948E+02  0.18525278724E+02  0.22129681866E+02  0.48409632553E+02  0.00000000000E+00 0. -1.
        -11    1    3    3    0    0 -0.80371519990E+03  0.81109648989E+03  0.31857526557E+03  0.11854643977E+04  0.00000000000E+00 0.  1.
          2    1    6    6  502    0  0.13043418480E+03  0.36487792788E+02 -0.55233566990E+02  0.14627092161E+03  0.00000000000E+00 0. -1.
          1    1    5    5  503    0  0.55331024159E+03 -0.98701746701E+03 -0.11962179745E+04  0.16466004816E+04  0.00000000000E+00 0. -1.
         -2    1    5    5    0  503  0.32508827257E+00  0.13744943845E+01 -0.17178043670E+00  0.14228231501E+01  0.00000000000E+00 0.  1.
         -1    1    6    6    0  502  0.15851191418E+03  0.11953341122E+03 -0.15462858038E+03  0.25164312270E+03  0.00000000000E+00 0.  1.
<mgrwt>
<rscale>  0 0.31018982E+04</rscale>
<asrwt>0</asrwt>
<pdfrwt beam="1">  1        1 0.33425833E+00 0.31018982E+04</pdfrwt>
<pdfrwt beam="2">  1       -1 0.17032803E+00 0.31018982E+04</pdfrwt>
<totfact> 0.46943284E-01</totfact>
</mgrwt>
</event>
<event>
12    1  0.1397649E-007  0.2129688E+04  0.7818608E-02  0.8548277E-01
          2   -1    0    0  501    0  0.00000000000E+00  0.00000000000E+00  0.16581756899E+04  0.16581756899E+04  0.00000000000E+00 0. -1.
         -2   -1    0    0    0  501 -0.00000000000E+00 -0.00000000000E+00 -0.68381942342E+03  0.68381942342E+03  0.00000000000E+00 0.  1.
         23    2    1    2    0    0  0.68905199594E+03 -0.44395269169E+03  0.75124630120E+03  0.11154550341E+04  0.89343620125E+02 0.  0.
        254    2    1    2    0    0 -0.68905199594E+03  0.44395269169E+03  0.22310996527E+03  0.12265400792E+04  0.88472360868E+03 0.  0.
        -24    2    4    4    0    0 -0.15432597289E+03 -0.11219903369E+03  0.38233946481E+03  0.43487216079E+03  0.80778715075E+02 0.  0.
         24    2    4    4    0    0 -0.53472602305E+03  0.55615172538E+03 -0.15922949954E+03  0.79166791843E+03  0.78405345291E+02 0.  0.
         11    1    3    3    0    0  0.36468443492E+03 -0.25175523667E+03  0.46271153543E+03  0.64068510306E+03  0.00000000000E+00 0.  1.
        -11    1    3    3    0    0  0.32436756103E+03 -0.19219745501E+03  0.28853476578E+03  0.47476993104E+03  0.00000000000E+00 0. -1.
          2    1    6    6  502    0 -0.22168750411E+03  0.25750910679E+03 -0.35257982519E+02  0.34161296066E+03  0.00000000000E+00 0. -1.
          3    1    5    5  503    0 -0.49365615759E+02 -0.64535006961E+02  0.93453267791E+02  0.12383555388E+03  0.00000000000E+00 0. -1.
         -4    1    5    5    0  503 -0.10496035713E+03 -0.47664026733E+02  0.28888619702E+03  0.31103660691E+03  0.00000000000E+00 0.  1.
         -1    1    6    6    0  502 -0.31303851894E+03  0.29864261859E+03 -0.12397151702E+03  0.45005495777E+03  0.00000000000E+00 0.  1.
<mgrwt>
<rscale>  0 0.21296880E+04</rscale>
<asrwt>0</asrwt>
<pdfrwt beam="1">  1        2 0.25510395E+00 0.21296880E+04</pdfrwt>
<pdfrwt beam="2">  1       -2 0.10520299E+00 0.21296880E+04</pdfrwt>
<totfact> 0.69608140E+00</totfact>
</mgrwt>
</event>
<event>
12    1  0.1397649E-007  0.2121888E+04  0.7818608E-02  0.8551662E-01
          2   -1    0    0  501    0  0.00000000000E+00  0.00000000000E+00  0.12626313915E+04  0.12626313915E+04  0.00000000000E+00 0. -1.
         -2   -1    0    0    0  501 -0.00000000000E+00 -0.00000000000E+00 -0.89147321686E+03  0.89147321686E+03  0.00000000000E+00 0.  1.
         23    2    1    2    0    0  0.15976078383E+03 -0.61366038609E+03 -0.45347013007E+03  0.78509206677E+03  0.92907571990E+02 0.  0.
        254    2    1    2    0    0 -0.15976078383E+03  0.61366038609E+03  0.82462830470E+03  0.13690125416E+04  0.88998928116E+03 0.  0.
        -24    2    4    4    0    0  0.70400598469E+02  0.61713663440E+03  0.14028769887E+03  0.64165012221E+03  0.78869329215E+02 0.  0.
         24    2    4    4    0    0 -0.23016138230E+03 -0.34762483052E+01  0.68434060583E+03  0.72736241937E+03  0.88020895951E+02 0.  0.
         11    1    3    3    0    0  0.98324159856E+02 -0.35619959523E+03 -0.20768941659E+03  0.42388758630E+03  0.00000000000E+00 0. -1.
        -11    1    3    3    0    0  0.61436623974E+02 -0.25746079087E+03 -0.24578071348E+03  0.36120448048E+03  0.00000000000E+00 0.  1.
          2    1    6    6  502    0 -0.52787943592E+02 -0.22762053633E+02  0.89771179325E+02  0.10659991891E+03  0.00000000000E+00 0. -1.
          3    1    5    5  503    0 -0.16190460003E+02  0.14293662359E+03  0.39661408212E+02  0.14921808422E+03  0.00000000000E+00 0. -1.
         -4    1    5    5    0  503  0.86591058472E+02  0.47420001081E+03  0.10062629065E+03  0.49243203799E+03  0.00000000000E+00 0.  1.
         -1    1    6    6    0  502 -0.17737343871E+03  0.19285805328E+02  0.59456942651E+03  0.62076250046E+03  0.00000000000E+00 0.  1.
<mgrwt>
<rscale>  0 0.21218879E+04</rscale>
<asrwt>0</asrwt>
<pdfrwt beam="1">  1        2 0.19425098E+00 0.21218879E+04</pdfrwt>
<pdfrwt beam="2">  1       -2 0.13714972E+00 0.21218879E+04</pdfrwt>
<totfact> 0.60601423E+00</totfact>
</mgrwt>
</event>
<event>
12    1  0.1397649E-007  0.1035088E+04  0.7818608E-02  0.9270876E-01
          3   -1    0    0  501    0  0.00000000000E+00  0.00000000000E+00  0.15789495359E+04  0.15789495359E+04  0.00000000000E+00 0. -1.
         -3   -1    0    0    0  501 -0.00000000000E+00 -0.00000000000E+00 -0.16963927665E+03  0.16963927665E+03  0.00000000000E+00 0.  1.
         23    2    1    2    0    0 -0.11568969972E+02 -0.61895828087E+00  0.42238621552E+02  0.10516114088E+03  0.95606172525E+02 0.  0.
        254    2    1    2    0    0  0.11568969972E+02  0.61895828087E+00  0.13670716377E+04  0.16434276717E+04  0.91205012212E+03 0.  0.
        -24    2    4    4    0    0  0.21136350304E+03  0.72006238188E+02  0.13950771936E+04  0.14150129692E+04  0.78497758553E+02 0.  0.
         24    2    4    4    0    0 -0.19979453307E+03 -0.71387279907E+02 -0.28005555927E+02  0.22841470247E+03  0.79843383979E+02 0.  0.
         13    1    3    3    0    0 -0.35056741858E+02  0.87947500301E+01 -0.17593920724E+02  0.40197870892E+02  0.00000000000E+00 0.  1.
        -13    1    3    3    0    0  0.23487771886E+02 -0.94137083110E+01  0.59832542276E+02  0.64963269988E+02  0.00000000000E+00 0. -1.
          4    1    6    6  502    0 -0.25542025604E+02 -0.16179396400E+02 -0.34036217943E+02  0.45526169086E+02  0.00000000000E+00 0. -1.
          3    1    5    5  503    0  0.80841780757E+02  0.66013928524E+02  0.53751801563E+03  0.54755716542E+03  0.00000000000E+00 0. -1.
         -4    1    5    5    0  503  0.13052172228E+03  0.59923096643E+01  0.85755917797E+03  0.86745580377E+03  0.00000000000E+00 0.  1.
         -3    1    6    6    0  502 -0.17425250747E+03 -0.55207883507E+02  0.60306620159E+01  0.18288853339E+03  0.00000000000E+00 0.  1.
<mgrwt>
<rscale>  0 0.10350881E+04</rscale>
<asrwt>0</asrwt>
<pdfrwt beam="1">  1        3 0.24291530E+00 0.10350881E+04</pdfrwt>
<pdfrwt beam="2">  1       -3 0.26098351E-01 0.10350881E+04</pdfrwt>
<totfact> 0.30106309E+00</totfact>
</mgrwt>
</event>
<event>
12    1  0.1397649E-007  0.1190581E+04  0.7818608E-02  0.9121141E-01
         -2   -1    0    0    0  501 -0.00000000000E+00  0.00000000000E+00  0.40916098136E+03  0.40916098136E+03  0.00000000000E+00 0. -1.
          2   -1    0    0  501    0  0.00000000000E+00 -0.00000000000E+00 -0.86609151661E+03  0.86609151661E+03  0.00000000000E+00 0.  1.
         23    2    1    2    0    0  0.95033177205E+00 -0.11203479728E+03  0.13754688367E+03  0.19951940217E+03  0.91302506552E+02 0.  0.
        254    2    1    2    0    0 -0.95033177205E+00  0.11203479728E+03 -0.59447741892E+03  0.10757330958E+04  0.88951986649E+03 0.  0.
        -24    2    4    4    0    0 -0.46170724259E+01  0.22338565385E+03 -0.79712817982E+03  0.83118945251E+03  0.74431869518E+02 0.  0.
         24    2    4    4    0    0  0.36667406539E+01 -0.11135085657E+03  0.20265076091E+03  0.24454364329E+03  0.79509775062E+02 0.  0.
         11    1    3    3    0    0  0.23860982527E+02 -0.30655859454E+02  0.92894011574E+00  0.38858604398E+02  0.00000000000E+00 0.  1.
        -11    1    3    3    0    0 -0.22910650755E+02 -0.81378937826E+02  0.13661794355E+03  0.16066079777E+03  0.00000000000E+00 0. -1.
          4    1    6    6  502    0  0.20982905880E+02 -0.10784785957E+03  0.19772909874E+03  0.22620397795E+03  0.00000000000E+00 0. -1.
          1    1    5    5  503    0  0.42784604491E+01  0.16560179053E+03 -0.68486314393E+03  0.70461321600E+03  0.00000000000E+00 0. -1.
         -2    1    5    5    0  503 -0.88955328750E+01  0.57783863328E+02 -0.11226503589E+03  0.12657623651E+03  0.00000000000E+00 0.  1.
         -3    1    6    6    0  502 -0.17316165226E+02 -0.35029969990E+01  0.49216621676E+01  0.18339665335E+02  0.00000000000E+00 0.  1.
<mgrwt>
<rscale>  0 0.11905811E+04</rscale>
<asrwt>0</asrwt>
<pdfrwt beam="1">  1        2 0.13324485E+00 0.11905811E+04</pdfrwt>
<pdfrwt beam="2">  1       -2 0.62947844E-01 0.11905811E+04</pdfrwt>
<totfact> 0.71445267E+01</totfact>
</mgrwt>
</event>
<event>
12    1  0.1454573E-007  0.2392102E+04  0.7818608E-02  0.8442466E-01
         -2   -1    0    0    0  501 -0.00000000000E+00  0.00000000000E+00  0.17013875563E+04  0.17013875563E+04  0.00000000000E+00 0.  1.
          2   -1    0    0  501    0  0.00000000000E+00 -0.00000000000E+00 -0.84080646634E+03  0.84080646634E+03  0.00000000000E+00 0. -1.
         23    2    1    2    0    0 -0.76015277491E+03  0.67891167168E+03  0.25155136975E+03  0.10536631788E+04  0.90414067513E+02 0.  0.
        254    2    1    2    0    0  0.76015277491E+03 -0.67891167168E+03  0.60902972017E+03  0.14885308438E+04  0.89780486395E+03 0.  0.
        -24    2    4    4    0    0  0.63417375521E+03 -0.49378509171E+03 -0.27653661707E+02  0.80821528854E+03  0.80294203005E+02 0.  0.
         24    2    4    4    0    0  0.12597901971E+03 -0.18512657997E+03  0.63668338187E+03  0.68031555526E+03  0.85562620086E+02 0.  0.
         11    1    3    3    0    0 -0.33718415055E+02  0.31482656583E+02  0.31959221646E+02  0.56120237237E+02  0.00000000000E+00 0. -1.
        -11    1    3    3    0    0 -0.72643435986E+03  0.64742901509E+03  0.21959214811E+03  0.99754294157E+03  0.00000000000E+00 0.  1.
          2    1    6    6  502    0 -0.12326480164E+02 -0.25466900420E+02  0.84309444976E+02  0.88930240315E+02  0.00000000000E+00 0. -1.
          1    1    5    5  503    0  0.31688805546E+02 -0.80229387794E+01  0.73454324362E+01  0.33503780701E+02  0.00000000000E+00 0. -1.
         -2    1    5    5    0  503  0.60248494966E+03 -0.48576215293E+03 -0.34999094143E+02  0.77471150784E+03  0.00000000000E+00 0.  1.
         -1    1    6    6    0  502  0.13830549987E+03 -0.15965967955E+03  0.55237393690E+03  0.59138531494E+03  0.00000000000E+00 0.  1.
<mgrwt>
<rscale>  0 0.23921017E+04</rscale>
<asrwt>0</asrwt>
<pdfrwt beam="1">  1        2 0.12935484E+00 0.23921017E+04</pdfrwt>
<pdfrwt beam="2">  1       -2 0.26175193E+00 0.23921017E+04</pdfrwt>
<totfact> 0.15776456E+00</totfact>
</mgrwt>
</event>
<event>
12    1  0.1397649E-007  0.2296459E+04  0.7818608E-02  0.8479319E-01
          1   -1    0    0  501    0  0.00000000000E+00  0.00000000000E+00  0.17473831166E+04  0.17473831166E+04  0.00000000000E+00 0. -1.
         -1   -1    0    0    0  501 -0.00000000000E+00 -0.00000000000E+00 -0.75451732111E+03  0.75451732111E+03  0.00000000000E+00 0.  1.
         23    2    1    2    0    0  0.80532815043E+03 -0.29895486457E+03  0.91129686184E+03  0.12559334215E+04  0.94759420665E+02 0.  0.
        254    2    1    2    0    0 -0.80532815043E+03  0.29895486457E+03  0.81568933606E+02  0.12459670162E+04  0.89880636050E+03 0.  0.
        -24    2    4    4    0    0 -0.26268625925E+03  0.46495031563E+03  0.31764684742E+03  0.62660632955E+03  0.80951255484E+02 0.  0.
         24    2    4    4    0    0 -0.54264189118E+03 -0.16599545106E+03 -0.23607791381E+03  0.61936068667E+03  0.76551727401E+02 0.  0.
         13    1    3    3    0    0  0.84810449229E+02 -0.64061720436E+02  0.11882755647E+03  0.15942617257E+03  0.00000000000E+00 0.  1.
        -13    1    3    3    0    0  0.72051770120E+03 -0.23489314413E+03  0.79246930537E+03  0.10965072489E+04  0.00000000000E+00 0. -1.
          2    1    6    6  502    0 -0.41124498262E+03 -0.92337213526E+02 -0.16259214671E+03  0.45175746027E+03  0.00000000000E+00 0. -1.
          3    1    5    5  503    0 -0.90857799953E+02  0.12312322184E+03  0.55257905061E+02  0.16268959291E+03  0.00000000000E+00 0. -1.
         -4    1    5    5    0  503 -0.17182845929E+03  0.34182709378E+03  0.26238894236E+03  0.46391673664E+03  0.00000000000E+00 0.  1.
         -1    1    6    6    0  502 -0.13139690855E+03 -0.73658237531E+02 -0.73485767101E+02  0.16760322640E+03  0.00000000000E+00 0.  1.
<mgrwt>
<rscale>  0 0.22964589E+04</rscale>
<asrwt>0</asrwt>
<pdfrwt beam="1">  1        1 0.26882817E+00 0.22964589E+04</pdfrwt>
<pdfrwt beam="2">  1       -1 0.11607959E+00 0.22964589E+04</pdfrwt>
<totfact> 0.26844512E+00</totfact>
</mgrwt>
</event>
<event>
12    1  0.1397649E-007  0.1805109E+04  0.7818608E-02  0.8703587E-01
          2   -1    0    0  501    0  0.00000000000E+00  0.00000000000E+00  0.19518703039E+04  0.19518703039E+04  0.00000000000E+00 0.  1.
         -2   -1    0    0    0  501 -0.00000000000E+00 -0.00000000000E+00 -0.41734578142E+03  0.41734578142E+03  0.00000000000E+00 0. -1.
         23    2    1    2    0    0 -0.19498573818E+03  0.39966381602E+03  0.12485742519E+04  0.13286256459E+04  0.92508596643E+02 0.  0.
        254    2    1    2    0    0  0.19498573818E+03 -0.39966381602E+03  0.28595027052E+03  0.10405904394E+04  0.89627579538E+03 0.  0.
        -24    2    4    4    0    0  0.35277974190E+03 -0.58816219967E+03  0.35060707497E+03  0.77421184974E+03  0.78040680607E+02 0.  0.
         24    2    4    4    0    0 -0.15779400372E+03  0.18849838365E+03 -0.64656804452E+02  0.26637858965E+03  0.79664687357E+02 0.  0.
         11    1    3    3    0    0 -0.31070907649E+01  0.22039793715E+02  0.23393183186E+02  0.32290053261E+02  0.00000000000E+00 0. -1.
        -11    1    3    3    0    0 -0.19187864742E+03  0.37762402230E+03  0.12251810687E+04  0.12963355926E+04  0.00000000000E+00 0.  1.
          4    1    6    6  502    0 -0.17975779800E+02  0.79247023849E+01 -0.29306896403E+02  0.35282059805E+02  0.00000000000E+00 0. -1.
          3    1    5    5  503    0  0.68041825019E+02 -0.17366865813E+03  0.77698154922E+02  0.20205815017E+03  0.00000000000E+00 0. -1.
         -4    1    5    5    0  503  0.28473791688E+03 -0.41449354154E+03  0.27290892005E+03  0.57215369957E+03  0.00000000000E+00 0.  1.
         -3    1    6    6    0  502 -0.13981822392E+03  0.18057368127E+03 -0.35349908049E+02  0.23109652984E+03  0.00000000000E+00 0.  1.
<mgrwt>
<rscale>  0 0.18051092E+04</rscale>
<asrwt>0</asrwt>
<pdfrwt beam="1">  1        2 0.30028774E+00 0.18051092E+04</pdfrwt>
<pdfrwt beam="2">  1       -2 0.64207044E-01 0.18051092E+04</pdfrwt>
<totfact> 0.15030514E+01</totfact>
</mgrwt>
</event>
<event>
12    1  0.1397649E-007  0.2287428E+04  0.7818608E-02  0.8482895E-01
         -2   -1    0    0    0  501 -0.00000000000E+00  0.00000000000E+00  0.59731048181E+03  0.59731048181E+03  0.00000000000E+00 0.  1.
          2   -1    0    0  501    0  0.00000000000E+00 -0.00000000000E+00 -0.21899517830E+04  0.21899517830E+04  0.00000000000E+00 0. -1.
         23    2    1    2    0    0  0.39171940573E+03  0.70964587652E+03 -0.72166922016E+02  0.81998530495E+03  0.10063037720E+03 0.  0.
        254    2    1    2    0    0 -0.39171940573E+03 -0.70964587652E+03 -0.15204743792E+04  0.19672769599E+04  0.94936554404E+03 0.  0.
        -24    2    4    4    0    0 -0.23947289164E+03 -0.63096620333E+03 -0.31850704753E+03  0.75056009264E+03  0.80175418748E+02 0.  0.
         24    2    4    4    0    0 -0.15224651409E+03 -0.78679673191E+02 -0.12019673317E+04  0.12167168673E+04  0.79403882695E+02 0.  0.
         13    1    3    3    0    0  0.22584793961E+03  0.38900263821E+03  0.92732324700E+01  0.44990703173E+03  0.00000000000E+00 0. -1.
        -13    1    3    3    0    0  0.16587146612E+03  0.32064323830E+03 -0.81440154486E+02  0.37007827321E+03  0.00000000000E+00 0.  1.
          4    1    6    6  502    0 -0.21145334501E+02 -0.20369042930E+02 -0.73232751690E+02  0.78899043094E+02  0.00000000000E+00 0. -1.
          1    1    5    5  503    0 -0.16381965920E+03 -0.43118488697E+03 -0.17564633608E+03  0.49356754641E+03  0.00000000000E+00 0. -1.
         -2    1    5    5    0  503 -0.75653232445E+02 -0.19978131636E+03 -0.14286071144E+03  0.25699254623E+03  0.00000000000E+00 0.  1.
         -3    1    6    6    0  502 -0.13110117959E+03 -0.58310630260E+02 -0.11287345800E+04  0.11378178242E+04  0.00000000000E+00 0.  1.
<mgrwt>
<rscale>  0 0.22874275E+04</rscale>
<asrwt>0</asrwt>
<pdfrwt beam="1">  1        2 0.33691566E+00 0.22874275E+04</pdfrwt>
<pdfrwt beam="2">  1       -2 0.91893920E-01 0.22874275E+04</pdfrwt>
<totfact> 0.47807280E+00</totfact>
</mgrwt>
</event>
<event>
12    1  0.1397649E-007  0.3452189E+04  0.7818608E-02  0.8125215E-01
          2   -1    0    0  501    0  0.00000000000E+00  0.00000000000E+00  0.13669611334E+04  0.13669611334E+04  0.00000000000E+00 0. -1.
         -2   -1    0    0    0  501 -0.00000000000E+00 -0.00000000000E+00 -0.21795809352E+04  0.21795809352E+04  0.00000000000E+00 0.  1.
         23    2    1    2    0    0 -0.10777629727E+04  0.11685904832E+04 -0.93095251039E+02  0.15950068565E+04  0.90572643108E+02 0.  0.
        254    2    1    2    0    0  0.10777629727E+04 -0.11685904832E+04 -0.71952455075E+03  0.19515352121E+04  0.87384058165E+03 0.  0.
        -24    2    4    4    0    0  0.69774414305E+03 -0.75006951536E+03  0.68459231243E+01  0.10273717331E+04  0.77425087695E+02 0.  0.
         24    2    4    4    0    0  0.38001882962E+03 -0.41852096788E+03 -0.72637047388E+03  0.92416347903E+03  0.83005778334E+02 0.  0.
         13    1    3    3    0    0 -0.46427671746E+03  0.46471091962E+03 -0.23374064750E+01  0.65689768812E+03  0.00000000000E+00 0.  1.
        -13    1    3    3    0    0 -0.61348625522E+03  0.70387956361E+03 -0.90757844564E+02  0.93810916836E+03  0.00000000000E+00 0. -1.
          2    1    6    6  502    0  0.25727288016E+03 -0.22908238054E+03 -0.46729208402E+03  0.58054281817E+03  0.00000000000E+00 0. -1.
          1    1    5    5  503    0  0.57593061610E+03 -0.65151474771E+03  0.22755870529E+02  0.86987664107E+03  0.00000000000E+00 0. -1.
         -2    1    5    5    0  503  0.12181352695E+03 -0.98554767656E+02 -0.15909947405E+02  0.15749509200E+03  0.00000000000E+00 0.  1.
         -1    1    6    6    0  502  0.12274594946E+03 -0.18943858733E+03 -0.25907838985E+03  0.34362066086E+03  0.00000000000E+00 0.  1.
<mgrwt>
<rscale>  0 0.34521891E+04</rscale>
<asrwt>0</asrwt>
<pdfrwt beam="1">  1        2 0.21030171E+00 0.34521891E+04</pdfrwt>
<pdfrwt beam="2">  1       -2 0.33532014E+00 0.34521891E+04</pdfrwt>
<totfact> 0.23977737E-01</totfact>
</mgrwt>
</event>
<event>
12    1  0.1397649E-007  0.1008134E+04  0.7818608E-02  0.9299668E-01
         -1   -1    0    0    0  501 -0.00000000000E+00  0.00000000000E+00  0.99079901243E+02  0.99079901243E+02  0.00000000000E+00 0.  1.
          1   -1    0    0  501    0  0.00000000000E+00 -0.00000000000E+00 -0.25644297744E+04  0.25644297744E+04  0.00000000000E+00 0. -1.
         23    2    1    2    0    0  0.15318805912E+03 -0.64236931420E+01 -0.28146245064E+03  0.33331723925E+03  0.91495494778E+02 0.  0.
        254    2    1    2    0    0 -0.15318805912E+03  0.64236931420E+01 -0.21838874225E+04  0.23301924364E+04  0.79807560490E+03 0.  0.
        -24    2    4    4    0    0  0.22680683625E+03 -0.42736118691E+02 -0.22263057321E+03  0.33026010049E+03  0.78991423825E+02 0.  0.
         24    2    4    4    0    0 -0.37999489537E+03  0.49159811833E+02 -0.19612568493E+04  0.19999323359E+04  0.79925663340E+02 0.  0.
         11    1    3    3    0    0  0.15692949832E+03 -0.22255646052E+01 -0.21275205543E+03  0.26437711261E+03  0.00000000000E+00 0.  1.
        -11    1    3    3    0    0 -0.37414391993E+01 -0.41981285367E+01 -0.68710395209E+02  0.68940126634E+02  0.00000000000E+00 0. -1.
          4    1    6    6  502    0 -0.78928044534E+01 -0.92394616177E+01 -0.11539661992E+03  0.11603466681E+03  0.00000000000E+00 0. -1.
          1    1    5    5  503    0  0.29088292077E+02 -0.35419102845E+01  0.83987638491E+00  0.29315171102E+02  0.00000000000E+00 0. -1.
         -2    1    5    5    0  503  0.19771854417E+03 -0.39194208407E+02 -0.22347044959E+03  0.30094492939E+03  0.00000000000E+00 0.  1.
         -3    1    6    6    0  502 -0.37210209092E+03  0.58399273451E+02 -0.18458602294E+04  0.18838976691E+04  0.00000000000E+00 0.  1.
<mgrwt>
<rscale>  0 0.10081338E+04</rscale>
<asrwt>0</asrwt>
<pdfrwt beam="1">  1        1 0.39452765E+00 0.10081338E+04</pdfrwt>
<pdfrwt beam="2">  1       -1 0.15243062E-01 0.10081338E+04</pdfrwt>
<totfact> 0.39778155E+01</totfact>
</mgrwt>
</event>
<event>
12    1  0.1397649E-007  0.1888347E+04  0.7818608E-02  0.8660679E-01
         -2   -1    0    0    0  501 -0.00000000000E+00  0.00000000000E+00  0.21535167691E+04  0.21535167691E+04  0.00000000000E+00 0.  1.
          2   -1    0    0  501    0  0.00000000000E+00 -0.00000000000E+00 -0.41395707772E+03  0.41395707772E+03  0.00000000000E+00 0. -1.
         23    2    1    2    0    0  0.89826714935E+02  0.37977211317E+03  0.14616669695E+04  0.15156250107E+04  0.91395550511E+02 0.  0.
        254    2    1    2    0    0 -0.89826714935E+02 -0.37977211317E+03  0.27789272194E+03  0.10518488362E+04  0.93641118779E+03 0.  0.
        -24    2    4    4    0    0 -0.95658369185E+02 -0.66735315014E+03  0.59672967593E+02  0.68190621339E+03  0.83213401575E+02 0.  0.
         24    2    4    4    0    0  0.58316542500E+01  0.28758103696E+03  0.21821975435E+03  0.36994262280E+03  0.80627674915E+02 0.  0.
         11    1    3    3    0    0 -0.14438121394E+02  0.11645998154E+03  0.45320811576E+03  0.46815487057E+03  0.00000000000E+00 0. -1.
        -11    1    3    3    0    0  0.10426483633E+03  0.26331213163E+03  0.10084588537E+04  0.10474701401E+04  0.00000000000E+00 0.  1.
          2    1    6    6  502    0 -0.25872757696E+02  0.33120934483E+02  0.25389891503E+02  0.49102367380E+02  0.00000000000E+00 0. -1.
          1    1    5    5  503    0 -0.25829711725E+02 -0.48191906705E+02 -0.75814956838E+01  0.55200660833E+02  0.00000000000E+00 0. -1.
         -2    1    5    5    0  503 -0.69828657460E+02 -0.61916124343E+03  0.67254463277E+02  0.62670555255E+03  0.00000000000E+00 0.  1.
         -1    1    6    6    0  502  0.31704411946E+02  0.25446010248E+03  0.19282986285E+03  0.32084025542E+03  0.00000000000E+00 0.  1.
<mgrwt>
<rscale>  0 0.18883469E+04</rscale>
<asrwt>0</asrwt>
<pdfrwt beam="1">  1        2 0.63685706E-01 0.18883469E+04</pdfrwt>
<pdfrwt beam="2">  1       -2 0.33131027E+00 0.18883469E+04</pdfrwt>
<totfact> 0.14644284E+00</totfact>
</mgrwt>
</event>
<event>
12    1  0.1397649E-007  0.2091133E+04  0.7818608E-02  0.8565159E-01
          1   -1    0    0  501    0  0.00000000000E+00  0.00000000000E+00  0.96364678045E+03  0.96364678045E+03  0.00000000000E+00 0. -1.
         -1   -1    0    0    0  501 -0.00000000000E+00 -0.00000000000E+00 -0.11344502544E+04  0.11344502544E+04  0.00000000000E+00 0.  1.
         23    2    1    2    0    0 -0.32956724309E+03  0.12846603314E+03  0.70606061398E+03  0.79497850706E+03  0.91384608602E+02 0.  0.
        254    2    1    2    0    0  0.32956724309E+03 -0.12846603314E+03 -0.87686408790E+03  0.13031185278E+04  0.89672134990E+03 0.  0.
        -24    2    4    4    0    0  0.43521214010E+02  0.23248310784E+03 -0.78852821448E+03  0.82702724842E+03  0.79087502804E+02 0.  0.
         24    2    4    4    0    0  0.28604602908E+03 -0.36094914098E+03 -0.88335873418E+02  0.47609127934E+03  0.82177044286E+02 0.  0.
         11    1    3    3    0    0 -0.19308842499E+03  0.76228042344E+02  0.31253803687E+03  0.37519845255E+03  0.00000000000E+00 0. -1.
        -11    1    3    3    0    0 -0.13647881810E+03  0.52237990799E+02  0.39352257710E+03  0.41978005451E+03  0.00000000000E+00 0.  1.
          4    1    6    6  502    0  0.18019283013E+03 -0.21302364246E+03 -0.93084602253E+02  0.29413138468E+03  0.00000000000E+00 0. -1.
          1    1    5    5  503    0 -0.14319796805E+02  0.14560173177E+02 -0.11397894319E+03  0.11579401847E+03  0.00000000000E+00 0. -1.
         -2    1    5    5    0  503  0.57841010815E+02  0.21792293466E+03 -0.67454927129E+03  0.71123322995E+03  0.00000000000E+00 0.  1.
         -3    1    6    6    0  502  0.10585319894E+03 -0.14792549852E+03  0.47487288350E+01  0.18195989466E+03  0.00000000000E+00 0.  1.
<mgrwt>
<rscale>  0 0.20911330E+04</rscale>
<asrwt>0</asrwt>
<pdfrwt beam="1">  1        1 0.14825335E+00 0.20911330E+04</pdfrwt>
<pdfrwt beam="2">  1       -1 0.17453081E+00 0.20911330E+04</pdfrwt>
<totfact> 0.33916931E+00</totfact>
</mgrwt>
</event>
<event>
12    1  0.1397649E-007  0.1480230E+04  0.7818608E-02  0.8897707E-01
         -3   -1    0    0    0  501 -0.00000000000E+00  0.00000000000E+00  0.14207695432E+04  0.14207695432E+04  0.00000000000E+00 0.  1.
          3   -1    0    0  501    0  0.00000000000E+00 -0.00000000000E+00 -0.38554454502E+03  0.38554454502E+03  0.00000000000E+00 0. -1.
         23    2    1    2    0    0 -0.83195611107E+02 -0.18906177864E+02  0.87836614210E+03  0.88804564001E+03  0.99090998055E+02 0.  0.
        254    2    1    2    0    0  0.83195611107E+02  0.18906177864E+02  0.15685885605E+03  0.91826844818E+03  0.90074041151E+03 0.  0.
        -24    2    4    4    0    0 -0.11352875284E+03  0.40095385072E+03 -0.60508936943E+02  0.42877328389E+03  0.80823445854E+02 0.  0.
         24    2    4    4    0    0  0.19672436395E+03 -0.38204767285E+03  0.21736779299E+03  0.48949516429E+03  0.87726043589E+02 0.  0.
         13    1    3    3    0    0 -0.38099323418E+02  0.15047345451E+02  0.69455387640E+03  0.69576078380E+03  0.00000000000E+00 0.  1.
        -13    1    3    3    0    0 -0.45096287688E+02 -0.33953523316E+02  0.18381226570E+03  0.19228485622E+03  0.00000000000E+00 0. -1.
          4    1    6    6  502    0  0.10923695187E+03 -0.12048129200E+03  0.86734613795E+02  0.18431317535E+03  0.00000000000E+00 0. -1.
          1    1    5    5  503    0 -0.29907388558E+02  0.30088324919E+02  0.59286368782E+01  0.42835825217E+02  0.00000000000E+00 0. -1.
         -2    1    5    5    0  503 -0.83621364286E+02  0.37086552580E+03 -0.66437573821E+02  0.38593745867E+03  0.00000000000E+00 0.  1.
         -3    1    6    6    0  502  0.87487412078E+02 -0.26156638085E+03  0.13063317919E+03  0.30518198894E+03  0.00000000000E+00 0.  1.
<mgrwt>
<rscale>  0 0.14802296E+04</rscale>
<asrwt>0</asrwt>
<pdfrwt beam="1">  1        3 0.59314546E-01 0.14802296E+04</pdfrwt>
<pdfrwt beam="2">  1       -3 0.21857993E+00 0.14802296E+04</pdfrwt>
<totfact> 0.79248799E-01</totfact>
</mgrwt>
</event>
<event>
12    1  0.1397649E-007  0.1732935E+04  0.7818608E-02  0.8742800E-01
         -2   -1    0    0    0  501 -0.00000000000E+00  0.00000000000E+00  0.51877349343E+03  0.51877349343E+03  0.00000000000E+00 0.  1.
          2   -1    0    0  501    0  0.00000000000E+00 -0.00000000000E+00 -0.14471943671E+04  0.14471943671E+04  0.00000000000E+00 0. -1.
         23    2    1    2    0    0  0.61574649796E+03  0.24703879378E+02 -0.38892513387E+03  0.73498496047E+03  0.95844149307E+02 0.  0.
        254    2    1    2    0    0 -0.61574649796E+03 -0.24703879378E+02 -0.53949573984E+03  0.12309829001E+04  0.91897182526E+03 0.  0.
        -24    2    4    4    0    0 -0.35668681431E+03 -0.44984593844E+03 -0.41144572817E+03  0.71071912690E+03  0.79039472959E+02 0.  0.
         24    2    4    4    0    0 -0.25905968365E+03  0.42514205906E+03 -0.12805001167E+03  0.52026377320E+03  0.80124266843E+02 0.  0.
         13    1    3    3    0    0  0.70030408885E+02 -0.21477548642E+02 -0.69493277842E+02  0.10096959408E+03  0.00000000000E+00 0. -1.
        -13    1    3    3    0    0  0.54571608908E+03  0.46181428020E+02 -0.31943185603E+03  0.63401536639E+03  0.00000000000E+00 0.  1.
          2    1    6    6  502    0 -0.16606493840E+03  0.19734063759E+03 -0.56694405331E+02  0.26407413090E+03  0.00000000000E+00 0. -1.
          3    1    5    5  503    0 -0.26038096652E+03 -0.36369433629E+03 -0.34824710771E+03  0.56687552955E+03  0.00000000000E+00 0. -1.
         -4    1    5    5    0  503 -0.96305847793E+02 -0.86151602143E+02 -0.63198620462E+02  0.14384359735E+03  0.00000000000E+00 0.  1.
         -1    1    6    6    0  502 -0.92994745246E+02  0.22780142147E+03 -0.71355606339E+02  0.25618964230E+03  0.00000000000E+00 0.  1.
<mgrwt>
<rscale>  0 0.17329352E+04</rscale>
<asrwt>0</asrwt>
<pdfrwt beam="1">  1        2 0.22264528E+00 0.17329352E+04</pdfrwt>
<pdfrwt beam="2">  1       -2 0.79811308E-01 0.17329352E+04</pdfrwt>
<totfact> 0.17937527E+01</totfact>
</mgrwt>
</event>
<event>
12    1  0.1397649E-007  0.2939017E+04  0.7818608E-02  0.8261363E-01
         -1   -1    0    0    0  501 -0.00000000000E+00  0.00000000000E+00  0.87204723098E+03  0.87204723098E+03  0.00000000000E+00 0.  1.
          1   -1    0    0  501    0  0.00000000000E+00 -0.00000000000E+00 -0.24763055412E+04  0.24763055412E+04  0.00000000000E+00 0. -1.
         23    2    1    2    0    0 -0.92071021929E+03  0.54110224195E+03  0.17205494935E+03  0.10857732924E+04  0.93817869514E+02 0.  0.
        254    2    1    2    0    0  0.92071021929E+03 -0.54110224195E+03 -0.17763132595E+04  0.22625794798E+04  0.90745697544E+03 0.  0.
        -24    2    4    4    0    0  0.32427486330E+03  0.23721797668E+03 -0.63708808745E+03  0.75735345613E+03  0.79224181321E+02 0.  0.
         24    2    4    4    0    0  0.59643535599E+03 -0.77832021864E+03 -0.11392251721E+04  0.15052260237E+04  0.79711310531E+02 0.  0.
         11    1    3    3    0    0 -0.23268171035E+01  0.75871803774E+01 -0.44559100202E+01  0.91013470442E+01  0.00000000000E+00 0. -1.
        -11    1    3    3    0    0 -0.91838340219E+03  0.53351506158E+03  0.17651085937E+03  0.10766719453E+04  0.00000000000E+00 0.  1.
          2    1    6    6  502    0  0.40258821350E+03 -0.46224691738E+03 -0.70336141737E+03  0.93298808445E+03  0.00000000000E+00 0. -1.
          3    1    5    5  503    0  0.32241167155E+03  0.22298660359E+03 -0.62817992233E+03  0.74046088766E+03  0.00000000000E+00 0. -1.
         -4    1    5    5    0  503  0.18631917429E+01  0.14231373094E+02 -0.89081651232E+01  0.16892568468E+02  0.00000000000E+00 0.  1.
         -1    1    6    6    0  502  0.19384714249E+03 -0.31607330125E+03 -0.43586375472E+03  0.57223793923E+03  0.00000000000E+00 0.  1.
<mgrwt>
<rscale>  0 0.29390171E+04</rscale>
<asrwt>0</asrwt>
<pdfrwt beam="1">  1        1 0.38097008E+00 0.29390171E+04</pdfrwt>
<pdfrwt beam="2">  1       -1 0.13416111E+00 0.29390171E+04</pdfrwt>
<totfact> 0.56318300E-01</totfact>
</mgrwt>
</event>
<event>
12    1  0.1397649E-007  0.1256352E+04  0.7818608E-02  0.9064913E-01
         -2   -1    0    0    0  501 -0.00000000000E+00  0.00000000000E+00  0.51376037314E+03  0.51376037314E+03  0.00000000000E+00 0. -1.
          2   -1    0    0  501    0  0.00000000000E+00 -0.00000000000E+00 -0.76807195506E+03  0.76807195506E+03  0.00000000000E+00 0.  1.
         23    2    1    2    0    0  0.24053782150E+02  0.50305358866E+02  0.22924217341E+03  0.25308514767E+03  0.91601879534E+02 0.  0.
        254    2    1    2    0    0 -0.24053782150E+02 -0.50305358866E+02 -0.48355375533E+03  0.10287471805E+04  0.90630420587E+03 0.  0.
        -24    2    4    4    0    0  0.24636052028E+03 -0.37863323291E+03 -0.34648800009E+03  0.57497516813E+03  0.80534953547E+02 0.  0.
         24    2    4    4    0    0 -0.27041430243E+03  0.32832787404E+03 -0.13706575524E+03  0.45377201240E+03  0.78733284831E+02 0.  0.
         11    1    3    3    0    0 -0.21968073637E+02  0.51222785048E+02  0.16420858354E+03  0.17340942557E+03  0.00000000000E+00 0.  1.
        -11    1    3    3    0    0  0.46021855787E+02 -0.91742618189E+00  0.65033589866E+02  0.79675722097E+02  0.00000000000E+00 0. -1.
          2    1    6    6  502    0 -0.24271748430E+02  0.65360953115E+02 -0.41422626589E+02  0.81098742022E+02  0.00000000000E+00 0. -1.
          3    1    5    5  503    0  0.55695857053E+02 -0.12813106772E+03 -0.71345676412E+02  0.15687512406E+03  0.00000000000E+00 0. -1.
         -4    1    5    5    0  503  0.19066466323E+03 -0.25050216520E+03 -0.27514232368E+03  0.41810004407E+03  0.00000000000E+00 0.  1.
         -1    1    6    6    0  502 -0.24614255400E+03  0.26296692093E+03 -0.95643128651E+02  0.37267327037E+03  0.00000000000E+00 0.  1.
<mgrwt>
<rscale>  0 0.12563518E+04</rscale>
<asrwt>0</asrwt>
<pdfrwt beam="1">  1        2 0.11816492E+00 0.12563518E+04</pdfrwt>
<pdfrwt beam="2">  1       -2 0.79040057E-01 0.12563518E+04</pdfrwt>
<totfact> 0.50781704E+01</totfact>
</mgrwt>
</event>
<event>
12    1  0.1397649E-007  0.1044994E+04  0.7818608E-02  0.9260527E-01
          1   -1    0    0  501    0  0.00000000000E+00  0.00000000000E+00  0.44660081951E+03  0.44660081951E+03  0.00000000000E+00 0. -1.
         -1   -1    0    0    0  501 -0.00000000000E+00 -0.00000000000E+00 -0.61129140293E+03  0.61129140293E+03  0.00000000000E+00 0.  1.
         23    2    1    2    0    0 -0.65874030963E+02 -0.37383420481E+01  0.60544228495E+02  0.12670985405E+03  0.89646083865E+02 0.  0.
        254    2    1    2    0    0  0.65874030963E+02  0.37383420481E+01 -0.22523481192E+03  0.93118236839E+03  0.90111959225E+03 0.  0.
        -24    2    4    4    0    0  0.16164032763E+03  0.42128105856E+03 -0.47807312188E+02  0.46064545768E+03  0.79393782918E+02 0.  0.
         24    2    4    4    0    0 -0.95766296667E+02 -0.41754271651E+03 -0.17742749973E+03  0.47053691071E+03  0.80070987197E+02 0.  0.
         11    1    3    3    0    0 -0.41461257422E+02  0.12528561212E+02 -0.14867177083E+02  0.45793380171E+02  0.00000000000E+00 0.  1.
        -11    1    3    3    0    0 -0.24412773541E+02 -0.16266903260E+02  0.75411405577E+02  0.80916473877E+02  0.00000000000E+00 0. -1.
          2    1    6    6  502    0 -0.26233672101E+02 -0.28337607988E+03 -0.11104793247E+03  0.30548625421E+03  0.00000000000E+00 0. -1.
          1    1    5    5  503    0  0.12056199519E+03  0.36353210881E+03 -0.63046715702E+02  0.38815676882E+03  0.00000000000E+00 0. -1.
         -2    1    5    5    0  503  0.41078332440E+02  0.57748949745E+02  0.15239403514E+02  0.72488688856E+02  0.00000000000E+00 0.  1.
         -1    1    6    6    0  502 -0.69532624566E+02 -0.13416663662E+03 -0.66379567259E+02  0.16505065650E+03  0.00000000000E+00 0.  1.
<mgrwt>
<rscale>  0 0.10449942E+04</rscale>
<asrwt>0</asrwt>
<pdfrwt beam="1">  1        1 0.68707819E-01 0.10449942E+04</pdfrwt>
<pdfrwt beam="2">  1       -1 0.94044831E-01 0.10449942E+04</pdfrwt>
<totfact> 0.56696716E+01</totfact>
</mgrwt>
</event>
<event>
12    1  0.1397649E-007  0.1618419E+04  0.7818608E-02  0.8809312E-01
         -2   -1    0    0    0  501 -0.00000000000E+00  0.00000000000E+00  0.53247484429E+03  0.53247484429E+03  0.00000000000E+00 0.  1.
          2   -1    0    0  501    0  0.00000000000E+00 -0.00000000000E+00 -0.12297674524E+04  0.12297674524E+04  0.00000000000E+00 0. -1.
         23    2    1    2    0    0 -0.28866439521E+03 -0.26620837441E+03  0.14595918321E+03  0.42874602271E+03  0.91241641562E+02 0.  0.
        254    2    1    2    0    0  0.28866439521E+03  0.26620837441E+03 -0.84325179136E+03  0.13334962740E+04  0.95548139569E+03 0.  0.
        -24    2    4    4    0    0 -0.10834812481E+03 -0.18005635994E+02 -0.82769657771E+03  0.83868688283E+03  0.79060379478E+02 0.  0.
         24    2    4    4    0    0  0.39701252002E+03  0.28421401041E+03 -0.15555213648E+02  0.49480939118E+03  0.78726260978E+02 0.  0.
         11    1    3    3    0    0 -0.12337200984E+02  0.66967621165E+01  0.10107541908E+02  0.17297848259E+02  0.00000000000E+00 0. -1.
        -11    1    3    3    0    0 -0.27632719423E+03 -0.27290513653E+03  0.13585164130E+03  0.41144817445E+03  0.00000000000E+00 0.  1.
          4    1    6    6  502    0  0.32341841400E+03  0.26045158792E+03  0.30667780379E+01  0.41526365756E+03  0.00000000000E+00 0. -1.
          3    1    5    5  503    0 -0.10051344436E+03 -0.38295611977E+02 -0.76021742130E+03  0.76778905569E+03  0.00000000000E+00 0. -1.
         -4    1    5    5    0  503 -0.78346804496E+01  0.20289975983E+02 -0.67479156409E+02  0.70897827138E+02  0.00000000000E+00 0.  1.
         -3    1    6    6    0  502  0.73594106018E+02  0.23762422492E+02 -0.18621991686E+02  0.79545733623E+02  0.00000000000E+00 0.  1.
<mgrwt>
<rscale>  0 0.16184193E+04</rscale>
<asrwt>0</asrwt>
<pdfrwt beam="1">  1        2 0.18919499E+00 0.16184193E+04</pdfrwt>
<pdfrwt beam="2">  1       -2 0.81919208E-01 0.16184193E+04</pdfrwt>
<totfact> 0.22816357E+01</totfact>
</mgrwt>
</event>
<event>
12    1  0.1397649E-007  0.1339578E+04  0.7818608E-02  0.8998755E-01
          1   -1    0    0  501    0  0.00000000000E+00  0.00000000000E+00  0.87290145176E+03  0.87290145176E+03  0.00000000000E+00 0. -1.
         -1   -1    0    0    0  501 -0.00000000000E+00 -0.00000000000E+00 -0.51393805032E+03  0.51393805032E+03  0.00000000000E+00 0.  1.
         23    2    1    2    0    0  0.19936149630E+03 -0.18589809446E+03 -0.14672082353E+03  0.32281094809E+03  0.91524862284E+02 0.  0.
        254    2    1    2    0    0 -0.19936149630E+03  0.18589809446E+03  0.50568422496E+03  0.10640285540E+04  0.89562108093E+03 0.  0.
        -24    2    4    4    0    0 -0.31631151246E+03  0.30558172792E+03 -0.76141120521E+02  0.45347477815E+03  0.80054599025E+02 0.  0.
         24    2    4    4    0    0  0.11695001616E+03 -0.11968363346E+03  0.58182534548E+03  0.61055377585E+03  0.79080352534E+02 0.  0.
         13    1    3    3    0    0  0.52992083915E+01 -0.32791175708E+02  0.37482115940E+01  0.33427412464E+02  0.00000000000E+00 0. -1.
        -13    1    3    3    0    0  0.19406228791E+03 -0.15310691875E+03 -0.15046903512E+03  0.28938353562E+03  0.00000000000E+00 0.  1.
          2    1    6    6  502    0  0.92303235393E+02 -0.99096690609E+02  0.54554323962E+03  0.56210094080E+03  0.00000000000E+00 0. -1.
          3    1    5    5  503    0 -0.10950436857E+03  0.15125680043E+03 -0.54511167662E+02  0.19452838819E+03  0.00000000000E+00 0. -1.
         -4    1    5    5    0  503 -0.20680714389E+03  0.15432492749E+03 -0.21629952859E+02  0.25894638996E+03  0.00000000000E+00 0.  1.
         -1    1    6    6    0  502  0.24646780766E+02 -0.20586942854E+02  0.36282105860E+02  0.48452835044E+02  0.00000000000E+00 0.  1.
<mgrwt>
<rscale>  0 0.13395779E+04</rscale>
<asrwt>0</asrwt>
<pdfrwt beam="1">  1        1 0.13429253E+00 0.13395779E+04</pdfrwt>
<pdfrwt beam="2">  1       -1 0.79067392E-01 0.13395779E+04</pdfrwt>
<totfact> 0.30029658E+01</totfact>
</mgrwt>
</event>
<event>
12    1  0.1397649E-007  0.1124650E+04  0.7818608E-02  0.9181493E-01
         -2   -1    0    0    0  501 -0.00000000000E+00  0.00000000000E+00  0.17321391651E+03  0.17321391651E+03  0.00000000000E+00 0.  1.
          2   -1    0    0  501    0  0.00000000000E+00 -0.00000000000E+00 -0.18255441680E+04  0.18255441680E+04  0.00000000000E+00 0. -1.
         23    2    1    2    0    0 -0.15361115290E+03  0.32344442090E+02 -0.11745503339E+03  0.21563157081E+03  0.89770486408E+02 0.  0.
        254    2    1    2    0    0  0.15361115290E+03 -0.32344442090E+02 -0.15348752181E+04  0.17831265137E+04  0.89389914391E+03 0.  0.
        -24    2    4    4    0    0 -0.18581750057E+03  0.21461001411E+03 -0.12108750640E+04  0.12464269187E+04  0.82316714002E+02 0.  0.
         24    2    4    4    0    0  0.33942865347E+03 -0.24695445620E+03 -0.32400015406E+03  0.53669959495E+03  0.82897775317E+02 0.  0.
         11    1    3    3    0    0 -0.15730601678E+03  0.39506342889E+02 -0.86844515654E+02  0.18397799853E+03  0.00000000000E+00 0.  1.
        -11    1    3    3    0    0  0.36948638727E+01 -0.71619007995E+01 -0.30610517736E+02  0.31653572281E+02  0.00000000000E+00 0. -1.
          4    1    6    6  502    0  0.51496235657E+02 -0.39751252794E+02 -0.92580583889E+02  0.11315117719E+03  0.00000000000E+00 0. -1.
          3    1    5    5  503    0 -0.44078937526E+02  0.70035048806E+02 -0.51830886039E+03  0.52487325666E+03  0.00000000000E+00 0. -1.
         -4    1    5    5    0  503 -0.14173856304E+03  0.14457496530E+03 -0.69256620363E+03  0.72155366207E+03  0.00000000000E+00 0.  1.
         -3    1    6    6    0  502  0.28793241781E+03 -0.20720320341E+03 -0.23141957017E+03  0.42354841776E+03  0.00000000000E+00 0.  1.
<mgrwt>
<rscale>  0 0.11246504E+04</rscale>
<asrwt>0</asrwt>
<pdfrwt beam="1">  1        2 0.28085295E+00 0.11246504E+04</pdfrwt>
<pdfrwt beam="2">  1       -2 0.26648295E-01 0.11246504E+04</pdfrwt>
<totfact> 0.10578625E+02</totfact>
</mgrwt>
</event>
<event>
12    1  0.1397649E-007  0.1396123E+04  0.7818608E-02  0.8956630E-01
          2   -1    0    0  501    0  0.00000000000E+00  0.00000000000E+00  0.15505416609E+04  0.15505416609E+04  0.00000000000E+00 0. -1.
         -2   -1    0    0    0  501 -0.00000000000E+00 -0.00000000000E+00 -0.31427072495E+03  0.31427072495E+03  0.00000000000E+00 0.  1.
         23    2    1    2    0    0 -0.37198262203E+03  0.98816653156E+02  0.22459779876E+03  0.45523893879E+03  0.93072649861E+02 0.  0.
        254    2    1    2    0    0  0.37198262203E+03 -0.98816653156E+02  0.10116731372E+04  0.14095734471E+04  0.90292799497E+03 0.  0.
        -24    2    4    4    0    0  0.65643718013E+03  0.14912243624E+02  0.62584151443E+03  0.91058206185E+03  0.79686534045E+02 0.  0.
         24    2    4    4    0    0 -0.28445455810E+03 -0.11372889678E+03  0.38583162277E+03  0.49899138521E+03  0.79231961972E+02 0.  0.
         13    1    3    3    0    0 -0.86163553156E+02  0.17387517365E+02  0.99569793827E+02  0.13281802399E+03  0.00000000000E+00 0.  1.
        -13    1    3    3    0    0 -0.28581906887E+03  0.81429135791E+02  0.12502800493E+03  0.32242091481E+03  0.00000000000E+00 0. -1.
          2    1    6    6  502    0 -0.11468413063E+02  0.11268415878E+02  0.16878279630E+02  0.23310470133E+02  0.00000000000E+00 0. -1.
          3    1    5    5  503    0  0.98629657318E+02 -0.18788020798E+01  0.58075576602E+02  0.11447319248E+03  0.00000000000E+00 0. -1.
         -2    1    5    5    0  503  0.55780752282E+03  0.16791045704E+02  0.56776593783E+03  0.79610886937E+03  0.00000000000E+00 0.  1.
         -1    1    6    6    0  502 -0.27298614504E+03 -0.12499731266E+03  0.36895334314E+03  0.47568091508E+03  0.00000000000E+00 0.  1.
<mgrwt>
<rscale>  0 0.13961230E+04</rscale>
<asrwt>0</asrwt>
<pdfrwt beam="1">  1        2 0.23854487E+00 0.13961230E+04</pdfrwt>
<pdfrwt beam="2">  1       -2 0.48349343E-01 0.13961230E+04</pdfrwt>
<totfact> 0.46886085E+01</totfact>
</mgrwt>
</event>
<event>
12    1  0.1397649E-007  0.2391739E+04  0.7818608E-02  0.8442603E-01
         -2   -1    0    0    0  501 -0.00000000000E+00  0.00000000000E+00  0.26620436379E+04  0.26620436379E+04  0.00000000000E+00 0.  1.
          2   -1    0    0  501    0  0.00000000000E+00 -0.00000000000E+00 -0.53722045120E+03  0.53722045120E+03  0.00000000000E+00 0. -1.
         23    2    1    2    0    0 -0.83607659631E+02 -0.97414468734E+03  0.13156123026E+04  0.16414864990E+04  0.87715922576E+02 0.  0.
        254    2    1    2    0    0  0.83607659631E+02  0.97414468734E+03  0.80921088412E+03  0.15577775901E+04  0.90327219188E+03 0.  0.
        -24    2    4    4    0    0  0.28284832540E+03 -0.29724439909E+02  0.24790125425E+03  0.38764599456E+03  0.89037451291E+02 0.  0.
         24    2    4    4    0    0 -0.19924066577E+03  0.10038691272E+04  0.56130962987E+03  0.11701315955E+04  0.81788646822E+02 0.  0.
         13    1    3    3    0    0  0.10469764108E+02 -0.25593833811E+03  0.30940333837E+03  0.40167707759E+03  0.00000000000E+00 0. -1.
        -13    1    3    3    0    0 -0.94077423739E+02 -0.71820634923E+03  0.10062089642E+04  0.12398094214E+04  0.00000000000E+00 0.  1.
          2    1    6    6  502    0 -0.13694101843E+03  0.84557097499E+03  0.47008092669E+03  0.97709733083E+03  0.00000000000E+00 0. -1.
          1    1    5    5  503    0  0.27580846412E+03 -0.39449633581E+02  0.21291064511E+03  0.35065299838E+03  0.00000000000E+00 0. -1.
         -2    1    5    5    0  503  0.70398612788E+01  0.97251936719E+01  0.34990609136E+02  0.36992996182E+02  0.00000000000E+00 0.  1.
         -1    1    6    6    0  502 -0.62299647346E+02  0.15829815226E+03  0.91228703181E+02  0.19303426471E+03  0.00000000000E+00 0.  1.
<mgrwt>
<rscale>  0 0.23917394E+04</rscale>
<asrwt>0</asrwt>
<pdfrwt beam="1">  1        2 0.82649302E-01 0.23917394E+04</pdfrwt>
<pdfrwt beam="2">  1       -2 0.40954517E+00 0.23917394E+04</pdfrwt>
<totfact> 0.32750995E-01</totfact>
</mgrwt>
</event>
<event>
12    1  0.1397649E-007  0.1980494E+04  0.7818608E-02  0.8615795E-01
         -2   -1    0    0    0  501 -0.00000000000E+00  0.00000000000E+00  0.58397566941E+03  0.58397566941E+03  0.00000000000E+00 0.  1.
          2   -1    0    0  501    0  0.00000000000E+00 -0.00000000000E+00 -0.16791615476E+04  0.16791615476E+04  0.00000000000E+00 0. -1.
         23    2    1    2    0    0 -0.77890477099E+03 -0.28305331235E+02 -0.32441462730E+03  0.84912734526E+03  0.90986614478E+02 0.  0.
        254    2    1    2    0    0  0.77890477099E+03  0.28305331235E+02 -0.77077125085E+03  0.14140098717E+04  0.89321988454E+03 0.  0.
        -24    2    4    4    0    0  0.41370433695E+03 -0.40703155038E+03 -0.53528068557E+03  0.79366234329E+03  0.80923058520E+02 0.  0.
         24    2    4    4    0    0  0.36520043404E+03  0.43533688161E+03 -0.23549056529E+03  0.62034752843E+03  0.80533795259E+02 0.  0.
         13    1    3    3    0    0 -0.41999594956E+03 -0.27813596164E+02 -0.12778536605E+03  0.43988554597E+03  0.00000000000E+00 0.  1.
        -13    1    3    3    0    0 -0.35890882143E+03 -0.49173507147E+00 -0.19662926126E+03  0.40924179929E+03  0.00000000000E+00 0. -1.
          2    1    6    6  502    0  0.27238938938E+03  0.35234907898E+03 -0.15261287508E+03  0.47078290384E+03  0.00000000000E+00 0. -1.
          3    1    5    5  503    0  0.35473808913E+03 -0.36051502962E+03 -0.42720859877E+03  0.66205542466E+03  0.00000000000E+00 0. -1.
         -4    1    5    5    0  503  0.58966247814E+02 -0.46516520753E+02 -0.10807208680E+03  0.13160691862E+03  0.00000000000E+00 0.  1.
         -1    1    6    6    0  502  0.92811044659E+02  0.82987802629E+02 -0.82877690204E+02  0.14956462459E+03  0.00000000000E+00 0.  1.
<mgrwt>
<rscale>  0 0.19804944E+04</rscale>
<asrwt>0</asrwt>
<pdfrwt beam="1">  1        2 0.25833254E+00 0.19804944E+04</pdfrwt>
<pdfrwt beam="2">  1       -2 0.89842411E-01 0.19804944E+04</pdfrwt>
<totfact> 0.99453517E+00</totfact>
</mgrwt>
</event>
<event>
12    1  0.1397649E-007  0.1176354E+04  0.7818608E-02  0.9133810E-01
         -2   -1    0    0    0  501 -0.00000000000E+00  0.00000000000E+00  0.26238340184E+03  0.26238340184E+03  0.00000000000E+00 0.  1.
          2   -1    0    0  501    0  0.00000000000E+00 -0.00000000000E+00 -0.13184980781E+04  0.13184980781E+04  0.00000000000E+00 0. -1.
         23    2    1    2    0    0  0.15167742796E+03 -0.10702320149E+02 -0.24784819684E+02  0.17917497835E+03  0.91481166216E+02 0.  0.
        254    2    1    2    0    0 -0.15167742796E+03  0.10702320149E+02 -0.10313298566E+04  0.14017065016E+04  0.93702682017E+03 0.  0.
        -24    2    4    4    0    0 -0.21679703306E+03 -0.25198584498E+03 -0.98256245150E+01  0.34190390682E+03  0.79397222808E+02 0.  0.
         24    2    4    4    0    0  0.65119605099E+02  0.26268816513E+03 -0.10215042321E+04  0.10598025948E+04  0.80405277709E+02 0.  0.
         11    1    3    3    0    0  0.47589722614E+02  0.35877723579E+02  0.89222512084E+01  0.60262752296E+02  0.00000000000E+00 0.  1.
        -11    1    3    3    0    0  0.10408770535E+03 -0.46580043728E+02 -0.33707070893E+02  0.11891222606E+03  0.00000000000E+00 0. -1.
          2    1    6    6  502    0  0.50092297092E+02  0.92214218356E+02 -0.50148347043E+03  0.51234594896E+03  0.00000000000E+00 0. -1.
          3    1    5    5  503    0 -0.14641144081E+03 -0.14319743428E+03  0.28527359704E+02  0.20677433457E+03  0.00000000000E+00 0. -1.
         -4    1    5    5    0  503 -0.70385592248E+02 -0.10878841070E+03 -0.38352984219E+02  0.13512957226E+03  0.00000000000E+00 0.  1.
         -1    1    6    6    0  502  0.15027308007E+02  0.17047394678E+03 -0.52002076163E+03  0.54745664581E+03  0.00000000000E+00 0.  1.
<mgrwt>
<rscale>  0 0.11763537E+04</rscale>
<asrwt>0</asrwt>
<pdfrwt beam="1">  1        2 0.20284585E+00 0.11763537E+04</pdfrwt>
<pdfrwt beam="2">  1       -2 0.40366678E-01 0.11763537E+04</pdfrwt>
<totfact> 0.92519090E+01</totfact>
</mgrwt>
</event>
<event>
12    1  0.1397649E-007  0.1711361E+04  0.7818608E-02  0.8754911E-01
          1   -1    0    0  501    0  0.00000000000E+00  0.00000000000E+00  0.22902738471E+04  0.22902738471E+04  0.00000000000E+00 0. -1.
         -1   -1    0    0    0  501 -0.00000000000E+00 -0.00000000000E+00 -0.31969509682E+03  0.31969509682E+03  0.00000000000E+00 0.  1.
         23    2    1    2    0    0 -0.28496713762E+02 -0.27628277177E+03  0.15519442038E+04  0.15792802234E+04  0.91929210159E+02 0.  0.
        254    2    1    2    0    0  0.28496713762E+02  0.27628277177E+03  0.41863454642E+03  0.10306887205E+04  0.89995562244E+03 0.  0.
        -24    2    4    4    0    0 -0.17059800529E+03  0.37573132525E+03  0.60014622454E+03  0.73258405519E+03  0.78906266554E+02 0.  0.
         24    2    4    4    0    0  0.19909471905E+03 -0.99448553487E+02 -0.18151167812E+03  0.29810466527E+03  0.79944857345E+02 0.  0.
         11    1    3    3    0    0 -0.46245923294E+02 -0.25422735764E+03  0.12769171818E+04  0.13027999554E+04  0.00000000000E+00 0. -1.
        -11    1    3    3    0    0  0.17749209532E+02 -0.22055414130E+02  0.27502702204E+03  0.27648026799E+03  0.00000000000E+00 0.  1.
          4    1    6    6  502    0  0.78008216481E+02 -0.54296088753E+02 -0.31553570356E+02  0.10014476968E+03  0.00000000000E+00 0. -1.
          3    1    5    5  503    0 -0.95169158100E+01  0.23023762152E+01  0.32653514520E+01  0.10321586258E+02  0.00000000000E+00 0. -1.
         -4    1    5    5    0  503 -0.16108108948E+03  0.37342894904E+03  0.59688087309E+03  0.72226246893E+03  0.00000000000E+00 0.  1.
         -3    1    6    6    0  502  0.12108650257E+03 -0.45152464733E+02 -0.14995810777E+03  0.19795989559E+03  0.00000000000E+00 0.  1.
<mgrwt>
<rscale>  0 0.17113612E+04</rscale>
<asrwt>0</asrwt>
<pdfrwt beam="1">  1        1 0.35234981E+00 0.17113612E+04</pdfrwt>
<pdfrwt beam="2">  1       -1 0.49183863E-01 0.17113612E+04</pdfrwt>
<totfact> 0.74478389E+00</totfact>
</mgrwt>
</event>
<event>
12    1  0.1397649E-007  0.1373729E+04  0.7818608E-02  0.8973058E-01
          2   -1    0    0  501    0  0.00000000000E+00  0.00000000000E+00  0.17150149443E+04  0.17150149443E+04  0.00000000000E+00 0. -1.
         -2   -1    0    0    0  501 -0.00000000000E+00 -0.00000000000E+00 -0.27508948781E+03  0.27508948781E+03  0.00000000000E+00 0.  1.
         23    2    1    2    0    0 -0.25458475942E+03  0.71173058975E+02  0.10573399163E+02  0.28200957755E+03  0.97665761692E+02 0.  0.
        254    2    1    2    0    0  0.25458475942E+03 -0.71173058975E+02  0.14293520573E+04  0.17080948546E+04  0.89702938876E+03 0.  0.
        -24    2    4    4    0    0  0.15189078956E+03  0.39470518678E+03  0.49310603585E+03  0.65441467789E+03  0.79006402388E+02 0.  0.
         24    2    4    4    0    0  0.10269396986E+03 -0.46587824575E+03  0.93624602148E+03  0.10536801767E+04  0.78081436002E+02 0.  0.
         11    1    3    3    0    0 -0.12532545847E+03  0.79677721068E+02 -0.17276569488E+02  0.14951083449E+03  0.00000000000E+00 0.  1.
        -11    1    3    3    0    0 -0.12925930095E+03 -0.85046620930E+01  0.27849968652E+02  0.13249874307E+03  0.00000000000E+00 0. -1.
          4    1    6    6  502    0  0.70747018983E+02 -0.42821078536E+03  0.83934217892E+03  0.94491529287E+03  0.00000000000E+00 0. -1.
          3    1    5    5  503    0  0.64173577687E+02  0.24612581848E+03  0.25310164558E+03  0.35882671248E+03  0.00000000000E+00 0. -1.
         -4    1    5    5    0  503  0.87717211873E+02  0.14857936830E+03  0.24000439027E+03  0.29558796541E+03  0.00000000000E+00 0.  1.
         -3    1    6    6    0  502  0.31946950882E+02 -0.37667460389E+02  0.96903842565E+02  0.10876488379E+03  0.00000000000E+00 0.  1.
<mgrwt>
<rscale>  0 0.13737286E+04</rscale>
<asrwt>0</asrwt>
<pdfrwt beam="1">  1        2 0.26384845E+00 0.13737286E+04</pdfrwt>
<pdfrwt beam="2">  1       -2 0.42321461E-01 0.13737286E+04</pdfrwt>
<totfact> 0.49638191E+01</totfact>
</mgrwt>
</event>
<event>
12    1  0.1397649E-007  0.1250964E+04  0.7818608E-02  0.9069382E-01
         -2   -1    0    0    0  501 -0.00000000000E+00  0.00000000000E+00  0.16523569304E+03  0.16523569304E+03  0.00000000000E+00 0.  1.
          2   -1    0    0  501    0  0.00000000000E+00 -0.00000000000E+00 -0.23676933782E+04  0.23676933782E+04  0.00000000000E+00 0. -1.
         23    2    1    2    0    0  0.31009562545E+02 -0.56839349686E+02  0.39761849350E+02  0.11712993582E+03  0.89140970157E+02 0.  0.
        254    2    1    2    0    0 -0.31009562545E+02  0.56839349686E+02 -0.22422195345E+04  0.24157991355E+04  0.89685267305E+03 0.  0.
        -24    2    4    4    0    0  0.39841243972E+03 -0.17128561602E+02 -0.68319091589E+03  0.79503199249E+03  0.79373684486E+02 0.  0.
         24    2    4    4    0    0 -0.42942200227E+03  0.73967911289E+02 -0.15590286187E+04  0.16207671430E+04  0.80258270603E+02 0.  0.
         11    1    3    3    0    0 -0.19777788230E+02 -0.47571187047E+02  0.40447228024E+02  0.65499290066E+02  0.00000000000E+00 0.  1.
        -11    1    3    3    0    0  0.50787350775E+02 -0.92681626395E+01 -0.68537867472E+00  0.51630645758E+02  0.00000000000E+00 0. -1.
          4    1    6    6  502    0 -0.30745863960E+03  0.88098496948E+02 -0.10925911205E+04  0.11384408271E+04  0.00000000000E+00 0. -1.
          1    1    5    5  503    0  0.28706086235E+03  0.24518617044E+01 -0.42161373951E+03  0.51006675608E+03  0.00000000000E+00 0. -1.
         -2    1    5    5    0  503  0.11135157737E+03 -0.19580423307E+02 -0.26157717638E+03  0.28496523641E+03  0.00000000000E+00 0.  1.
         -3    1    6    6    0  502 -0.12196336266E+03 -0.14130585660E+02 -0.46643749819E+03  0.48232631589E+03  0.00000000000E+00 0.  1.
<mgrwt>
<rscale>  0 0.12509636E+04</rscale>
<asrwt>0</asrwt>
<pdfrwt beam="1">  1        2 0.36426051E+00 0.12509636E+04</pdfrwt>
<pdfrwt beam="2">  1       -2 0.25420876E-01 0.12509636E+04</pdfrwt>
<totfact> 0.57007723E+01</totfact>
</mgrwt>
</event>
<event>
12    1  0.1397649E-007  0.2328351E+04  0.7818608E-02  0.8466826E-01
          2   -1    0    0  501    0  0.00000000000E+00  0.00000000000E+00  0.53478182286E+03  0.53478182286E+03  0.00000000000E+00 0. -1.
         -2   -1    0    0    0  501 -0.00000000000E+00 -0.00000000000E+00 -0.25343134834E+04  0.25343134834E+04  0.00000000000E+00 0.  1.
         23    2    1    2    0    0 -0.69349381676E+03  0.61707238286E+03 -0.14064306996E+04  0.16876361786E+04  0.91414215722E+02 0.  0.
        254    2    1    2    0    0  0.69349381676E+03 -0.61707238286E+03 -0.59310096094E+03  0.13814591277E+04  0.83363575503E+03 0.  0.
        -24    2    4    4    0    0 -0.80153771643E+02 -0.36780640301E+03 -0.23206821125E+02  0.38556453906E+03  0.80095443252E+02 0.  0.
         24    2    4    4    0    0  0.77364758840E+03 -0.24926597985E+03 -0.56989413981E+03  0.99589458864E+03  0.79765790504E+02 0.  0.
         13    1    3    3    0    0 -0.60244918656E+03  0.50174978823E+03 -0.11441231868E+04  0.13869807998E+04  0.00000000000E+00 0.  1.
        -13    1    3    3    0    0 -0.91044630203E+02  0.11532259462E+03 -0.26230751281E+03  0.30065537879E+03  0.00000000000E+00 0. -1.
          4    1    6    6  502    0  0.20849492696E+03 -0.52058903728E+02 -0.19079021599E+03  0.28736939737E+03  0.00000000000E+00 0. -1.
          1    1    5    5  503    0 -0.57486802128E+02 -0.33496397989E+03 -0.92976116964E+00  0.33986242025E+03  0.00000000000E+00 0. -1.
         -2    1    5    5    0  503 -0.22666969515E+02 -0.32842423121E+02 -0.22277059956E+02  0.45702118810E+02  0.00000000000E+00 0.  1.
         -3    1    6    6    0  502  0.56515266144E+03 -0.19720707612E+03 -0.37910392382E+03  0.70852519127E+03  0.00000000000E+00 0.  1.
<mgrwt>
<rscale>  0 0.23283512E+04</rscale>
<asrwt>0</asrwt>
<pdfrwt beam="1">  1        2 0.82274128E-01 0.23283512E+04</pdfrwt>
<pdfrwt beam="2">  1       -2 0.38989437E+00 0.23283512E+04</pdfrwt>
<totfact> 0.44516145E-01</totfact>
</mgrwt>
</event>
<event>
12    1  0.1397649E-007  0.1714524E+04  0.7818608E-02  0.8753124E-01
          2   -1    0    0  501    0  0.00000000000E+00  0.00000000000E+00  0.19852217739E+04  0.19852217739E+04  0.00000000000E+00 0. -1.
         -2   -1    0    0    0  501 -0.00000000000E+00 -0.00000000000E+00 -0.37018461727E+03  0.37018461727E+03  0.00000000000E+00 0.  1.
         23    2    1    2    0    0 -0.24532814351E+03  0.46373252431E+03  0.10664339627E+04  0.11916653136E+04  0.86896897786E+02 0.  0.
        254    2    1    2    0    0  0.24532814351E+03 -0.46373252431E+03  0.54860319396E+03  0.11637410775E+04  0.88209641143E+03 0.  0.
        -24    2    4    4    0    0  0.34051586914E+02  0.25702643590E+03  0.15107481075E+03  0.31037507757E+03  0.79290548062E+02 0.  0.
         24    2    4    4    0    0  0.21127655659E+03 -0.72075896021E+03  0.39752838321E+03  0.85336599998E+03  0.77932357661E+02 0.  0.
         11    1    3    3    0    0 -0.18637599822E+03  0.30447845632E+03  0.64309156649E+03  0.73553375583E+03  0.00000000000E+00 0. -1.
        -11    1    3    3    0    0 -0.58952145284E+02  0.15925406799E+03  0.42334239620E+03  0.45613155780E+03  0.00000000000E+00 0.  1.
          2    1    6    6  502    0  0.21730065682E+03 -0.70781828875E+03  0.38588410548E+03  0.83494481746E+03  0.00000000000E+00 0. -1.
          3    1    5    5  503    0  0.59392484057E+02  0.19828733651E+03  0.11991998896E+03  0.23921985440E+03  0.00000000000E+00 0. -1.
         -4    1    5    5    0  503 -0.25340897143E+02  0.58739099386E+02  0.31154821788E+02  0.71155223177E+02  0.00000000000E+00 0.  1.
         -1    1    6    6    0  502 -0.60241002288E+01 -0.12940671458E+02  0.11644277730E+02  0.18421182514E+02  0.00000000000E+00 0.  1.
<mgrwt>
<rscale>  0 0.17145245E+04</rscale>
<asrwt>0</asrwt>
<pdfrwt beam="1">  1        2 0.30541873E+00 0.17145245E+04</pdfrwt>
<pdfrwt beam="2">  1       -2 0.56951481E-01 0.17145245E+04</pdfrwt>
<totfact> 0.18708240E+01</totfact>
</mgrwt>
</event>
<event>
12    1  0.1397649E-007  0.1632306E+04  0.7818608E-02  0.8800943E-01
         -2   -1    0    0    0  501 -0.00000000000E+00  0.00000000000E+00  0.30872730793E+03  0.30872730793E+03  0.00000000000E+00 0.  1.
          2   -1    0    0  501    0  0.00000000000E+00 -0.00000000000E+00 -0.21575871279E+04  0.21575871279E+04  0.00000000000E+00 0. -1.
         23    2    1    2    0    0 -0.64721018331E+02 -0.20410825952E+03  0.14007283242E+03  0.27221515799E+03  0.92906953691E+02 0.  0.
        254    2    1    2    0    0  0.64721018331E+02  0.20410825952E+03 -0.19889326523E+04  0.21940992778E+04  0.90131545721E+03 0.  0.
        -24    2    4    4    0    0  0.19746758918E+03  0.52690671070E+03 -0.12028594490E+04  0.13302918185E+04  0.78621484317E+02 0.  0.
         24    2    4    4    0    0 -0.13274657085E+03 -0.32279845119E+03 -0.78607320332E+03  0.86380745925E+03  0.80198213976E+02 0.  0.
         13    1    3    3    0    0 -0.20810495911E+02 -0.58758260401E+02 -0.45803778340E+01  0.62502718072E+02  0.00000000000E+00 0. -1.
        -13    1    3    3    0    0 -0.43910522420E+02 -0.14534999912E+03  0.14465321025E+03  0.20971243992E+03  0.00000000000E+00 0.  1.
          4    1    6    6  502    0  0.70262507531E+01 -0.45396397508E+02 -0.13093947108E+03  0.13876363426E+03  0.00000000000E+00 0. -1.
          1    1    5    5  503    0  0.12130755210E+03  0.41607123815E+03 -0.89976617803E+03  0.99870414665E+03  0.00000000000E+00 0. -1.
         -2    1    5    5    0  503  0.76160037076E+02  0.11083547255E+03 -0.30309327099E+03  0.33158767188E+03  0.00000000000E+00 0.  1.
         -1    1    6    6    0  502 -0.13977282160E+03 -0.27740205368E+03 -0.65513373224E+03  0.72504382499E+03  0.00000000000E+00 0.  1.
<mgrwt>
<rscale>  0 0.16323064E+04</rscale>
<asrwt>0</asrwt>
<pdfrwt beam="1">  1        2 0.33193647E+00 0.16323064E+04</pdfrwt>
<pdfrwt beam="2">  1       -2 0.47496510E-01 0.16323064E+04</pdfrwt>
<totfact> 0.21933191E+01</totfact>
</mgrwt>
</event>
<event>
12    1  0.1397649E-007  0.2477279E+04  0.7818608E-02  0.8411125E-01
          2   -1    0    0  501    0  0.00000000000E+00  0.00000000000E+00  0.80937923944E+03  0.80937923944E+03  0.00000000000E+00 0. -1.
         -2   -1    0    0    0  501 -0.00000000000E+00 -0.00000000000E+00 -0.18955612185E+04  0.18955612185E+04  0.00000000000E+00 0.  1.
         23    2    1    2    0    0 -0.10188816728E+04 -0.23776234630E+03 -0.21584851839E+03  0.10720493935E+04  0.89713558738E+02 0.  0.
        254    2    1    2    0    0  0.10188816728E+04  0.23776234630E+03 -0.87033346070E+03  0.16328910645E+04  0.90233147960E+03 0.  0.
        -24    2    4    4    0    0  0.77243704102E+03  0.26411312983E+03 -0.10380208930E+04  0.13227797206E+04  0.76446629481E+02 0.  0.
         24    2    4    4    0    0  0.24644463183E+03 -0.26350783529E+02  0.16768743230E+03  0.31011134391E+03  0.81367378732E+02 0.  0.
         13    1    3    3    0    0 -0.93662277084E+03 -0.20048753931E+03 -0.17854756024E+03  0.97433910910E+03  0.00000000000E+00 0. -1.
        -13    1    3    3    0    0 -0.82258902008E+02 -0.37274806993E+02 -0.37300958153E+02  0.97710284387E+02  0.00000000000E+00 0.  1.
          2    1    6    6  502    0  0.22505518506E+02 -0.22815159800E+02  0.43461709266E+02  0.53999537519E+02  0.00000000000E+00 0. -1.
          3    1    5    5  503    0  0.71038578300E+02  0.42093337457E+02 -0.13169798393E+03  0.15544351912E+03  0.00000000000E+00 0. -1.
         -4    1    5    5    0  503  0.70139846272E+03  0.22201979237E+03 -0.90632290908E+03  0.11673362015E+04  0.00000000000E+00 0.  1.
         -1    1    6    6    0  502  0.22393911332E+03 -0.35356237288E+01  0.12422572304E+03  0.25611180639E+03  0.00000000000E+00 0.  1.
<mgrwt>
<rscale>  0 0.24772791E+04</rscale>
<asrwt>0</asrwt>
<pdfrwt beam="1">  1        2 0.12451988E+00 0.24772791E+04</pdfrwt>
<pdfrwt beam="2">  1       -2 0.29162480E+00 0.24772791E+04</pdfrwt>
<totfact> 0.10838759E+00</totfact>
</mgrwt>
</event>
<event>
12    1  0.1397649E-007  0.4227373E+04  0.7818608E-02  0.7960186E-01
         -2   -1    0    0    0  501 -0.00000000000E+00  0.00000000000E+00  0.23542211503E+04  0.23542211503E+04  0.00000000000E+00 0.  1.
          2   -1    0    0  501    0  0.00000000000E+00 -0.00000000000E+00 -0.18977272571E+04  0.18977272571E+04  0.00000000000E+00 0. -1.
         23    2    1    2    0    0  0.18484577074E+04  0.81620618841E+03  0.39533326124E+03  0.20608764485E+04  0.89078114088E+02 0.  0.
        254    2    1    2    0    0 -0.18484577074E+04 -0.81620618841E+03  0.61160631943E+02  0.21910719590E+04  0.84502501047E+03 0.  0.
        -24    2    4    4    0    0 -0.10145406051E+04 -0.55221271401E+03  0.43403747300E+03  0.12366389504E+04  0.81583360350E+02 0.  0.
         24    2    4    4    0    0 -0.83391710235E+03 -0.26399347440E+03 -0.37287684106E+03  0.95443300861E+03  0.82431433445E+02 0.  0.
         11    1    3    3    0    0  0.18435388336E+04  0.81266521565E+03  0.39893246076E+03  0.20538274738E+04  0.00000000000E+00 0.  1.
        -11    1    3    3    0    0  0.49188738343E+01  0.35409727549E+01 -0.35991995183E+01  0.70489747496E+01  0.00000000000E+00 0. -1.
          4    1    6    6  502    0 -0.83565371062E+02 -0.51237809116E+02 -0.30469283470E+02  0.10264921607E+03  0.00000000000E+00 0. -1.
          1    1    5    5  503    0 -0.14665593254E+03 -0.96473538472E+02  0.93616752092E+02  0.19894522474E+03  0.00000000000E+00 0. -1.
         -2    1    5    5    0  503 -0.86788467254E+03 -0.45573917553E+03  0.34042072091E+03  0.10376937256E+04  0.00000000000E+00 0.  1.
         -3    1    6    6    0  502 -0.75035173128E+03 -0.21275566529E+03 -0.34240755759E+03  0.85178379255E+03  0.00000000000E+00 0.  1.
<mgrwt>
<rscale>  0 0.42273725E+04</rscale>
<asrwt>0</asrwt>
<pdfrwt beam="1">  1        2 0.29195804E+00 0.42273725E+04</pdfrwt>
<pdfrwt beam="2">  1       -2 0.36218787E+00 0.42273725E+04</pdfrwt>
<totfact> 0.76805377E-02</totfact>
</mgrwt>
</event>
<event>
12    1  0.1397649E-007  0.3555950E+04  0.7818608E-02  0.8100657E-01
          1   -1    0    0  501    0  0.00000000000E+00  0.00000000000E+00  0.35706596326E+04  0.35706596326E+04  0.00000000000E+00 0.  1.
         -1   -1    0    0    0  501 -0.00000000000E+00 -0.00000000000E+00 -0.88532528236E+03  0.88532528236E+03  0.00000000000E+00 0. -1.
         23    2    1    2    0    0 -0.16038551906E+03 -0.14285760618E+04  0.23102433898E+04  0.27224970681E+04  0.90623875583E+02 0.  0.
        254    2    1    2    0    0  0.16038551906E+03  0.14285760618E+04  0.37509096049E+03  0.17334878469E+04  0.89315945240E+03 0.  0.
        -24    2    4    4    0    0 -0.30022474750E+01  0.12166220042E+04 -0.55306020735E+02  0.12206109843E+04  0.81573919662E+02 0.  0.
         24    2    4    4    0    0  0.16338776653E+03  0.21195405761E+03  0.43039698123E+03  0.51287686259E+03  0.78619526417E+02 0.  0.
         11    1    3    3    0    0 -0.13582193693E+03 -0.12342836678E+04  0.19335621038E+04  0.22979482545E+04  0.00000000000E+00 0.  1.
        -11    1    3    3    0    0 -0.24563582122E+02 -0.19429239405E+03  0.37668128599E+03  0.42454881365E+03  0.00000000000E+00 0. -1.
          4    1    6    6  502    0  0.50496061219E+02  0.71219207420E+02  0.21407330224E+03  0.23119127673E+03  0.00000000000E+00 0. -1.
          3    1    5    5  503    0  0.30740517213E+02  0.91936537948E+03 -0.29832341235E+02  0.92036278117E+03  0.00000000000E+00 0. -1.
         -4    1    5    5    0  503 -0.33742764688E+02  0.29725662473E+03 -0.25473679501E+02  0.30024820310E+03  0.00000000000E+00 0.  1.
         -3    1    6    6    0  502  0.11289170531E+03  0.14073485019E+03  0.21632367899E+03  0.28168558585E+03  0.00000000000E+00 0.  1.
<mgrwt>
<rscale>  0 0.35559501E+04</rscale>
<asrwt>0</asrwt>
<pdfrwt beam="1">  1        1 0.54933224E+00 0.35559501E+04</pdfrwt>
<pdfrwt beam="2">  1       -1 0.13620389E+00 0.35559501E+04</pdfrwt>
<totfact> 0.80153761E-02</totfact>
</mgrwt>
</event>
<event>
12    1  0.1397649E-007  0.1907314E+04  0.7818608E-02  0.8651224E-01
         -1   -1    0    0    0  501 -0.00000000000E+00  0.00000000000E+00  0.28924297184E+04  0.28924297184E+04  0.00000000000E+00 0.  1.
          1   -1    0    0  501    0  0.00000000000E+00 -0.00000000000E+00 -0.31442822040E+03  0.31442822040E+03  0.00000000000E+00 0. -1.
         23    2    1    2    0    0  0.10858301238E+03  0.22198203340E+03 -0.16419438259E+03  0.31022690437E+03  0.90634668818E+02 0.  0.
        254    2    1    2    0    0 -0.10858301238E+03 -0.22198203340E+03  0.27421958806E+04  0.28966310344E+04  0.89987043977E+03 0.  0.
        -24    2    4    4    0    0 -0.46311724238E+03 -0.71917326332E+02  0.95583612427E+03  0.10675096694E+04  0.79400981576E+02 0.  0.
         24    2    4    4    0    0  0.35453423001E+03 -0.15006470707E+03  0.17863597563E+04  0.18291213650E+04  0.79936551718E+02 0.  0.
         13    1    3    3    0    0  0.55900302240E+01 -0.76430310163E+01  0.46622748684E+00  0.94805975071E+01  0.00000000000E+00 0.  1.
        -13    1    3    3    0    0  0.10299298215E+03  0.22962506442E+03 -0.16466061008E+03  0.30074630686E+03  0.00000000000E+00 0. -1.
          2    1    6    6  502    0  0.26883450340E+03 -0.14753091606E+03  0.13456120272E+04  0.13801119843E+04  0.00000000000E+00 0. -1.
          3    1    5    5  503    0 -0.25889740102E+03 -0.76399033621E+02  0.50714542231E+03  0.57450949162E+03  0.00000000000E+00 0. -1.
         -4    1    5    5    0  503 -0.20421984137E+03  0.44817072887E+01  0.44869070196E+03  0.49300017783E+03  0.00000000000E+00 0.  1.
         -1    1    6    6    0  502  0.85699726606E+02 -0.25337910055E+01  0.44074772913E+03  0.44900938072E+03  0.00000000000E+00 0.  1.
<mgrwt>
<rscale>  0 0.19073138E+04</rscale>
<asrwt>0</asrwt>
<pdfrwt beam="1">  1        1 0.48373574E-01 0.19073138E+04</pdfrwt>
<pdfrwt beam="2">  1       -1 0.44498917E+00 0.19073138E+04</pdfrwt>
<totfact> 0.27051682E-01</totfact>
</mgrwt>
</event>
<event>
12    1  0.1397649E-007  0.2886396E+04  0.7818608E-02  0.8276937E-01
         -2   -1    0    0    0  501 -0.00000000000E+00  0.00000000000E+00  0.13912891135E+04  0.13912891135E+04  0.00000000000E+00 0.  1.
          2   -1    0    0  501    0  0.00000000000E+00 -0.00000000000E+00 -0.14970431535E+04  0.14970431535E+04  0.00000000000E+00 0. -1.
         23    2    1    2    0    0 -0.48915566004E+03 -0.97099186922E+03 -0.75619815622E+03  0.13274142234E+04  0.89968879583E+02 0.  0.
        254    2    1    2    0    0  0.48915566004E+03  0.97099186922E+03  0.65044411622E+03  0.15609180435E+04  0.91175058008E+03 0.  0.
        -24    2    4    4    0    0  0.75186560043E+03  0.75287876691E+03  0.45982507938E+03  0.11617981653E+04  0.78788034680E+02 0.  0.
         24    2    4    4    0    0 -0.26270994040E+03  0.21811310231E+03  0.19061903684E+03  0.39911987821E+03  0.79819933552E+02 0.  0.
         11    1    3    3    0    0 -0.17708756411E+03 -0.37372718797E+03 -0.23642607900E+03  0.47637097647E+03  0.00000000000E+00 0.  1.
        -11    1    3    3    0    0 -0.31206809592E+03 -0.59726468125E+03 -0.51977207722E+03  0.85104324698E+03  0.00000000000E+00 0. -1.
          2    1    6    6  502    0 -0.28650031048E+02  0.46448968534E+02  0.55009683460E+01  0.54850629984E+02  0.00000000000E+00 0. -1.
          1    1    5    5  503    0  0.69468415096E+02  0.40476389575E+02  0.32456401342E+02  0.86704191346E+02  0.00000000000E+00 0. -1.
         -4    1    5    5    0  503  0.68239718534E+03  0.71240237734E+03  0.42736867804E+03  0.10750939739E+04  0.00000000000E+00 0.  1.
         -1    1    6    6    0  502 -0.23405990935E+03  0.17166413378E+03  0.18511806849E+03  0.34426924822E+03  0.00000000000E+00 0.  1.
<mgrwt>
<rscale>  0 0.28863956E+04</rscale>
<asrwt>0</asrwt>
<pdfrwt beam="1">  1        2 0.23031433E+00 0.28863956E+04</pdfrwt>
<pdfrwt beam="2">  1       -2 0.21404448E+00 0.28863956E+04</pdfrwt>
<totfact> 0.11876255E+00</totfact>
</mgrwt>
</event>
<event>
12    1  0.1397649E-007  0.1271958E+04  0.7818608E-02  0.9052103E-01
          2   -1    0    0  501    0  0.00000000000E+00  0.00000000000E+00  0.14236016810E+04  0.14236016810E+04  0.00000000000E+00 0.  1.
         -2   -1    0    0    0  501 -0.00000000000E+00 -0.00000000000E+00 -0.28411699581E+03  0.28411699581E+03  0.00000000000E+00 0. -1.
         23    2    1    2    0    0  0.20215874945E+03  0.37284023170E+01 -0.19956822600E+02  0.22203144859E+03  0.89541210806E+02 0.  0.
        254    2    1    2    0    0 -0.20215874945E+03 -0.37284023170E+01  0.11594415078E+04  0.14856872282E+04  0.90668620212E+03 0.  0.
        -24    2    4    4    0    0  0.70090822155E+02  0.33473478266E+03  0.14527778126E+03  0.37948734150E+03  0.77103246127E+02 0.  0.
         24    2    4    4    0    0 -0.27224957161E+03 -0.33846318498E+03  0.10141637266E+04  0.11061998867E+04  0.80454759353E+02 0.  0.
         11    1    3    3    0    0  0.47015928263E+02  0.24462974292E+02  0.25817560863E+02  0.58953210859E+02  0.00000000000E+00 0.  1.
        -11    1    3    3    0    0  0.15514282119E+03 -0.20734571975E+02 -0.45774383463E+02  0.16307823773E+03  0.00000000000E+00 0. -1.
          4    1    6    6  502    0 -0.99247117054E+02 -0.10499004976E+03  0.43246310049E+03  0.45595749152E+03  0.00000000000E+00 0. -1.
          1    1    5    5  503    0  0.60444473533E+01 -0.29420545197E+01  0.12752407875E+01  0.68423144966E+01  0.00000000000E+00 0. -1.
         -2    1    5    5    0  503  0.64046374802E+02  0.33767683718E+03  0.14400254047E+03  0.37264502701E+03  0.00000000000E+00 0.  1.
         -3    1    6    6    0  502 -0.17300245455E+03 -0.23347313522E+03  0.58170062606E+03  0.65024239520E+03  0.00000000000E+00 0.  1.
<mgrwt>
<rscale>  0 0.12719582E+04</rscale>
<asrwt>0</asrwt>
<pdfrwt beam="1">  1        2 0.21901564E+00 0.12719582E+04</pdfrwt>
<pdfrwt beam="2">  1       -2 0.43710308E-01 0.12719582E+04</pdfrwt>
<totfact> 0.68343813E+01</totfact>
</mgrwt>
</event>
<event>
12    1  0.1397649E-007  0.1643246E+04  0.7818608E-02  0.8794412E-01
         -2   -1    0    0    0  501 -0.00000000000E+00  0.00000000000E+00  0.89052469439E+03  0.89052469439E+03  0.00000000000E+00 0. -1.
          2   -1    0    0  501    0  0.00000000000E+00 -0.00000000000E+00 -0.75805257378E+03  0.75805257378E+03  0.00000000000E+00 0.  1.
         23    2    1    2    0    0  0.32438323027E+03 -0.46776316467E+03 -0.35900166910E+02  0.57749361089E+03  0.90460987902E+02 0.  0.
        254    2    1    2    0    0 -0.32438323027E+03  0.46776316467E+03  0.16837228752E+03  0.10710836573E+04  0.89154030497E+03 0.  0.
        -24    2    4    4    0    0 -0.17930005117E+02  0.34140854760E+03 -0.32076340627E+03  0.47520111670E+03  0.77753823376E+02 0.  0.
         24    2    4    4    0    0 -0.30645322515E+03  0.12635461707E+03  0.48913569379E+03  0.59588254058E+03  0.77092196550E+02 0.  0.
         13    1    3    3    0    0  0.94817088227E+02 -0.10197591780E+03  0.24653826398E+02  0.14141138281E+03  0.00000000000E+00 0.  1.
        -13    1    3    3    0    0  0.22956614204E+03 -0.36578724687E+03 -0.60553993308E+02  0.43608222808E+03  0.00000000000E+00 0. -1.
          4    1    6    6  502    0 -0.15523965402E+03  0.10061500595E+03  0.23548623145E+03  0.29946033928E+03  0.00000000000E+00 0. -1.
          3    1    5    5  503    0  0.16529425180E+02  0.11895706240E+03 -0.15273980042E+03  0.19430247354E+03  0.00000000000E+00 0. -1.
         -4    1    5    5    0  503 -0.34459430297E+02  0.22245148520E+03 -0.16802360585E+03  0.28089864316E+03  0.00000000000E+00 0.  1.
         -3    1    6    6    0  502 -0.15121357113E+03  0.25739611120E+02  0.25364946235E+03  0.29642220130E+03  0.00000000000E+00 0.  1.
<mgrwt>
<rscale>  0 0.16432462E+04</rscale>
<asrwt>0</asrwt>
<pdfrwt beam="1">  1        2 0.11662347E+00 0.16432462E+04</pdfrwt>
<pdfrwt beam="2">  1       -2 0.13700380E+00 0.16432462E+04</pdfrwt>
<totfact> 0.13422838E+01</totfact>
</mgrwt>
</event>
<event>
12    1  0.1397649E-007  0.1483156E+04  0.7818608E-02  0.8895732E-01
         -1   -1    0    0    0  501 -0.00000000000E+00  0.00000000000E+00  0.92431518914E+03  0.92431518914E+03  0.00000000000E+00 0.  1.
          1   -1    0    0  501    0  0.00000000000E+00 -0.00000000000E+00 -0.59496832554E+03  0.59496832554E+03  0.00000000000E+00 0. -1.
         23    2    1    2    0    0  0.21270149331E+03  0.27971638765E+03 -0.20666616016E+03  0.41798876037E+03  0.92306658830E+02 0.  0.
        254    2    1    2    0    0 -0.21270149331E+03 -0.27971638765E+03  0.53601302376E+03  0.11012947543E+04  0.89557634597E+03 0.  0.
        -24    2    4    4    0    0  0.18708533040E+03  0.22556151319E+03  0.10583641868E+03  0.32220503006E+03  0.82072021990E+02 0.  0.
         24    2    4    4    0    0 -0.39978682371E+03 -0.50527790085E+03  0.43017660508E+03  0.77908972426E+03  0.82423451690E+02 0.  0.
         13    1    3    3    0    0  0.32327011576E+01  0.90085029411E+01  0.92347860990E+01  0.13299802867E+02  0.00000000000E+00 0.  1.
        -13    1    3    3    0    0  0.20946879215E+03  0.27070788471E+03 -0.21590094626E+03  0.40468895750E+03  0.00000000000E+00 0. -1.
          4    1    6    6  502    0 -0.36081896951E+03 -0.43755793886E+03  0.40536283613E+03  0.69711283701E+03  0.00000000000E+00 0. -1.
          3    1    5    5  503    0  0.14323118626E+03  0.19949904616E+03  0.58167716270E+02  0.25238566788E+03  0.00000000000E+00 0. -1.
         -4    1    5    5    0  503  0.43854144135E+02  0.26062467036E+02  0.47668702409E+02  0.69819362179E+02  0.00000000000E+00 0.  1.
         -3    1    6    6    0  502 -0.38967854201E+02 -0.67719961983E+02  0.24813768954E+02  0.81976887241E+02  0.00000000000E+00 0.  1.
<mgrwt>
<rscale>  0 0.14831564E+04</rscale>
<asrwt>0</asrwt>
<pdfrwt beam="1">  1        1 0.91533589E-01 0.14831564E+04</pdfrwt>
<pdfrwt beam="2">  1       -1 0.14220234E+00 0.14831564E+04</pdfrwt>
<totfact> 0.13512380E+01</totfact>
</mgrwt>
</event>
<event>
12    1  0.1397649E-007  0.2509161E+04  0.7818608E-02  0.8399729E-01
          2   -1    0    0  501    0  0.00000000000E+00  0.00000000000E+00  0.12575194248E+04  0.12575194248E+04  0.00000000000E+00 0. -1.
         -2   -1    0    0    0  501 -0.00000000000E+00 -0.00000000000E+00 -0.12516488615E+04  0.12516488615E+04  0.00000000000E+00 0.  1.
         23    2    1    2    0    0  0.88988797187E+03  0.21240615177E+03 -0.58899457996E+03  0.10919820641E+04  0.92158761299E+02 0.  0.
        254    2    1    2    0    0 -0.88988797187E+03 -0.21240615177E+03  0.59486514331E+03  0.14171862222E+04  0.90417657233E+03 0.  0.
        -24    2    4    4    0    0 -0.74872701206E+03 -0.34176467956E+03  0.42740858480E+02  0.82743282404E+03  0.73641445781E+02 0.  0.
         24    2    4    4    0    0 -0.14116095981E+03  0.12935852779E+03  0.55212428483E+03  0.58975339818E+03  0.79421656235E+02 0.  0.
         11    1    3    3    0    0  0.21340629928E+03  0.19012498498E+02 -0.11011611533E+03  0.24089267844E+03  0.00000000000E+00 0. -1.
        -11    1    3    3    0    0  0.67648167259E+03  0.19339365328E+03 -0.47887846463E+03  0.85108938565E+03  0.00000000000E+00 0.  1.
          2    1    6    6  502    0 -0.36435509523E+02 -0.42172671312E+01  0.12033933933E+03  0.12580496130E+03  0.00000000000E+00 0. -1.
          1    1    5    5  503    0 -0.14315411570E+03 -0.78428892866E+02  0.35476540801E+02  0.16704124349E+03  0.00000000000E+00 0. -1.
         -2    1    5    5    0  503 -0.60557289636E+03 -0.26333578670E+03  0.72643176793E+01  0.66039158056E+03  0.00000000000E+00 0.  1.
         -1    1    6    6    0  502 -0.10472545029E+03  0.13357579492E+03  0.43178494550E+03  0.46394843689E+03  0.00000000000E+00 0.  1.
<mgrwt>
<rscale>  0 0.25091614E+04</rscale>
<asrwt>0</asrwt>
<pdfrwt beam="1">  1        2 0.19346453E+00 0.25091614E+04</pdfrwt>
<pdfrwt beam="2">  1       -2 0.19256136E+00 0.25091614E+04</pdfrwt>
<totfact> 0.23248544E+00</totfact>
</mgrwt>
</event>
<event>
12    1  0.1454598E-007  0.2556059E+04  0.7818608E-02  0.8383282E-01
          1   -1    0    0  501    0  0.00000000000E+00  0.00000000000E+00  0.14192039951E+04  0.14192039951E+04  0.00000000000E+00 0. -1.
         -1   -1    0    0    0  501 -0.00000000000E+00 -0.00000000000E+00 -0.11508985753E+04  0.11508985753E+04  0.00000000000E+00 0.  1.
         23    2    1    2    0    0  0.62590786255E+03  0.96592616282E+02  0.10442036948E+04  0.12249308756E+04  0.94886815195E+02 0.  0.
        254    2    1    2    0    0 -0.62590786255E+03 -0.96592616282E+02 -0.77589827509E+03  0.13451716949E+04  0.89798550625E+03 0.  0.
        -24    2    4    4    0    0 -0.81921173361E+03 -0.16781908062E+03 -0.45445939714E+03  0.95510686399E+03  0.80154037319E+02 0.  0.
         24    2    4    4    0    0  0.19330387106E+03  0.71226464336E+02 -0.32143887795E+03  0.39006483087E+03  0.79925116422E+02 0.  0.
         11    1    3    3    0    0  0.43204014772E+02  0.52645256817E+01  0.34338580845E+02  0.55438617024E+02  0.00000000000E+00 0.  1.
        -11    1    3    3    0    0  0.58270384778E+03  0.91328090601E+02  0.10098651140E+04  0.11694922585E+04  0.00000000000E+00 0. -1.
          4    1    6    6  502    0  0.19154816254E+03  0.51860850023E+02 -0.27007057552E+03  0.33513931745E+03  0.00000000000E+00 0. -1.
          3    1    5    5  503    0 -0.69445309948E+03 -0.15990614935E+03 -0.35981996525E+03  0.79831415581E+03  0.00000000000E+00 0. -1.
         -4    1    5    5    0  503 -0.12475863413E+03 -0.79129312647E+01 -0.94639431882E+02  0.15679270818E+03  0.00000000000E+00 0.  1.
         -3    1    6    6    0  502  0.17557085183E+01  0.19365614312E+02 -0.51368302427E+02  0.54925513419E+02  0.00000000000E+00 0.  1.
<mgrwt>
<rscale>  0 0.25560594E+04</rscale>
<asrwt>0</asrwt>
<pdfrwt beam="1">  1        1 0.21833907E+00 0.25560594E+04</pdfrwt>
<pdfrwt beam="2">  1       -1 0.17706132E+00 0.25560594E+04</pdfrwt>
<totfact> 0.14390195E+00</totfact>
</mgrwt>
</event>
<event>
12    1  0.1397649E-007  0.1640710E+04  0.7818608E-02  0.8795922E-01
          2   -1    0    0  501    0  0.00000000000E+00  0.00000000000E+00  0.73407496172E+03  0.73407496172E+03  0.00000000000E+00 0. -1.
         -2   -1    0    0    0  501 -0.00000000000E+00 -0.00000000000E+00 -0.91677573986E+03  0.91677573986E+03  0.00000000000E+00 0.  1.
         23    2    1    2    0    0 -0.17153721700E+03 -0.53284261008E+03 -0.14810352295E+03  0.58627784803E+03  0.91873813720E+02 0.  0.
        254    2    1    2    0    0  0.17153721700E+03  0.53284261008E+03 -0.34597255189E+02  0.10645728535E+04  0.90486028011E+03 0.  0.
        -24    2    4    4    0    0  0.44989022230E+03  0.33444249442E+03  0.24423230608E+03  0.61664796927E+03  0.79701345503E+02 0.  0.
         24    2    4    4    0    0 -0.27835300530E+03  0.19840011566E+03 -0.27882956127E+03  0.44792488428E+03  0.77767449899E+02 0.  0.
         13    1    3    3    0    0 -0.68803818090E+02 -0.33523173140E+03 -0.63679861037E+02  0.34809395832E+03  0.00000000000E+00 0. -1.
        -13    1    3    3    0    0 -0.10273339891E+03 -0.19761087869E+03 -0.84423661909E+02  0.23818388971E+03  0.00000000000E+00 0.  1.
          4    1    6    6  502    0 -0.13883306243E+03  0.99971958694E+02 -0.89872997874E+02  0.19325156532E+03  0.00000000000E+00 0. -1.
          1    1    5    5  503    0  0.16364178577E+03  0.78707623710E+02  0.93734562628E+02  0.20435188355E+03  0.00000000000E+00 0. -1.
         -2    1    5    5    0  503  0.28624843653E+03  0.25573487071E+03  0.15049774345E+03  0.41229608572E+03  0.00000000000E+00 0.  1.
         -3    1    6    6    0  502 -0.13951994287E+03  0.98428156970E+02 -0.18895656340E+03  0.25467331896E+03  0.00000000000E+00 0.  1.
<mgrwt>
<rscale>  0 0.16407097E+04</rscale>
<asrwt>0</asrwt>
<pdfrwt beam="1">  1        2 0.11293461E+00 0.16407097E+04</pdfrwt>
<pdfrwt beam="2">  1       -2 0.14104242E+00 0.16407097E+04</pdfrwt>
<totfact> 0.12979308E+01</totfact>
</mgrwt>
</event>
<event>
12    1  0.1397649E-007  0.1498145E+04  0.7818608E-02  0.8885688E-01
          1   -1    0    0  501    0  0.00000000000E+00  0.00000000000E+00  0.98912680250E+03  0.98912680250E+03  0.00000000000E+00 0. -1.
         -1   -1    0    0    0  501 -0.00000000000E+00 -0.00000000000E+00 -0.56727739737E+03  0.56727739737E+03  0.00000000000E+00 0.  1.
         23    2    1    2    0    0  0.10774564094E+03 -0.19625476473E+03 -0.30968603452E+03  0.39295081603E+03  0.91541509830E+02 0.  0.
        254    2    1    2    0    0 -0.10774564094E+03  0.19625476473E+03  0.73153543965E+03  0.11634533838E+04  0.87655839571E+03 0.  0.
        -24    2    4    4    0    0 -0.48827969217E+03  0.11090637756E+03  0.42843323353E+03  0.66338510695E+03  0.76206838028E+02 0.  0.
         24    2    4    4    0    0  0.38053405123E+03  0.85348387168E+02  0.30310220612E+03  0.50006827689E+03  0.78146163444E+02 0.  0.
         13    1    3    3    0    0  0.66655177671E+02 -0.83479247804E+02 -0.21498088479E+03  0.24005932256E+03  0.00000000000E+00 0. -1.
        -13    1    3    3    0    0  0.41090463265E+02 -0.11277551693E+03 -0.94705149733E+02  0.15289149347E+03  0.00000000000E+00 0.  1.
          2    1    6    6  502    0 -0.27417700365E+00  0.61000016960E+01  0.14480885505E+02  0.15715636759E+02  0.00000000000E+00 0. -1.
          1    1    5    5  503    0 -0.19543525472E+02 -0.81000604149E+01  0.30424499516E+02  0.37056855471E+02  0.00000000000E+00 0. -1.
         -2    1    5    5    0  503 -0.46873616670E+03  0.11900643798E+03  0.39800873401E+03  0.62632825148E+03  0.00000000000E+00 0.  1.
         -1    1    6    6    0  502  0.38080822823E+03  0.79248385472E+02  0.28862132062E+03  0.48435264013E+03  0.00000000000E+00 0.  1.
<mgrwt>
<rscale>  0 0.14981446E+04</rscale>
<asrwt>0</asrwt>
<pdfrwt beam="1">  1        1 0.15217335E+00 0.14981446E+04</pdfrwt>
<pdfrwt beam="2">  1       -1 0.87273446E-01 0.14981446E+04</pdfrwt>
<totfact> 0.19301725E+01</totfact>
</mgrwt>
</event>
<event>
12    1  0.1397649E-007  0.1469429E+04  0.7818608E-02  0.8905041E-01
          2   -1    0    0  501    0  0.00000000000E+00  0.00000000000E+00  0.16609345174E+04  0.16609345174E+04  0.00000000000E+00 0. -1.
         -2   -1    0    0    0  501 -0.00000000000E+00 -0.00000000000E+00 -0.32500091569E+03  0.32500091569E+03  0.00000000000E+00 0.  1.
         23    2    1    2    0    0  0.10269322118E+01 -0.18162156689E+03  0.99214884987E+03  0.10129197567E+04  0.93057214263E+02 0.  0.
        254    2    1    2    0    0 -0.10269322118E+01  0.18162156689E+03  0.34378475179E+03  0.97301567631E+03  0.89195521336E+03 0.  0.
        -24    2    4    4    0    0 -0.36018374857E+03 -0.80501046247E+02  0.36041160193E+03  0.52086232538E+03  0.72029771745E+02 0.  0.
         24    2    4    4    0    0  0.35915681636E+03  0.26212261314E+03 -0.16626850132E+02  0.45215335093E+03  0.80400979812E+02 0.  0.
         13    1    3    3    0    0 -0.13047109840E+02  0.45152353773E+01  0.32941013037E+02  0.35717289450E+02  0.00000000000E+00 0.  1.
        -13    1    3    3    0    0  0.14074042052E+02 -0.18613680227E+03  0.95920783683E+03  0.97720246728E+03  0.00000000000E+00 0. -1.
          4    1    6    6  502    0  0.64626428081E+02  0.25399058838E+02  0.20662225068E+02  0.72447325286E+02  0.00000000000E+00 0. -1.
          1    1    5    5  503    0 -0.25587351633E+03 -0.43427748388E+02  0.20859284694E+03  0.33296876953E+03  0.00000000000E+00 0. -1.
         -2    1    5    5    0  503 -0.10431023225E+03 -0.37073297859E+02  0.15181875499E+03  0.18789355586E+03  0.00000000000E+00 0.  1.
         -3    1    6    6    0  502  0.29453038828E+03  0.23672355430E+03 -0.37289075200E+02  0.37970602564E+03  0.00000000000E+00 0.  1.
<mgrwt>
<rscale>  0 0.14694288E+04</rscale>
<asrwt>0</asrwt>
<pdfrwt beam="1">  1        2 0.25552838E+00 0.14694288E+04</pdfrwt>
<pdfrwt beam="2">  1       -2 0.50000142E-01 0.14694288E+04</pdfrwt>
<totfact> 0.37780089E+01</totfact>
</mgrwt>
</event>
<event>
12    1  0.1397649E-007  0.1670547E+04  0.7818608E-02  0.8778343E-01
         -2   -1    0    0    0  501 -0.00000000000E+00  0.00000000000E+00  0.10968328052E+04  0.10968328052E+04  0.00000000000E+00 0.  1.
          2   -1    0    0  501    0  0.00000000000E+00 -0.00000000000E+00 -0.63608769480E+03  0.63608769480E+03  0.00000000000E+00 0. -1.
         23    2    1    2    0    0  0.11833518389E+03 -0.52913242571E+03  0.39744376048E+03  0.68001451095E+03  0.10234184223E+03 0.  0.
        254    2    1    2    0    0 -0.11833518389E+03  0.52913242571E+03  0.63301349908E+02  0.10529059891E+04  0.90034416819E+03 0.  0.
        -24    2    4    4    0    0  0.19508409971E+02  0.98452044031E+02 -0.38856044692E+03  0.40918056172E+03  0.79850661552E+02 0.  0.
         24    2    4    4    0    0 -0.13784359386E+03  0.43068038168E+03  0.45186179682E+03  0.64372542733E+03  0.75610150343E+02 0.  0.
         13    1    3    3    0    0  0.35723311135E+02 -0.53509016700E+02  0.20462059204E+02  0.67513448242E+02  0.00000000000E+00 0. -1.
        -13    1    3    3    0    0  0.82611872752E+02 -0.47562340901E+03  0.37698170128E+03  0.61250106270E+03  0.00000000000E+00 0.  1.
          4    1    6    6  502    0 -0.24578802779E+02  0.57498692676E+02  0.10285397045E+03  0.12037091195E+03  0.00000000000E+00 0. -1.
          1    1    5    5  503    0  0.28177485678E+02  0.45260066742E+02 -0.81250800504E+02  0.97180949383E+02  0.00000000000E+00 0. -1.
         -2    1    5    5    0  503 -0.86690757071E+01  0.53191977290E+02 -0.30730964641E+03  0.31199961234E+03  0.00000000000E+00 0.  1.
         -3    1    6    6    0  502 -0.11326479108E+03  0.37318168900E+03  0.34900782637E+03  0.52335451538E+03  0.00000000000E+00 0.  1.
<mgrwt>
<rscale>  0 0.16705470E+04</rscale>
<asrwt>0</asrwt>
<pdfrwt beam="1">  1        2 0.97859645E-01 0.16705470E+04</pdfrwt>
<pdfrwt beam="2">  1       -2 0.16874351E+00 0.16705470E+04</pdfrwt>
<totfact> 0.95752716E+00</totfact>
</mgrwt>
</event>
<event>
12    1  0.1397649E-007  0.1409655E+04  0.7818608E-02  0.8946859E-01
          2   -1    0    0  501    0  0.00000000000E+00  0.00000000000E+00  0.49451372576E+03  0.49451372576E+03  0.00000000000E+00 0. -1.
         -2   -1    0    0    0  501 -0.00000000000E+00 -0.00000000000E+00 -0.10045863841E+04  0.10045863841E+04  0.00000000000E+00 0.  1.
         23    2    1    2    0    0  0.38562303084E+02  0.23287508198E+03 -0.51489143136E+03  0.57366813568E+03  0.90907033708E+02 0.  0.
        254    2    1    2    0    0 -0.38562303084E+02 -0.23287508198E+03  0.48187730144E+01  0.92543197419E+03  0.89480906525E+03 0.  0.
        -24    2    4    4    0    0 -0.95079304312E+02 -0.48890523288E+03 -0.24067376891E+03  0.55859850512E+03  0.77717604414E+02 0.  0.
         24    2    4    4    0    0  0.56517001228E+02  0.25603015090E+03  0.24549254192E+03  0.36683346907E+03  0.74529164041E+02 0.  0.
         11    1    3    3    0    0  0.88866768131E+01 -0.48299103350E+01 -0.46348856056E+02  0.47439619690E+02  0.00000000000E+00 0. -1.
        -11    1    3    3    0    0  0.29675626271E+02  0.23770499232E+03 -0.46854257530E+03  0.52622851599E+03  0.00000000000E+00 0.  1.
          2    1    6    6  502    0  0.31812703032E+02  0.11321772570E+03  0.15997715355E+03  0.19855223783E+03  0.00000000000E+00 0. -1.
          3    1    5    5  503    0 -0.80130455156E+02 -0.45693882911E+03 -0.24209280156E+03  0.52328090732E+03  0.00000000000E+00 0. -1.
         -4    1    5    5    0  503 -0.14948849155E+02 -0.31966403766E+02  0.14190326541E+01  0.35317597802E+02  0.00000000000E+00 0.  1.
         -1    1    6    6    0  502  0.24704298196E+02  0.14281242520E+03  0.85515388367E+02  0.16828123124E+03  0.00000000000E+00 0.  1.
<mgrwt>
<rscale>  0 0.14096549E+04</rscale>
<asrwt>0</asrwt>
<pdfrwt beam="1">  1        2 0.76079035E-01 0.14096549E+04</pdfrwt>
<pdfrwt beam="2">  1       -2 0.15455175E+00 0.14096549E+04</pdfrwt>
<totfact> 0.16768616E+01</totfact>
</mgrwt>
</event>
<event>
12    1  0.1397649E-007  0.1877630E+04  0.7818608E-02  0.8666072E-01
          2   -1    0    0  501    0  0.00000000000E+00  0.00000000000E+00  0.59042971848E+03  0.59042971848E+03  0.00000000000E+00 0. -1.
         -2   -1    0    0    0  501 -0.00000000000E+00 -0.00000000000E+00 -0.14927663395E+04  0.14927663395E+04  0.00000000000E+00 0.  1.
         23    2    1    2    0    0 -0.26855332203E+03  0.59704623376E+03 -0.13274208081E+02  0.65719106918E+03  0.56025037199E+02 0.  0.
        254    2    1    2    0    0  0.26855332203E+03 -0.59704623376E+03 -0.88906241291E+03  0.14260049888E+04  0.90248166847E+03 0.  0.
        -24    2    4    4    0    0  0.38270757184E+03 -0.21315066508E+03  0.22173431249E+01  0.44493212339E+03  0.77854905124E+02 0.  0.
         24    2    4    4    0    0 -0.11415424980E+03 -0.38389556868E+03 -0.89127975603E+03  0.98107286537E+03  0.87848524521E+02 0.  0.
         13    1    3    3    0    0 -0.16128714655E+02  0.80812706612E+02 -0.66480189531E+00  0.82409167863E+02  0.00000000000E+00 0.  1.
        -13    1    3    3    0    0 -0.25242460738E+03  0.51623352715E+03 -0.12609406186E+02  0.57478190132E+03  0.00000000000E+00 0. -1.
          2    1    6    6  502    0 -0.12896949732E+03 -0.34510396009E+03 -0.79464210773E+03  0.87589151947E+03  0.00000000000E+00 0. -1.
          1    1    5    5  503    0  0.37218471099E+03 -0.20463103960E+03  0.16762861726E+02  0.42506036630E+03  0.00000000000E+00 0. -1.
         -2    1    5    5    0  503  0.10522860843E+02 -0.85196254787E+01 -0.14545518601E+02  0.19871757093E+02  0.00000000000E+00 0.  1.
         -3    1    6    6    0  502  0.14815247518E+02 -0.38791608593E+02 -0.96637648301E+02  0.10518134590E+03  0.00000000000E+00 0.  1.
<mgrwt>
<rscale>  0 0.18776300E+04</rscale>
<asrwt>0</asrwt>
<pdfrwt beam="1">  1        2 0.90835341E-01 0.18776300E+04</pdfrwt>
<pdfrwt beam="2">  1       -2 0.22965636E+00 0.18776300E+04</pdfrwt>
<totfact> 0.40747102E+00</totfact>
</mgrwt>
</event>
<event>
12    1  0.1397649E-007  0.2442836E+04  0.7818608E-02  0.8423638E-01
         -1   -1    0    0    0  501 -0.00000000000E+00  0.00000000000E+00  0.25214071408E+04  0.25214071408E+04  0.00000000000E+00 0.  1.
          1   -1    0    0  501    0  0.00000000000E+00 -0.00000000000E+00 -0.59167827560E+03  0.59167827560E+03  0.00000000000E+00 0. -1.
         23    2    1    2    0    0  0.40419572169E+03 -0.12589586555E+03  0.20375610744E+04  0.20830748631E+04  0.91223918066E+02 0.  0.
        254    2    1    2    0    0 -0.40419572169E+03  0.12589586555E+03 -0.10783220920E+03  0.10300105532E+04  0.93277543067E+03 0.  0.
        -24    2    4    4    0    0 -0.43429718120E+03 -0.32366755939E+03  0.41551809291E+02  0.54874109046E+03  0.77559660270E+02 0.  0.
         24    2    4    4    0    0  0.30101459508E+02  0.44956342494E+03 -0.14938401849E+03  0.48126946278E+03  0.79317967192E+02 0.  0.
         11    1    3    3    0    0  0.39812643580E+02  0.13849515786E+02  0.16711818728E+03  0.17235238378E+03  0.00000000000E+00 0. -1.
        -11    1    3    3    0    0  0.36438307811E+03 -0.13974538134E+03  0.18704428871E+04  0.19107224793E+04  0.00000000000E+00 0.  1.
          2    1    6    6  502    0  0.39677667646E+02  0.43801120229E+03 -0.15330901337E+03  0.46575936300E+03  0.00000000000E+00 0. -1.
          1    1    5    5  503    0 -0.27745867767E+03 -0.21546962431E+03 -0.96907801480E+01  0.35143191095E+03  0.00000000000E+00 0. -1.
         -2    1    5    5    0  503 -0.15683850353E+03 -0.10819793508E+03  0.51242589439E+02  0.19730917951E+03  0.00000000000E+00 0.  1.
         -1    1    6    6    0  502 -0.95762081381E+01  0.11552222654E+02  0.39249948838E+01  0.15510099787E+02  0.00000000000E+00 0.  1.
<mgrwt>
<rscale>  0 0.24428359E+04</rscale>
<asrwt>0</asrwt>
<pdfrwt beam="1">  1        1 0.91027428E-01 0.24428359E+04</pdfrwt>
<pdfrwt beam="2">  1       -1 0.38790878E+00 0.24428359E+04</pdfrwt>
<totfact> 0.26991747E-01</totfact>
</mgrwt>
</event>
<event>
12    1  0.1397649E-007  0.1874887E+04  0.7818608E-02  0.8667458E-01
          2   -1    0    0  501    0  0.00000000000E+00  0.00000000000E+00  0.20611109866E+04  0.20611109866E+04  0.00000000000E+00 0.  1.
         -2   -1    0    0    0  501 -0.00000000000E+00 -0.00000000000E+00 -0.42637232597E+03  0.42637232597E+03  0.00000000000E+00 0. -1.
         23    2    1    2    0    0 -0.55708940289E+02  0.46270210728E+03  0.13574057190E+04  0.14380278125E+04  0.90426640766E+02 0.  0.
        254    2    1    2    0    0  0.55708940289E+02 -0.46270210728E+03  0.27733294168E+03  0.10494555001E+04  0.89846900900E+03 0.  0.
        -24    2    4    4    0    0 -0.30751999547E+03 -0.54587914868E+03  0.18143701553E+03  0.65666440821E+03  0.75737453317E+02 0.  0.
         24    2    4    4    0    0  0.36322893576E+03  0.83177041399E+02  0.95895926152E+02  0.39279109193E+03  0.78962859987E+02 0.  0.
         13    1    3    3    0    0 -0.58822484678E+02  0.15358937192E+03  0.51979203903E+03  0.54519129093E+03  0.00000000000E+00 0.  1.
        -13    1    3    3    0    0  0.31135443884E+01  0.30911273536E+03  0.83761367995E+03  0.89283652152E+03  0.00000000000E+00 0. -1.
          4    1    6    6  502    0  0.10542641028E+03 -0.57996266515E+01  0.47614151375E+02  0.11582517458E+03  0.00000000000E+00 0. -1.
          1    1    5    5  503    0 -0.89194859603E+02 -0.10211856440E+03  0.24351602073E+02  0.13775675917E+03  0.00000000000E+00 0. -1.
         -2    1    5    5    0  503 -0.21832513587E+03 -0.44376058428E+03  0.15708541345E+03  0.51890764904E+03  0.00000000000E+00 0.  1.
         -3    1    6    6    0  502  0.25780252548E+03  0.88976668050E+02  0.48281774777E+02  0.27696591736E+03  0.00000000000E+00 0.  1.
<mgrwt>
<rscale>  0 0.18748874E+04</rscale>
<asrwt>0</asrwt>
<pdfrwt beam="1">  1        2 0.31709399E+00 0.18748874E+04</pdfrwt>
<pdfrwt beam="2">  1       -2 0.65595744E-01 0.18748874E+04</pdfrwt>
<totfact> 0.12409360E+01</totfact>
</mgrwt>
</event>
<event>
12    1  0.1397649E-007  0.1366299E+04  0.7818608E-02  0.8978581E-01
         -1   -1    0    0    0  501 -0.00000000000E+00  0.00000000000E+00  0.13175728206E+03  0.13175728206E+03  0.00000000000E+00 0.  1.
          1   -1    0    0  501    0  0.00000000000E+00 -0.00000000000E+00 -0.35420689908E+04  0.35420689908E+04  0.00000000000E+00 0. -1.
         23    2    1    2    0    0 -0.33370084504E+03 -0.15976670414E+03 -0.11661800255E+04  0.12271597529E+04  0.95202697041E+02 0.  0.
        254    2    1    2    0    0  0.33370084504E+03  0.15976670414E+03 -0.22441316833E+04  0.24466665200E+04  0.90175850118E+03 0.  0.
        -24    2    4    4    0    0  0.22511271730E+03  0.42685016861E+03 -0.59314679438E+03  0.76880071481E+03  0.79715854612E+02 0.  0.
         24    2    4    4    0    0  0.10858812774E+03 -0.26708346447E+03 -0.16509848889E+04  0.16778658052E+04  0.79734549399E+02 0.  0.
         11    1    3    3    0    0 -0.15663917973E+03 -0.55254423589E+02 -0.66533524419E+03  0.68575496434E+03  0.00000000000E+00 0. -1.
        -11    1    3    3    0    0 -0.17706166531E+03 -0.10451228055E+03 -0.50084478126E+03  0.54140478852E+03  0.00000000000E+00 0.  1.
          2    1    6    6  502    0  0.99569656743E+02 -0.15534188397E+03 -0.11290196006E+04  0.11439975857E+04  0.00000000000E+00 0. -1.
          1    1    5    5  503    0  0.13399921960E+03  0.22386102509E+03 -0.37797812674E+03  0.45927879735E+03  0.00000000000E+00 0. -1.
         -4    1    5    5    0  503  0.91113497703E+02  0.20298914352E+03 -0.21516866765E+03  0.30952191746E+03  0.00000000000E+00 0.  1.
         -1    1    6    6    0  502  0.90184710000E+01 -0.11174158050E+03 -0.52196528826E+03  0.53386821949E+03  0.00000000000E+00 0.  1.
<mgrwt>
<rscale>  0 0.13662992E+04</rscale>
<asrwt>0</asrwt>
<pdfrwt beam="1">  1        1 0.54493364E+00 0.13662992E+04</pdfrwt>
<pdfrwt beam="2">  1       -1 0.20270353E-01 0.13662992E+04</pdfrwt>
<totfact> 0.45989659E+00</totfact>
</mgrwt>
</event>
<event>
12    1  0.1397649E-007  0.1539504E+04  0.7818608E-02  0.8858600E-01
          2   -1    0    0  501    0  0.00000000000E+00  0.00000000000E+00  0.23393614206E+04  0.23393614206E+04  0.00000000000E+00 0. -1.
         -2   -1    0    0    0  501 -0.00000000000E+00 -0.00000000000E+00 -0.25328186650E+03  0.25328186650E+03  0.00000000000E+00 0.  1.
         23    2    1    2    0    0 -0.49385733940E+02  0.14042415142E+03  0.14961870968E+04  0.15064108151E+04  0.92411158053E+02 0.  0.
        254    2    1    2    0    0  0.49385733940E+02 -0.14042415142E+03  0.58989245730E+03  0.10862324720E+04  0.89987220152E+03 0.  0.
        -24    2    4    4    0    0  0.44704364071E+03 -0.17437932726E+03  0.21090792650E+03  0.53017756523E+03  0.79686452661E+02 0.  0.
         24    2    4    4    0    0 -0.39765790677E+03  0.33955175836E+02  0.37898453080E+03  0.55605490678E+03  0.79265503127E+02 0.  0.
         13    1    3    3    0    0 -0.34664281670E+02  0.13906237315E+03  0.10227261796E+04  0.10327191266E+04  0.00000000000E+00 0.  1.
        -13    1    3    3    0    0 -0.14721452270E+02  0.13617782725E+01  0.47346091719E+03  0.47369168844E+03  0.00000000000E+00 0. -1.
          4    1    6    6  502    0 -0.38004999110E+03  0.30069060208E+02  0.33130396750E+03  0.50507867011E+03  0.00000000000E+00 0. -1.
          1    1    5    5  503    0  0.17850995481E+03 -0.57798364281E+02  0.12360918071E+03  0.22469019657E+03  0.00000000000E+00 0. -1.
         -2    1    5    5    0  503  0.26853368591E+03 -0.11658096298E+03  0.87298745788E+02  0.30548736866E+03  0.00000000000E+00 0.  1.
         -3    1    6    6    0  502 -0.17607915674E+02  0.38861156282E+01  0.47680563295E+02  0.50976236672E+02  0.00000000000E+00 0.  1.
<mgrwt>
<rscale>  0 0.15395036E+04</rscale>
<asrwt>0</asrwt>
<pdfrwt beam="1">  1        2 0.35990174E+00 0.15395036E+04</pdfrwt>
<pdfrwt beam="2">  1       -2 0.38966443E-01 0.15395036E+04</pdfrwt>
<totfact> 0.25861593E+01</totfact>
</mgrwt>
</event>
<event>
12    1  0.1397649E-007  0.1299670E+04  0.7818608E-02  0.9029827E-01
         -1   -1    0    0    0  501 -0.00000000000E+00  0.00000000000E+00  0.56687986804E+03  0.56687986804E+03  0.00000000000E+00 0.  1.
          1   -1    0    0  501    0  0.00000000000E+00 -0.00000000000E+00 -0.74492959931E+03  0.74492959931E+03  0.00000000000E+00 0. -1.
         23    2    1    2    0    0  0.25932500725E+03  0.11690024344E+03  0.12520658419E+03  0.32783318423E+03  0.10432057158E+03 0.  0.
        254    2    1    2    0    0 -0.25932500725E+03 -0.11690024344E+03 -0.30325631546E+03  0.98397628313E+03  0.89181265218E+03 0.  0.
        -24    2    4    4    0    0 -0.44363451748E+03  0.23423436434E+03 -0.57118802335E+02  0.51014034312E+03  0.72823688226E+02 0.  0.
         24    2    4    4    0    0  0.18430951023E+03 -0.35113460779E+03 -0.24613751312E+03  0.47383594000E+03  0.81678114116E+02 0.  0.
         13    1    3    3    0    0  0.13240980105E+02 -0.45626895472E+01 -0.14270597498E+02  0.19994790397E+02  0.00000000000E+00 0. -1.
        -13    1    3    3    0    0  0.24608402715E+03  0.12146293299E+03  0.13947718169E+03  0.30783839383E+03  0.00000000000E+00 0.  1.
          2    1    6    6  502    0  0.42486870517E+02 -0.48863710653E+02 -0.73508838961E+02  0.97960940127E+02  0.00000000000E+00 0. -1.
          1    1    5    5  503    0 -0.95225854687E+02  0.63661526311E+02 -0.41738433566E+02  0.12191328955E+03  0.00000000000E+00 0. -1.
         -2    1    5    5    0  503 -0.34840866279E+03  0.17057283803E+03 -0.15380368770E+02  0.38822705357E+03  0.00000000000E+00 0.  1.
         -1    1    6    6    0  502  0.14182263971E+03 -0.30227089713E+03 -0.17262867416E+03  0.37587499988E+03  0.00000000000E+00 0.  1.
<mgrwt>
<rscale>  0 0.12996701E+04</rscale>
<asrwt>0</asrwt>
<pdfrwt beam="1">  1        1 0.11460455E+00 0.12996701E+04</pdfrwt>
<pdfrwt beam="2">  1       -1 0.87212288E-01 0.12996701E+04</pdfrwt>
<totfact> 0.31499081E+01</totfact>
</mgrwt>
</event>
<event>
12    1  0.1397649E-007  0.1418735E+04  0.7818608E-02  0.8940368E-01
         -2   -1    0    0    0  501 -0.00000000000E+00  0.00000000000E+00  0.34328219527E+03  0.34328219527E+03  0.00000000000E+00 0. -1.
          2   -1    0    0  501    0  0.00000000000E+00 -0.00000000000E+00 -0.14658550408E+04  0.14658550408E+04  0.00000000000E+00 0.  1.
         23    2    1    2    0    0  0.33102544276E+03 -0.18854259063E+03 -0.56682563353E+03  0.68896186714E+03  0.90835033485E+02 0.  0.
        254    2    1    2    0    0 -0.33102544276E+03  0.18854259063E+03 -0.55574721198E+03  0.11201753689E+04  0.89488085310E+03 0.  0.
        -24    2    4    4    0    0  0.66111772984E+02  0.98356793551E+02  0.20663367901E+03  0.25216840451E+03  0.82744193547E+02 0.  0.
         24    2    4    4    0    0 -0.39713721575E+03  0.90185797081E+02 -0.76238089099E+03  0.86800696439E+03  0.79749740839E+02 0.  0.
         11    1    3    3    0    0  0.16655428898E+03 -0.11736790999E+03 -0.22884217467E+03  0.30640544770E+03  0.00000000000E+00 0.  1.
        -11    1    3    3    0    0  0.16447115378E+03 -0.71174680643E+02 -0.33798345886E+03  0.38255641944E+03  0.00000000000E+00 0. -1.
          2    1    6    6  502    0 -0.39423874787E+03  0.97884927312E+02 -0.73996332430E+03  0.84412757959E+03  0.00000000000E+00 0. -1.
          1    1    5    5  503    0  0.75856630173E+02  0.49274865861E+02  0.10296681817E+03  0.13705621617E+03  0.00000000000E+00 0. -1.
         -2    1    5    5    0  503 -0.97448571886E+01  0.49081927690E+02  0.10366686084E+03  0.11511218834E+03  0.00000000000E+00 0.  1.
         -1    1    6    6    0  502 -0.28984678795E+01 -0.76991302308E+01 -0.22417566685E+02  0.23879384800E+02  0.00000000000E+00 0.  1.
<mgrwt>
<rscale>  0 0.14187346E+04</rscale>
<asrwt>0</asrwt>
<pdfrwt beam="1">  1        2 0.22551616E+00 0.14187346E+04</pdfrwt>
<pdfrwt beam="2">  1       -2 0.52812646E-01 0.14187346E+04</pdfrwt>
<totfact> 0.43618342E+01</totfact>
</mgrwt>
</event>
<event>
12    1  0.1397649E-007  0.1564817E+04  0.7818608E-02  0.8842458E-01
          1   -1    0    0  501    0  0.00000000000E+00  0.00000000000E+00  0.34552923914E+04  0.34552923914E+04  0.00000000000E+00 0. -1.
         -1   -1    0    0    0  501 -0.00000000000E+00 -0.00000000000E+00 -0.17716684061E+03  0.17716684061E+03  0.00000000000E+00 0.  1.
         23    2    1    2    0    0 -0.30265369681E+03  0.24624572723E+02  0.19905497425E+04  0.20156526079E+04  0.91441393390E+02 0.  0.
        254    2    1    2    0    0  0.30265369681E+03 -0.24624572723E+02  0.12875758083E+04  0.16168066241E+04  0.92951953612E+03 0.  0.
        -24    2    4    4    0    0  0.66547814901E+02 -0.12812079133E+03  0.13330119464E+04  0.13432036468E+04  0.80197498346E+02 0.  0.
         24    2    4    4    0    0  0.23610588191E+03  0.10349621861E+03 -0.45436138126E+02  0.27360297732E+03  0.79603340481E+02 0.  0.
         11    1    3    3    0    0 -0.13671014194E+03 -0.34245459241E+02  0.91171594789E+03  0.92254451602E+03  0.00000000000E+00 0.  1.
        -11    1    3    3    0    0 -0.16594355486E+03  0.58870031964E+02  0.10788337946E+04  0.10931080918E+04  0.00000000000E+00 0. -1.
          4    1    6    6  502    0  0.15213532293E+02  0.74938774048E+01  0.17802022953E+02  0.24587024721E+02  0.00000000000E+00 0. -1.
          1    1    5    5  503    0 -0.16775452523E+02 -0.27945982119E+02  0.18834380132E+03  0.19114335253E+03  0.00000000000E+00 0. -1.
         -2    1    5    5    0  503  0.83323267424E+02 -0.10017480921E+03  0.11446681451E+04  0.11520602943E+04  0.00000000000E+00 0.  1.
         -3    1    6    6    0  502  0.22089234961E+03  0.96002341201E+02 -0.63238161079E+02  0.24901595260E+03  0.00000000000E+00 0.  1.
<mgrwt>
<rscale>  0 0.15648172E+04</rscale>
<asrwt>0</asrwt>
<pdfrwt beam="1">  1        1 0.53158339E+00 0.15648172E+04</pdfrwt>
<pdfrwt beam="2">  1       -1 0.27256440E-01 0.15648172E+04</pdfrwt>
<totfact> 0.31768569E+00</totfact>
</mgrwt>
</event>
<event>
12    1  0.1397649E-007  0.1219192E+04  0.7818608E-02  0.9096222E-01
          2   -1    0    0  501    0  0.00000000000E+00  0.00000000000E+00  0.38432227431E+04  0.38432227431E+04  0.00000000000E+00 0.  1.
         -2   -1    0    0    0  501 -0.00000000000E+00 -0.00000000000E+00 -0.96691536957E+02  0.96691536957E+02  0.00000000000E+00 0. -1.
         23    2    1    2    0    0 -0.46230692430E+02 -0.21097415847E+03  0.13243077276E+04  0.13448567873E+04  0.90561850119E+02 0.  0.
        254    2    1    2    0    0  0.46230692430E+02  0.21097415847E+03  0.24222234786E+04  0.25950574927E+04  0.90581976015E+03 0.  0.
        -24    2    4    4    0    0  0.18216807457E+03  0.17282026709E+03  0.24178757675E+04  0.24320162142E+04  0.74347741638E+02 0.  0.
         24    2    4    4    0    0 -0.13593738214E+03  0.38153891387E+02  0.43477110783E+01  0.16304127857E+03  0.81417839799E+02 0.  0.
         13    1    3    3    0    0  0.19240895683E+02 -0.12203658588E+03  0.72805522919E+03  0.73846296936E+03  0.00000000000E+00 0.  1.
        -13    1    3    3    0    0 -0.65471588113E+02 -0.88937572595E+02  0.59625249837E+03  0.60639381798E+03  0.00000000000E+00 0. -1.
          4    1    6    6  502    0 -0.95569483928E+02 -0.14875625439E+01  0.31024366599E+02  0.10049005137E+03  0.00000000000E+00 0. -1.
          3    1    5    5  503    0  0.16932902490E+03  0.14472033677E+03  0.18608203759E+04  0.18741047905E+04  0.00000000000E+00 0. -1.
         -4    1    5    5    0  503  0.12839049664E+02  0.28099930318E+02  0.55705539161E+03  0.55791142362E+03  0.00000000000E+00 0.  1.
         -3    1    6    6    0  502 -0.40367898208E+02  0.39641453931E+02 -0.26676655521E+02  0.62551227208E+02  0.00000000000E+00 0.  1.
<mgrwt>
<rscale>  0 0.12191917E+04</rscale>
<asrwt>0</asrwt>
<pdfrwt beam="1">  1        2 0.59126492E+00 0.12191917E+04</pdfrwt>
<pdfrwt beam="2">  1       -2 0.14875624E-01 0.12191917E+04</pdfrwt>
<totfact> 0.16524897E+01</totfact>
</mgrwt>
</event>
<event>
12    1  0.1397649E-007  0.2100387E+04  0.7818608E-02  0.8561073E-01
         -2   -1    0    0    0  501 -0.00000000000E+00  0.00000000000E+00  0.16419499280E+04  0.16419499280E+04  0.00000000000E+00 0. -1.
          2   -1    0    0  501    0  0.00000000000E+00 -0.00000000000E+00 -0.67170525731E+03  0.67170525731E+03  0.00000000000E+00 0.  1.
         23    2    1    2    0    0 -0.49324748456E+03 -0.23948747545E+03 -0.32930379039E+03  0.64622154870E+03  0.92271185755E+02 0.  0.
        254    2    1    2    0    0  0.49324748456E+03  0.23948747545E+03  0.12995484611E+04  0.16674336366E+04  0.88930388388E+03 0.  0.
        -24    2    4    4    0    0  0.46363725146E+03 -0.21601279369E+03  0.39485978431E+03  0.65096065614E+03  0.78832091145E+02 0.  0.
         24    2    4    4    0    0  0.29610233099E+02  0.45550026914E+03  0.90468867680E+03  0.10164729805E+04  0.79990356041E+02 0.  0.
         13    1    3    3    0    0 -0.22925834025E+03 -0.11764891997E+03 -0.10188077540E+03  0.27709266923E+03  0.00000000000E+00 0. -1.
        -13    1    3    3    0    0 -0.26398914431E+03 -0.12183855548E+03 -0.22742301499E+03  0.36912887947E+03  0.00000000000E+00 0.  1.
          2    1    6    6  502    0  0.42544412067E+02  0.22253687649E+03  0.38321316997E+03  0.44517976373E+03  0.00000000000E+00 0. -1.
          1    1    5    5  503    0  0.36133481149E+03 -0.19115316747E+03  0.28197057090E+03  0.49659821010E+03  0.00000000000E+00 0. -1.
         -2    1    5    5    0  503  0.10230243997E+03 -0.24859626219E+02  0.11288921342E+03  0.15436244604E+03  0.00000000000E+00 0.  1.
         -1    1    6    6    0  502 -0.12934178968E+02  0.23296339265E+03  0.52147550683E+03  0.57129321677E+03  0.00000000000E+00 0.  1.
<mgrwt>
<rscale>  0 0.21003870E+04</rscale>
<asrwt>0</asrwt>
<pdfrwt beam="1">  1        2 0.10333927E+00 0.21003870E+04</pdfrwt>
<pdfrwt beam="2">  1       -2 0.25260768E+00 0.21003870E+04</pdfrwt>
<totfact> 0.24627822E+00</totfact>
</mgrwt>
</event>
<event>
12    1  0.1397649E-007  0.1837877E+04  0.7818608E-02  0.8686412E-01
          2   -1    0    0  501    0  0.00000000000E+00  0.00000000000E+00  0.32080471429E+04  0.32080471429E+04  0.00000000000E+00 0. -1.
         -2   -1    0    0    0  501 -0.00000000000E+00 -0.00000000000E+00 -0.26322812967E+03  0.26322812967E+03  0.00000000000E+00 0.  1.
         23    2    1    2    0    0 -0.65756150970E+02 -0.63480641986E+02 -0.17714119794E+03  0.21883746165E+03  0.90317037786E+02 0.  0.
        254    2    1    2    0    0  0.65756150970E+02  0.63480641986E+02  0.31219602112E+04  0.32524378109E+04  0.90739323918E+03 0.  0.
        -24    2    4    4    0    0  0.19054531536E+03 -0.23507282718E+02  0.30638132690E+04  0.30708982768E+04  0.81267273770E+02 0.  0.
         24    2    4    4    0    0 -0.12478916439E+03  0.86987924704E+02  0.58146942206E+02  0.18153953413E+03  0.80226560259E+02 0.  0.
         11    1    3    3    0    0 -0.43103899617E+02 -0.16751483788E+02 -0.15051640822E+02  0.48632399311E+02  0.00000000000E+00 0. -1.
        -11    1    3    3    0    0 -0.22652251352E+02 -0.46729158197E+02 -0.16208955712E+03  0.17020506234E+03  0.00000000000E+00 0.  1.
          4    1    6    6  502    0 -0.60881687324E+02  0.62172085672E+02 -0.65664234126E+01  0.87264345552E+02  0.00000000000E+00 0. -1.
          1    1    5    5  503    0  0.15788811416E+03  0.11639445330E+02  0.25224092969E+04  0.25273727059E+04  0.00000000000E+00 0. -1.
         -2    1    5    5    0  503  0.32657201201E+02 -0.35146728049E+02  0.54140397209E+03  0.54352557095E+03  0.00000000000E+00 0.  1.
         -3    1    6    6    0  502 -0.63907477067E+02  0.24815839031E+02  0.64713365618E+02  0.94275188579E+02  0.00000000000E+00 0.  1.
<mgrwt>
<rscale>  0 0.18378773E+04</rscale>
<asrwt>0</asrwt>
<pdfrwt beam="1">  1        2 0.49354569E+00 0.18378773E+04</pdfrwt>
<pdfrwt beam="2">  1       -2 0.40496638E-01 0.18378773E+04</pdfrwt>
<totfact> 0.69960865E+00</totfact>
</mgrwt>
</event>
<event>
12    1  0.1397649E-007  0.1484212E+04  0.7818608E-02  0.8895020E-01
          1   -1    0    0  501    0  0.00000000000E+00  0.00000000000E+00  0.45945638190E+03  0.45945638190E+03  0.00000000000E+00 0. -1.
         -1   -1    0    0    0  501 -0.00000000000E+00 -0.00000000000E+00 -0.11986362750E+04  0.11986362750E+04  0.00000000000E+00 0.  1.
         23    2    1    2    0    0  0.44319102868E+03 -0.70174575754E+02 -0.16153086247E+03  0.48523615950E+03  0.89549717824E+02 0.  0.
        254    2    1    2    0    0 -0.44319102868E+03  0.70174575754E+02 -0.57764903065E+03  0.11728564974E+04  0.91682670226E+03 0.  0.
        -24    2    4    4    0    0  0.21708952262E+03  0.35046411503E+01 -0.42959022504E+03  0.48806362000E+03  0.80735322972E+02 0.  0.
         24    2    4    4    0    0 -0.66028055131E+03  0.66669934603E+02 -0.14805880561E+03  0.68479287743E+03  0.81268619093E+02 0.  0.
         13    1    3    3    0    0  0.16160881553E+02  0.14503020664E+02 -0.12691002787E+02  0.25151008979E+02  0.00000000000E+00 0.  1.
        -13    1    3    3    0    0  0.42703014713E+03 -0.84677596418E+02 -0.14883985969E+03  0.46008515052E+03  0.00000000000E+00 0. -1.
          4    1    6    6  502    0 -0.61384023620E+03  0.46710811750E+02 -0.15196676520E+03  0.63409434096E+03  0.00000000000E+00 0. -1.
          1    1    5    5  503    0  0.17056015996E+03  0.34990500953E+02 -0.34614723946E+03  0.38747001782E+03  0.00000000000E+00 0. -1.
         -2    1    5    5    0  503  0.46529362660E+02 -0.31485859803E+02 -0.83442985578E+02  0.10059360218E+03  0.00000000000E+00 0.  1.
         -3    1    6    6    0  502 -0.46440315112E+02  0.19959122853E+02  0.39079595897E+01  0.50698536477E+02  0.00000000000E+00 0.  1.
<mgrwt>
<rscale>  0 0.14842117E+04</rscale>
<asrwt>0</asrwt>
<pdfrwt beam="1">  1        1 0.70685599E-01 0.14842117E+04</pdfrwt>
<pdfrwt beam="2">  1       -1 0.18440557E+00 0.14842117E+04</pdfrwt>
<totfact> 0.93299278E+00</totfact>
</mgrwt>
</event>
<event>
12    1  0.1397649E-007  0.1661540E+04  0.7818608E-02  0.8783609E-01
         -2   -1    0    0    0  501 -0.00000000000E+00  0.00000000000E+00  0.18406873179E+03  0.18406873179E+03  0.00000000000E+00 0.  1.
          2   -1    0    0  501    0  0.00000000000E+00 -0.00000000000E+00 -0.37495700424E+04  0.37495700424E+04  0.00000000000E+00 0. -1.
         23    2    1    2    0    0  0.22199600896E+03  0.37707280075E+03 -0.34193157190E+03  0.56221691697E+03  0.87775490916E+02 0.  0.
        254    2    1    2    0    0 -0.22199600896E+03 -0.37707280075E+03 -0.32235697388E+04  0.33714218573E+04  0.88522164113E+03 0.  0.
        -24    2    4    4    0    0  0.37821871084E+01 -0.10627104146E+03 -0.50355955812E+01  0.13258873317E+03  0.79035281672E+02 0.  0.
         24    2    4    4    0    0 -0.22577819607E+03 -0.27080175930E+03 -0.32185341432E+04  0.32388331241E+04  0.82271430451E+02 0.  0.
         13    1    3    3    0    0  0.17086898752E+02  0.81192901484E+01 -0.36969398666E+02  0.41528561487E+02  0.00000000000E+00 0. -1.
        -13    1    3    3    0    0  0.20490911021E+03  0.36895351061E+03 -0.30496217324E+03  0.52068835549E+03  0.00000000000E+00 0.  1.
          2    1    6    6  502    0 -0.13433482158E+02 -0.25181857431E+02 -0.12061066686E+03  0.12394158845E+03  0.00000000000E+00 0. -1.
          3    1    5    5  503    0  0.10974867375E+01  0.11659312342E+02 -0.86714174500E+01  0.14571805723E+02  0.00000000000E+00 0. -1.
         -4    1    5    5    0  503  0.26847003709E+01 -0.11793035380E+03  0.36358218688E+01  0.11801692745E+03  0.00000000000E+00 0.  1.
         -1    1    6    6    0  502 -0.21234471391E+03 -0.24561990187E+03 -0.30979234763E+04  0.31148915356E+04  0.00000000000E+00 0.  1.
<mgrwt>
<rscale>  0 0.16615398E+04</rscale>
<asrwt>0</asrwt>
<pdfrwt beam="1">  1        2 0.57685692E+00 0.16615398E+04</pdfrwt>
<pdfrwt beam="2">  1       -2 0.28318267E-01 0.16615398E+04</pdfrwt>
<totfact> 0.59250640E+00</totfact>
</mgrwt>
</event>
<event>
12    1  0.1397649E-007  0.1895976E+04  0.7818608E-02  0.8656862E-01
         -2   -1    0    0    0  501 -0.00000000000E+00  0.00000000000E+00  0.37750138597E+03  0.37750138597E+03  0.00000000000E+00 0.  1.
          2   -1    0    0  501    0  0.00000000000E+00 -0.00000000000E+00 -0.23806041544E+04  0.23806041544E+04  0.00000000000E+00 0. -1.
         23    2    1    2    0    0  0.72227983203E+03  0.35304266742E+01 -0.64407204807E+03  0.97216633071E+03  0.92617232739E+02 0.  0.
        254    2    1    2    0    0 -0.72227983203E+03 -0.35304266742E+01 -0.13590307204E+04  0.17859392097E+04  0.90604290298E+03 0.  0.
        -24    2    4    4    0    0 -0.77685767365E+03  0.43749573823E+02 -0.51804748189E+03  0.93811085949E+03  0.79100700927E+02 0.  0.
         24    2    4    4    0    0  0.54577841619E+02 -0.47280000497E+02 -0.84098323850E+03  0.84782835019E+03  0.79661563548E+02 0.  0.
         11    1    3    3    0    0  0.34767820360E+03 -0.12426493991E+02 -0.36899732556E+03  0.50714256111E+03  0.00000000000E+00 0.  1.
        -11    1    3    3    0    0  0.37460162843E+03  0.15956920666E+02 -0.27507472250E+03  0.46502376961E+03  0.00000000000E+00 0. -1.
          4    1    6    6  502    0  0.70203524593E+02 -0.39925511170E+02 -0.50640045369E+03  0.51280015679E+03  0.00000000000E+00 0. -1.
          3    1    5    5  503    0 -0.60811876090E+03  0.52964119344E+02 -0.37264561515E+03  0.71517716671E+03  0.00000000000E+00 0. -1.
         -4    1    5    5    0  503 -0.16873891275E+03 -0.92145455214E+01 -0.14540186674E+03  0.22293369278E+03  0.00000000000E+00 0.  1.
         -3    1    6    6    0  502 -0.15625682974E+02 -0.73544893276E+01 -0.33458278481E+03  0.33502819340E+03  0.00000000000E+00 0.  1.
<mgrwt>
<rscale>  0 0.18959761E+04</rscale>
<asrwt>0</asrwt>
<pdfrwt beam="1">  1        2 0.36624679E+00 0.18959761E+04</pdfrwt>
<pdfrwt beam="2">  1       -2 0.58077137E-01 0.18959761E+04</pdfrwt>
<totfact> 0.10605726E+01</totfact>
</mgrwt>
</event>
<event>
12    1  0.1397649E-007  0.1653039E+04  0.7818608E-02  0.8788611E-01
         -1   -1    0    0    0  501 -0.00000000000E+00  0.00000000000E+00  0.28921458347E+03  0.28921458347E+03  0.00000000000E+00 0.  1.
          1   -1    0    0  501    0  0.00000000000E+00 -0.00000000000E+00 -0.23620333177E+04  0.23620333177E+04  0.00000000000E+00 0. -1.
         23    2    1    2    0    0  0.53939103143E+03 -0.16225008631E+03 -0.95450180773E+03  0.11116578932E+04  0.86265840739E+02 0.  0.
        254    2    1    2    0    0 -0.53939103143E+03  0.16225008631E+03 -0.11183169266E+04  0.15395900080E+04  0.89578840652E+03 0.  0.
        -24    2    4    4    0    0 -0.10891970251E+03 -0.75857921640E+02 -0.10202548757E+04  0.10313167658E+04  0.71248398286E+02 0.  0.
         24    2    4    4    0    0 -0.43047132892E+03  0.23810800795E+03 -0.98062050875E+02  0.50827324218E+03  0.82003258632E+02 0.  0.
         13    1    3    3    0    0  0.53191017823E+03 -0.16726892515E+03 -0.95009431819E+03  0.11016290412E+04  0.00000000000E+00 0. -1.
        -13    1    3    3    0    0  0.74808531957E+01  0.50188388434E+01 -0.44074895364E+01  0.10028851972E+02  0.00000000000E+00 0.  1.
          2    1    6    6  502    0 -0.74635885884E+02  0.66685190887E+02  0.45403467661E+01  0.10019004389E+03  0.00000000000E+00 0. -1.
          1    1    5    5  503    0 -0.35687449269E+02  0.93457080350E+01 -0.19617601475E+03  0.19961454120E+03  0.00000000000E+00 0. -1.
         -2    1    5    5    0  503 -0.73232253239E+02 -0.85203629675E+02 -0.82407886092E+03  0.83170222462E+03  0.00000000000E+00 0.  1.
         -1    1    6    6    0  502 -0.35583544304E+03  0.17142281706E+03 -0.10260239764E+03  0.40808319830E+03  0.00000000000E+00 0.  1.
<mgrwt>
<rscale>  0 0.16530390E+04</rscale>
<asrwt>0</asrwt>
<pdfrwt beam="1">  1        1 0.36338973E+00 0.16530390E+04</pdfrwt>
<pdfrwt beam="2">  1       -1 0.44494552E-01 0.16530390E+04</pdfrwt>
<totfact> 0.80728134E+00</totfact>
</mgrwt>
</event>
<event>
12    1  0.1397649E-007  0.1531685E+04  0.7818608E-02  0.8863652E-01
          3   -1    0    0  501    0  0.00000000000E+00  0.00000000000E+00  0.28063523545E+04  0.28063523545E+04  0.00000000000E+00 0. -1.
         -3   -1    0    0    0  501 -0.00000000000E+00 -0.00000000000E+00 -0.20899531262E+03  0.20899531262E+03  0.00000000000E+00 0.  1.
         23    2    1    2    0    0 -0.13213229250E+03 -0.52726216182E+03  0.68629535739E+03  0.88084571862E+03  0.97074880581E+02 0.  0.
        254    2    1    2    0    0  0.13213229250E+03  0.52726216182E+03  0.19110616845E+04  0.21345019485E+04  0.78004966267E+03 0.  0.
        -24    2    4    4    0    0 -0.14943943107E+02  0.32432615944E+03  0.18282691490E+04  0.18585751268E+04  0.79515038818E+02 0.  0.
         24    2    4    4    0    0  0.14707623561E+03  0.20293600238E+03  0.82792535481E+02  0.27592682176E+03  0.80414966851E+02 0.  0.
         11    1    3    3    0    0  0.84072748934E+01 -0.27234556057E+02  0.15426690565E+02  0.32409660543E+02  0.00000000000E+00 0. -1.
        -11    1    3    3    0    0 -0.14053956739E+03 -0.50002760576E+03  0.67086866683E+03  0.84843605808E+03  0.00000000000E+00 0.  1.
          4    1    6    6  502    0  0.87768308823E+02  0.15244503862E+03  0.22315758602E+02  0.17731542210E+03  0.00000000000E+00 0. -1.
          1    1    5    5  503    0  0.82430808569E+01  0.17213191136E+03  0.11648064775E+04  0.11774852328E+04  0.00000000000E+00 0. -1.
         -2    1    5    5    0  503 -0.23187023964E+02  0.15219424808E+03  0.66346267148E+03  0.68108989398E+03  0.00000000000E+00 0.  1.
         -1    1    6    6    0  502  0.59307926783E+02  0.50490963757E+02  0.60476776879E+02  0.98611399656E+02  0.00000000000E+00 0.  1.
<mgrwt>
<rscale>  0 0.15316847E+04</rscale>
<asrwt>0</asrwt>
<pdfrwt beam="1">  1        3 0.43174649E+00 0.15316847E+04</pdfrwt>
<pdfrwt beam="2">  1       -3 0.32153127E-01 0.15316847E+04</pdfrwt>
<totfact> 0.18386845E-01</totfact>
</mgrwt>
</event>
<event>
12    1  0.1397649E-007  0.1509793E+04  0.7818608E-02  0.8877967E-01
         -1   -1    0    0    0  501 -0.00000000000E+00  0.00000000000E+00  0.91590168583E+03  0.91590168583E+03  0.00000000000E+00 0.  1.
          1   -1    0    0  501    0  0.00000000000E+00 -0.00000000000E+00 -0.62219427046E+03  0.62219427046E+03  0.00000000000E+00 0. -1.
         23    2    1    2    0    0 -0.73381669866E+02  0.80993645302E+02  0.57851316193E+03  0.59130416767E+03  0.54939058272E+02 0.  0.
        254    2    1    2    0    0  0.73381669866E+02 -0.80993645302E+02 -0.28480574656E+03  0.94679178862E+03  0.89630103072E+03 0.  0.
        -24    2    4    4    0    0 -0.29197474125E+03  0.13949361934E+03  0.11935099337E+03  0.35371494848E+03  0.78497680224E+02 0.  0.
         24    2    4    4    0    0  0.36535641112E+03 -0.22048726464E+03 -0.40415673993E+03  0.59307684013E+03  0.79356958517E+02 0.  0.
         11    1    3    3    0    0 -0.63116304132E+02  0.69327548771E+02  0.55659700626E+03  0.56443795429E+03  0.00000000000E+00 0.  1.
        -11    1    3    3    0    0 -0.10265365735E+02  0.11666096531E+02  0.21916155673E+02  0.26866213381E+02  0.00000000000E+00 0. -1.
          2    1    6    6  502    0  0.24925607667E+03 -0.19165173652E+03 -0.29349461975E+03  0.43011402173E+03  0.00000000000E+00 0. -1.
          3    1    5    5  503    0 -0.96727102108E+02  0.86820783911E+02  0.35050546194E+02  0.13461991528E+03  0.00000000000E+00 0. -1.
         -4    1    5    5    0  503 -0.19524763914E+03  0.52672835426E+02  0.84300447175E+02  0.21909503321E+03  0.00000000000E+00 0.  1.
         -1    1    6    6    0  502  0.11610033444E+03 -0.28835528121E+02 -0.11066212017E+03  0.16296281840E+03  0.00000000000E+00 0.  1.
<mgrwt>
<rscale>  0 0.15097931E+04</rscale>
<asrwt>0</asrwt>
<pdfrwt beam="1">  1        1 0.95722195E-01 0.15097931E+04</pdfrwt>
<pdfrwt beam="2">  1       -1 0.14090795E+00 0.15097931E+04</pdfrwt>
<totfact> 0.12941756E+01</totfact>
</mgrwt>
</event>
<event>
12    1  0.1397649E-007  0.1718544E+04  0.7818608E-02  0.8750858E-01
          1   -1    0    0  501    0  0.00000000000E+00  0.00000000000E+00  0.55371536199E+03  0.55371536199E+03  0.00000000000E+00 0. -1.
         -1   -1    0    0    0  501 -0.00000000000E+00 -0.00000000000E+00 -0.13334435552E+04  0.13334435552E+04  0.00000000000E+00 0.  1.
         23    2    1    2    0    0 -0.11215218428E+03  0.12845305858E+03  0.37126734557E+03  0.41771860885E+03  0.87012031319E+02 0.  0.
        254    2    1    2    0    0  0.11215218428E+03 -0.12845305858E+03 -0.11509955388E+04  0.14694403084E+04  0.89743288821E+03 0.  0.
        -24    2    4    4    0    0 -0.37016077867E+03 -0.84940032339E+02 -0.31731331975E+03  0.50172691710E+03  0.82512697735E+02 0.  0.
         24    2    4    4    0    0  0.48231296295E+03 -0.43513026242E+02 -0.83368221907E+03  0.96771339129E+03  0.83210501836E+02 0.  0.
         11    1    3    3    0    0 -0.59496132917E+02  0.10248704386E+03  0.31435972142E+03  0.33595448865E+03  0.00000000000E+00 0. -1.
        -11    1    3    3    0    0 -0.52656051364E+02  0.25966014719E+02  0.56907624145E+02  0.81764120196E+02  0.00000000000E+00 0.  1.
          2    1    6    6  502    0  0.84926460114E+02 -0.16830294493E+02 -0.21659900501E+03  0.23326142290E+03  0.00000000000E+00 0. -1.
          3    1    5    5  503    0 -0.12765842221E+02  0.55144429805E+00  0.42034784230E+01  0.13451395812E+02  0.00000000000E+00 0. -1.
         -4    1    5    5    0  503 -0.35739493645E+03 -0.85491476637E+02 -0.32151679818E+03  0.48827552129E+03  0.00000000000E+00 0.  1.
         -3    1    6    6    0  502  0.39738650284E+03 -0.26682731749E+02 -0.61708321405E+03  0.73445196840E+03  0.00000000000E+00 0.  1.
<mgrwt>
<rscale>  0 0.17185438E+04</rscale>
<asrwt>0</asrwt>
<pdfrwt beam="1">  1        1 0.85186980E-01 0.17185438E+04</pdfrwt>
<pdfrwt beam="2">  1       -1 0.20514516E+00 0.17185438E+04</pdfrwt>
<totfact> 0.50638508E+00</totfact>
</mgrwt>
</event>
<event>
12    1  0.1397649E-007  0.2327771E+04  0.7818608E-02  0.8467051E-01
          1   -1    0    0  501    0  0.00000000000E+00  0.00000000000E+00  0.17665033985E+04  0.17665033985E+04  0.00000000000E+00 0. -1.
         -1   -1    0    0    0  501 -0.00000000000E+00 -0.00000000000E+00 -0.76684240690E+03  0.76684240690E+03  0.00000000000E+00 0.  1.
         23    2    1    2    0    0 -0.74326087928E+03 -0.43272980126E+02 -0.28366026967E+03  0.80164493721E+03  0.88668885741E+02 0.  0.
        254    2    1    2    0    0  0.74326087928E+03  0.43272980126E+02  0.12833212613E+04  0.17317008682E+04  0.89306503223E+03 0.  0.
        -24    2    4    4    0    0  0.20723589112E+03 -0.26829120608E+03  0.53623631183E+02  0.35229150465E+03  0.79416148209E+02 0.  0.
         24    2    4    4    0    0  0.53602498816E+03  0.31156418621E+03  0.12296976301E+04  0.13794093636E+04  0.78860007002E+02 0.  0.
         11    1    3    3    0    0 -0.30823137389E+03 -0.59707329212E+01 -0.72793442769E+02  0.31676665672E+03  0.00000000000E+00 0. -1.
        -11    1    3    3    0    0 -0.43502950539E+03 -0.37302247205E+02 -0.21086682690E+03  0.48487828049E+03  0.00000000000E+00 0.  1.
          4    1    6    6  502    0  0.34539601640E+03  0.15647177503E+03  0.73713549212E+03  0.82894544951E+03  0.00000000000E+00 0. -1.
          3    1    5    5  503    0  0.25413309096E+02 -0.99113993212E+01 -0.11676039323E+02  0.29671569052E+02  0.00000000000E+00 0. -1.
         -4    1    5    5    0  503  0.18182258202E+03 -0.25837980676E+03  0.65299670506E+02  0.32261993560E+03  0.00000000000E+00 0.  1.
         -3    1    6    6    0  502  0.19062897175E+03  0.15509241118E+03  0.49256213801E+03  0.55046391406E+03  0.00000000000E+00 0.  1.
<mgrwt>
<rscale>  0 0.23277712E+04</rscale>
<asrwt>0</asrwt>
<pdfrwt beam="1">  1        1 0.27176975E+00 0.23277712E+04</pdfrwt>
<pdfrwt beam="2">  1       -1 0.11797576E+00 0.23277712E+04</pdfrwt>
<totfact> 0.24983380E+00</totfact>
</mgrwt>
</event>
<event>
12    1  0.1397649E-007  0.2389379E+04  0.7818608E-02  0.8443491E-01
         -1   -1    0    0    0  501 -0.00000000000E+00  0.00000000000E+00  0.10347579100E+04  0.10347579100E+04  0.00000000000E+00 0.  1.
          1   -1    0    0  501    0  0.00000000000E+00 -0.00000000000E+00 -0.13793399727E+04  0.13793399727E+04  0.00000000000E+00 0. -1.
         23    2    1    2    0    0  0.58055258278E+03  0.29887164641E+03 -0.86633205352E+03  0.10885111098E+04  0.89216852759E+02 0.  0.
        254    2    1    2    0    0 -0.58055258278E+03 -0.29887164641E+03  0.52174999085E+03  0.13255867729E+04  0.10288788448E+04 0.  0.
        -24    2    4    4    0    0 -0.48794481235E+03 -0.62523535379E+03  0.14046037960E+03  0.80893857323E+03  0.75120632990E+02 0.  0.
         24    2    4    4    0    0 -0.92607770439E+02  0.32636370737E+03  0.38128961125E+03  0.51664819969E+03  0.80337575048E+02 0.  0.
         13    1    3    3    0    0  0.50561619270E+03  0.27703855956E+03 -0.79986367397E+03  0.98599188371E+03  0.00000000000E+00 0. -1.
        -13    1    3    3    0    0  0.74936390086E+02  0.21833086855E+02 -0.66468379555E+02  0.10251922611E+03  0.00000000000E+00 0.  1.
          4    1    6    6  502    0  0.10692934828E+02  0.33986121684E+02  0.62360123953E+02  0.71820473277E+02  0.00000000000E+00 0. -1.
          3    1    5    5  503    0 -0.36481239769E+03 -0.46750597445E+03  0.71534210544E+02  0.59729981159E+03  0.00000000000E+00 0. -1.
         -4    1    5    5    0  503 -0.12313241466E+03 -0.15772937934E+03  0.68926169055E+02  0.21163876164E+03  0.00000000000E+00 0.  1.
         -3    1    6    6    0  502 -0.10330070527E+03  0.29237758569E+03  0.31892948730E+03  0.44482772642E+03  0.00000000000E+00 0.  1.
<mgrwt>
<rscale>  0 0.23893790E+04</rscale>
<asrwt>0</asrwt>
<pdfrwt beam="1">  1        1 0.21220615E+00 0.23893790E+04</pdfrwt>
<pdfrwt beam="2">  1       -1 0.15919353E+00 0.23893790E+04</pdfrwt>
<totfact> 0.21121821E+00</totfact>
</mgrwt>
</event>
<event>
12    1  0.1850263E-007  0.3582623E+04  0.7818608E-02  0.8094484E-01
         -1   -1    0    0    0  501 -0.00000000000E+00  0.00000000000E+00  0.17812248465E+04  0.17812248465E+04  0.00000000000E+00 0.  1.
          1   -1    0    0  501    0  0.00000000000E+00 -0.00000000000E+00 -0.18014548551E+04  0.18014548551E+04  0.00000000000E+00 0. -1.
         23    2    1    2    0    0 -0.10448845743E+04  0.32435397321E+03  0.12614355536E+04  0.16724565125E+04  0.94349650501E+02 0.  0.
        254    2    1    2    0    0  0.10448845743E+04 -0.32435397321E+03 -0.12816655623E+04  0.19102231891E+04  0.89960921801E+03 0.  0.
        -24    2    4    4    0    0 -0.40590333136E+02 -0.65940440484E+02  0.88243864368E+02  0.14141735564E+03  0.78842704440E+02 0.  0.
         24    2    4    4    0    0  0.10854749074E+04 -0.25841353273E+03 -0.13699094267E+04  0.17688058335E+04  0.83599705195E+02 0.  0.
         13    1    3    3    0    0 -0.10227332652E+04  0.30331434001E+03  0.12147514602E+04  0.16166644768E+04  0.00000000000E+00 0.  1.
        -13    1    3    3    0    0 -0.22151309126E+02  0.21039633203E+02  0.46684093431E+02  0.55792035639E+02  0.00000000000E+00 0. -1.
          4    1    6    6  502    0  0.66810789190E+02 -0.28610284810E+02 -0.65074422389E+02  0.97554653392E+02  0.00000000000E+00 0. -1.
          3    1    5    5  503    0  0.18169643166E+02 -0.14265573012E+02 -0.49479495813E+00  0.23106001995E+02  0.00000000000E+00 0. -1.
         -4    1    5    5    0  503 -0.58759976302E+02 -0.51674867472E+02  0.88738659326E+02  0.11831135365E+03  0.00000000000E+00 0.  1.
         -3    1    6    6    0  502  0.10186641183E+04 -0.22980324792E+03 -0.13048350043E+04  0.16712511801E+04  0.00000000000E+00 0.  1.
<mgrwt>
<rscale>  0 0.35826226E+04</rscale>
<asrwt>0</asrwt>
<pdfrwt beam="1">  1        1 0.27714690E+00 0.35826226E+04</pdfrwt>
<pdfrwt beam="2">  1       -1 0.27403459E+00 0.35826226E+04</pdfrwt>
<totfact> 0.16021771E-01</totfact>
</mgrwt>
</event>
<event>
12    1  0.1397649E-007  0.1728120E+04  0.7818608E-02  0.8745487E-01
         -1   -1    0    0    0  501 -0.00000000000E+00  0.00000000000E+00  0.22799833418E+03  0.22799833418E+03  0.00000000000E+00 0.  1.
          1   -1    0    0  501    0  0.00000000000E+00 -0.00000000000E+00 -0.32745839274E+04  0.32745839274E+04  0.00000000000E+00 0. -1.
         23    2    1    2    0    0  0.60630341927E+03 -0.11714855682E+03 -0.11506954888E+04  0.13091640268E+04  0.92101685867E+02 0.  0.
        254    2    1    2    0    0 -0.60630341927E+03  0.11714855682E+03 -0.18958901044E+04  0.21934182348E+04  0.91397847025E+03 0.  0.
        -24    2    4    4    0    0 -0.78316191587E+03  0.70517288941E+02 -0.99527011774E+03  0.12709428991E+04  0.80112239919E+02 0.  0.
         24    2    4    4    0    0  0.17685849660E+03  0.46631267879E+02 -0.90061998667E+03  0.92247533568E+03  0.79943615107E+02 0.  0.
         13    1    3    3    0    0  0.16473583415E+03 -0.66863975492E+02 -0.37942430346E+03  0.41901251571E+03  0.00000000000E+00 0. -1.
        -13    1    3    3    0    0  0.44156758512E+03 -0.50284581328E+02 -0.77127118537E+03  0.89015151111E+03  0.00000000000E+00 0.  1.
          4    1    6    6  502    0  0.42118530811E+02 -0.17404790615E+02 -0.13583735291E+03  0.14327834386E+03  0.00000000000E+00 0. -1.
          1    1    5    5  503    0 -0.37549909320E+03  0.99534370219E+01 -0.52649494621E+03  0.64675773539E+03  0.00000000000E+00 0. -1.
         -2    1    5    5    0  503 -0.40766282266E+03  0.60563851919E+02 -0.46877517153E+03  0.62418516370E+03  0.00000000000E+00 0.  1.
         -3    1    6    6    0  502  0.13473996579E+03  0.64036058494E+02 -0.76478263376E+03  0.77919699182E+03  0.00000000000E+00 0.  1.
<mgrwt>
<rscale>  0 0.17281200E+04</rscale>
<asrwt>0</asrwt>
<pdfrwt beam="1">  1        1 0.50378210E+00 0.17281200E+04</pdfrwt>
<pdfrwt beam="2">  1       -1 0.35076670E-01 0.17281200E+04</pdfrwt>
<totfact> 0.27554762E+00</totfact>
</mgrwt>
</event>
<event>
12    1  0.1397649E-007  0.2127937E+04  0.7818608E-02  0.8549036E-01
         -2   -1    0    0    0  501 -0.00000000000E+00  0.00000000000E+00  0.76434681428E+03  0.76434681428E+03  0.00000000000E+00 0.  1.
          2   -1    0    0  501    0  0.00000000000E+00 -0.00000000000E+00 -0.14810409294E+04  0.14810409294E+04  0.00000000000E+00 0. -1.
         23    2    1    2    0    0  0.29880199889E+03 -0.13839929732E+03 -0.11490506312E+04  0.11987871359E+04  0.91303033526E+02 0.  0.
        254    2    1    2    0    0 -0.29880199889E+03  0.13839929732E+03  0.43235651615E+03  0.10466006078E+04  0.89442924546E+03 0.  0.
        -24    2    4    4    0    0  0.21874753190E+03  0.71601069071E+01 -0.12982860059E+03  0.26671884296E+03  0.79885704695E+02 0.  0.
         24    2    4    4    0    0 -0.51754953080E+03  0.13123919041E+03  0.56218511674E+03  0.77988176483E+03  0.84155924922E+02 0.  0.
         13    1    3    3    0    0  0.24991679172E+03 -0.87479612004E+02 -0.80033145692E+03  0.84299556715E+03  0.00000000000E+00 0.  1.
        -13    1    3    3    0    0  0.48885207174E+02 -0.50919685315E+02 -0.34871917431E+03  0.35579156871E+03  0.00000000000E+00 0. -1.
          4    1    6    6  502    0 -0.42293930717E+02  0.36582514617E+02  0.59691421324E+02  0.81793170441E+02  0.00000000000E+00 0. -1.
          3    1    5    5  503    0  0.14925043135E+03 -0.38536983419E+01 -0.43827187306E+02  0.15560001477E+03  0.00000000000E+00 0. -1.
         -4    1    5    5    0  503  0.69497100550E+02  0.11013805249E+02 -0.86001413287E+02  0.11111882819E+03  0.00000000000E+00 0.  1.
         -3    1    6    6    0  502 -0.47525560008E+03  0.94656675796E+02  0.50249369542E+03  0.69808859439E+03  0.00000000000E+00 0.  1.
<mgrwt>
<rscale>  0 0.21279370E+04</rscale>
<asrwt>0</asrwt>
<pdfrwt beam="1">  1        2 0.22785245E+00 0.21279370E+04</pdfrwt>
<pdfrwt beam="2">  1       -2 0.11759182E+00 0.21279370E+04</pdfrwt>
<totfact> 0.66804779E+00</totfact>
</mgrwt>
</event>
<event>
12    1  0.1397649E-007  0.1368201E+04  0.7818608E-02  0.8977163E-01
          2   -1    0    0  501    0  0.00000000000E+00  0.00000000000E+00  0.10670182543E+04  0.10670182543E+04  0.00000000000E+00 0. -1.
         -2   -1    0    0    0  501 -0.00000000000E+00 -0.00000000000E+00 -0.43859936879E+03  0.43859936879E+03  0.00000000000E+00 0.  1.
         23    2    1    2    0    0 -0.64380629974E+02 -0.15688328372E+03  0.56606872024E+03  0.59764241857E+03  0.89361256816E+02 0.  0.
        254    2    1    2    0    0  0.64380629974E+02  0.15688328372E+03  0.62350165304E+02  0.90797520454E+03  0.88981694675E+03 0.  0.
        -24    2    4    4    0    0 -0.38378477710E+03  0.21458107074E+03  0.29820371614E+02  0.44789532397E+03  0.79907293888E+02 0.  0.
         24    2    4    4    0    0  0.44816540707E+03 -0.57697787022E+02  0.32529793690E+02  0.46007988057E+03  0.80212482240E+02 0.  0.
         11    1    3    3    0    0  0.18441007589E+02 -0.66513200049E+02  0.19568647393E+03  0.20750246413E+03  0.00000000000E+00 0.  1.
        -11    1    3    3    0    0 -0.82821637564E+02 -0.90370083672E+02  0.37038224630E+03  0.39013995444E+03  0.00000000000E+00 0. -1.
          2    1    6    6  502    0  0.19300209076E+03  0.12917729554E+02  0.84012146160E+00  0.19343572726E+03  0.00000000000E+00 0. -1.
          3    1    5    5  503    0 -0.17072473091E+02 -0.68677770442E+01  0.32125025454E+01  0.18680360585E+02  0.00000000000E+00 0. -1.
         -4    1    5    5    0  503 -0.36671230401E+03  0.22144884779E+03  0.26607869069E+02  0.42921496338E+03  0.00000000000E+00 0.  1.
         -1    1    6    6    0  502  0.25516331631E+03 -0.70615516576E+02  0.31689672229E+02  0.26664415331E+03  0.00000000000E+00 0.  1.
<mgrwt>
<rscale>  0 0.13682011E+04</rscale>
<asrwt>0</asrwt>
<pdfrwt beam="1">  1        2 0.16415665E+00 0.13682011E+04</pdfrwt>
<pdfrwt beam="2">  1       -2 0.67476826E-01 0.13682011E+04</pdfrwt>
<totfact> 0.44872691E+01</totfact>
</mgrwt>
</event>
<event>
12    1  0.1397649E-007  0.2441766E+04  0.7818608E-02  0.8424031E-01
         -2   -1    0    0    0  501 -0.00000000000E+00  0.00000000000E+00  0.39231292312E+03  0.39231292312E+03  0.00000000000E+00 0.  1.
          2   -1    0    0  501    0  0.00000000000E+00 -0.00000000000E+00 -0.37994028149E+04  0.37994028149E+04  0.00000000000E+00 0. -1.
         23    2    1    2    0    0 -0.67438249777E+03 -0.72980776249E+03 -0.20609714159E+04  0.22899067795E+04  0.93052448851E+02 0.  0.
        254    2    1    2    0    0  0.67438249777E+03  0.72980776249E+03 -0.13461184758E+04  0.19018089584E+04  0.90411904083E+03 0.  0.
        -24    2    4    4    0    0  0.87770668607E+03  0.57022923856E+03 -0.11972230744E+04  0.15921088714E+04  0.77052951412E+02 0.  0.
         24    2    4    4    0    0 -0.20332418830E+03  0.15957852394E+03 -0.14889540142E+03  0.30970008702E+03  0.83296293356E+02 0.  0.
         11    1    3    3    0    0 -0.64143713101E+03 -0.65749030536E+03 -0.18935375861E+04  0.21045711403E+04  0.00000000000E+00 0.  1.
        -11    1    3    3    0    0 -0.32945366764E+02 -0.72317457136E+02 -0.16743382982E+03  0.18533563922E+03  0.00000000000E+00 0. -1.
          2    1    6    6  502    0 -0.15806153561E+03  0.10497964730E+03 -0.14475407672E+03  0.23865858064E+03  0.00000000000E+00 0. -1.
          3    1    5    5  503    0  0.30250557242E+03  0.16393438175E+03 -0.35747224468E+03  0.49615573017E+03  0.00000000000E+00 0. -1.
         -4    1    5    5    0  503  0.57520111365E+03  0.40629485680E+03 -0.83975082972E+03  0.10959531413E+04  0.00000000000E+00 0.  1.
         -1    1    6    6    0  502 -0.45262652693E+02  0.54598876637E+02 -0.41413247028E+01  0.71041506382E+02  0.00000000000E+00 0.  1.
<mgrwt>
<rscale>  0 0.24417656E+04</rscale>
<asrwt>0</asrwt>
<pdfrwt beam="1">  1        2 0.58452351E+00 0.24417656E+04</pdfrwt>
<pdfrwt beam="2">  1       -2 0.60355835E-01 0.24417656E+04</pdfrwt>
<totfact> 0.11302679E+00</totfact>
</mgrwt>
</event>
<event>
12    1  0.1397649E-007  0.1339123E+04  0.7818608E-02  0.8999103E-01
         -2   -1    0    0    0  501 -0.00000000000E+00  0.00000000000E+00  0.25592386607E+03  0.25592386607E+03  0.00000000000E+00 0.  1.
          2   -1    0    0  501    0  0.00000000000E+00 -0.00000000000E+00 -0.17517428254E+04  0.17517428254E+04  0.00000000000E+00 0. -1.
         23    2    1    2    0    0 -0.31186046728E+02  0.25718017911E+02  0.11889720658E+03  0.15589813462E+03  0.92378009771E+02 0.  0.
        254    2    1    2    0    0  0.31186046728E+02 -0.25718017911E+02 -0.16147161659E+04  0.18517685568E+04  0.90559621560E+03 0.  0.
        -24    2    4    4    0    0 -0.26343259982E+02  0.41297830909E+03 -0.52614620755E+03  0.67406924015E+03  0.79337618237E+02 0.  0.
         24    2    4    4    0    0  0.57529306710E+02 -0.43869632700E+03 -0.10885699584E+04  0.11776993167E+04  0.78911582426E+02 0.  0.
         13    1    3    3    0    0 -0.57539318734E+02  0.62831047358E+01  0.39670122786E+02  0.70171000045E+02  0.00000000000E+00 0. -1.
        -13    1    3    3    0    0  0.26353272007E+02  0.19434913175E+02  0.79227083796E+02  0.85727134575E+02  0.00000000000E+00 0.  1.
          4    1    6    6  502    0  0.66345605825E+02 -0.43366886350E+03 -0.10715726802E+04  0.11579026002E+04  0.00000000000E+00 0. -1.
          1    1    5    5  503    0 -0.21439084714E+02  0.41243343919E+03 -0.50507287402E+03  0.65242592237E+03  0.00000000000E+00 0. -1.
         -2    1    5    5    0  503 -0.49041752678E+01  0.54486990677E+00 -0.21073333534E+02  0.21643317780E+02  0.00000000000E+00 0.  1.
         -3    1    6    6    0  502 -0.88162991156E+01 -0.50274635031E+01 -0.16997278153E+02  0.19796716495E+02  0.00000000000E+00 0.  1.
<mgrwt>
<rscale>  0 0.13391233E+04</rscale>
<asrwt>0</asrwt>
<pdfrwt beam="1">  1        2 0.26949889E+00 0.13391233E+04</pdfrwt>
<pdfrwt beam="2">  1       -2 0.39372904E-01 0.13391233E+04</pdfrwt>
<totfact> 0.54726464E+01</totfact>
</mgrwt>
</event>
<event>
12    1  0.1397649E-007  0.1725796E+04  0.7818608E-02  0.8746787E-01
          1   -1    0    0  501    0  0.00000000000E+00  0.00000000000E+00  0.11711134235E+04  0.11711134235E+04  0.00000000000E+00 0. -1.
         -1   -1    0    0    0  501 -0.00000000000E+00 -0.00000000000E+00 -0.63579885165E+03  0.63579885165E+03  0.00000000000E+00 0.  1.
         23    2    1    2    0    0 -0.61510854734E+03 -0.23729033651E+02  0.91604737853E+02  0.62921568992E+03  0.92732757889E+02 0.  0.
        254    2    1    2    0    0  0.61510854734E+03  0.23729033651E+02  0.44370983402E+03  0.11776965852E+04  0.90064934244E+03 0.  0.
        -24    2    4    4    0    0 -0.72030672796E+02 -0.29284081819E+03  0.23006833872E+03  0.38755031006E+03  0.79496161682E+02 0.  0.
         24    2    4    4    0    0  0.68713922014E+03  0.31656985184E+03  0.21364149530E+03  0.79014627519E+03  0.79446011420E+02 0.  0.
         11    1    3    3    0    0 -0.47900761136E+03 -0.33197230294E+01  0.34641708501E+02  0.48027009096E+03  0.00000000000E+00 0.  1.
        -11    1    3    3    0    0 -0.13610093599E+03 -0.20409310622E+02  0.56963029352E+02  0.14894559896E+03  0.00000000000E+00 0. -1.
          2    1    6    6  502    0  0.60410677790E+03  0.30402435402E+03  0.19842690394E+03  0.70480425875E+03  0.00000000000E+00 0. -1.
          3    1    5    5  503    0 -0.71865223417E+02 -0.20105588509E+03  0.19542160724E+03  0.28944374901E+03  0.00000000000E+00 0. -1.
         -4    1    5    5    0  503 -0.16544937873E+00 -0.91784933103E+02  0.34646731480E+02  0.98106561047E+02  0.00000000000E+00 0.  1.
         -1    1    6    6    0  502  0.83032442238E+02  0.12545497822E+02  0.15214591360E+02  0.85342016439E+02  0.00000000000E+00 0.  1.
<mgrwt>
<rscale>  0 0.17257955E+04</rscale>
<asrwt>0</asrwt>
<pdfrwt beam="1">  1        1 0.18017130E+00 0.17257955E+04</pdfrwt>
<pdfrwt beam="2">  1       -1 0.97815208E-01 0.17257955E+04</pdfrwt>
<totfact> 0.10681612E+01</totfact>
</mgrwt>
</event>
<event>
12    1  0.1397649E-007  0.1537920E+04  0.7818608E-02  0.8859621E-01
         -2   -1    0    0    0  501 -0.00000000000E+00  0.00000000000E+00  0.23812966583E+03  0.23812966583E+03  0.00000000000E+00 0.  1.
          2   -1    0    0  501    0  0.00000000000E+00 -0.00000000000E+00 -0.24831001147E+04  0.24831001147E+04  0.00000000000E+00 0. -1.
         23    2    1    2    0    0  0.30586765099E+03  0.36397575759E+03 -0.10226372746E+04  0.11320728456E+04  0.98836027039E+02 0.  0.
        254    2    1    2    0    0 -0.30586765099E+03 -0.36397575759E+03 -0.12223331743E+04  0.15891569350E+04  0.89737840570E+03 0.  0.
        -24    2    4    4    0    0 -0.42797304252E+02 -0.90210874534E+02 -0.11924581507E+04  0.11991852897E+04  0.78225996990E+02 0.  0.
         24    2    4    4    0    0 -0.26307034673E+03 -0.27376488306E+03 -0.29875023609E+02  0.38997164535E+03  0.83857907293E+02 0.  0.
         11    1    3    3    0    0  0.15135947945E+03  0.16154510161E+03 -0.58847296736E+03  0.62873439956E+03  0.00000000000E+00 0.  1.
        -11    1    3    3    0    0  0.15450817153E+03  0.20243065598E+03 -0.43416430724E+03  0.50333844602E+03  0.00000000000E+00 0. -1.
          4    1    6    6  502    0 -0.23041224839E+03 -0.21829980737E+03  0.35964269434E+01  0.31742328899E+03  0.00000000000E+00 0. -1.
          3    1    5    5  503    0 -0.35880370602E+02 -0.21813119922E+02 -0.77224902488E+03  0.77338979152E+03  0.00000000000E+00 0. -1.
         -4    1    5    5    0  503 -0.69169336505E+01 -0.68397754612E+02 -0.42020912583E+03  0.42579549814E+03  0.00000000000E+00 0.  1.
         -3    1    6    6    0  502 -0.32658098340E+02 -0.55465075691E+02 -0.33471450553E+02  0.72548356361E+02  0.00000000000E+00 0.  1.
<mgrwt>
<rscale>  0 0.15379204E+04</rscale>
<asrwt>0</asrwt>
<pdfrwt beam="1">  1        2 0.38201540E+00 0.15379204E+04</pdfrwt>
<pdfrwt beam="2">  1       -2 0.36635333E-01 0.15379204E+04</pdfrwt>
<totfact> 0.24128107E+01</totfact>
</mgrwt>
</event>
<event>
12    1  0.1397649E-007  0.1790288E+04  0.7818608E-02  0.8711481E-01
          1   -1    0    0  501    0  0.00000000000E+00  0.00000000000E+00  0.12734883043E+04  0.12734883043E+04  0.00000000000E+00 0. -1.
         -1   -1    0    0    0  501 -0.00000000000E+00 -0.00000000000E+00 -0.62920293318E+03  0.62920293318E+03  0.00000000000E+00 0.  1.
         23    2    1    2    0    0 -0.16387359088E+02 -0.59283062682E+03  0.55753666035E+03  0.81923814026E+03  0.92667713852E+02 0.  0.
        254    2    1    2    0    0  0.16387359088E+02  0.59283062682E+03  0.86748710745E+02  0.10834530972E+04  0.90256776886E+03 0.  0.
        -24    2    4    4    0    0 -0.26982535460E+03 -0.11487202465E+03  0.86554713073E+02  0.31600002195E+03  0.79768361403E+02 0.  0.
         24    2    4    4    0    0  0.28621271369E+03  0.70770265147E+03  0.19399767213E+00  0.76745307525E+03  0.78888685479E+02 0.  0.
         11    1    3    3    0    0 -0.26096620179E+02 -0.38996213201E+03  0.42133982474E+03  0.57469883061E+03  0.00000000000E+00 0.  1.
        -11    1    3    3    0    0  0.97092610909E+01 -0.20286849480E+03  0.13619683561E+03  0.24453930965E+03  0.00000000000E+00 0. -1.
          2    1    6    6  502    0  0.20640027973E+03  0.59114625720E+03  0.34314736007E+01  0.62615233601E+03  0.00000000000E+00 0. -1.
          3    1    5    5  503    0 -0.18077618501E+03 -0.11113253297E+03  0.79450782494E+02  0.22658970804E+03  0.00000000000E+00 0. -1.
         -4    1    5    5    0  503 -0.89049169599E+02 -0.37394916860E+01  0.71039305792E+01  0.89410313913E+02  0.00000000000E+00 0.  1.
         -1    1    6    6    0  502  0.79812433962E+02  0.11655639427E+03 -0.32374759286E+01  0.14130073924E+03  0.00000000000E+00 0.  1.
<mgrwt>
<rscale>  0 0.17902878E+04</rscale>
<asrwt>0</asrwt>
<pdfrwt beam="1">  1        1 0.19592128E+00 0.17902878E+04</pdfrwt>
<pdfrwt beam="2">  1       -1 0.96800451E-01 0.17902878E+04</pdfrwt>
<totfact> 0.91609370E+00</totfact>
</mgrwt>
</event>
<event>
12    1  0.1397649E-007  0.1176892E+04  0.7818608E-02  0.9133327E-01
         -2   -1    0    0    0  501 -0.00000000000E+00  0.00000000000E+00  0.14441272047E+03  0.14441272047E+03  0.00000000000E+00 0.  1.
          2   -1    0    0  501    0  0.00000000000E+00 -0.00000000000E+00 -0.23977723820E+04  0.23977723820E+04  0.00000000000E+00 0. -1.
         23    2    1    2    0    0  0.39161499877E+02 -0.21618066890E+03 -0.48792938867E+03  0.54294235135E+03  0.91889084696E+02 0.  0.
        254    2    1    2    0    0 -0.39161499877E+02  0.21618066890E+03 -0.17654302729E+04  0.19992427511E+04  0.91211831737E+03 0.  0.
        -24    2    4    4    0    0  0.69640866559E+02  0.30073584860E+03 -0.11249908585E+03  0.33860696962E+03  0.81894655693E+02 0.  0.
         24    2    4    4    0    0 -0.10880236644E+03 -0.84555179692E+02 -0.16529311870E+04  0.16606357815E+04  0.80883598198E+02 0.  0.
         11    1    3    3    0    0  0.18120699314E+02 -0.96646279268E+02 -0.11793809630E+03  0.15355213316E+03  0.00000000000E+00 0.  1.
        -11    1    3    3    0    0  0.21040800563E+02 -0.11953438964E+03 -0.36999129237E+03  0.38939021819E+03  0.00000000000E+00 0. -1.
          2    1    6    6  502    0 -0.12185722739E+03 -0.72161135196E+02 -0.14886677689E+04  0.14953889593E+04  0.00000000000E+00 0. -1.
          1    1    5    5  503    0  0.63191827466E+02  0.27695207210E+03 -0.75117566918E+02  0.29383380704E+03  0.00000000000E+00 0. -1.
         -2    1    5    5    0  503  0.64490390926E+01  0.23783776495E+02 -0.37381518934E+02  0.44773162580E+02  0.00000000000E+00 0.  1.
         -1    1    6    6    0  502  0.13054860951E+02 -0.12394044495E+02 -0.16426341808E+03  0.16524682222E+03  0.00000000000E+00 0.  1.
<mgrwt>
<rscale>  0 0.11768922E+04</rscale>
<asrwt>0</asrwt>
<pdfrwt beam="1">  1        2 0.36888802E+00 0.11768922E+04</pdfrwt>
<pdfrwt beam="2">  1       -2 0.22217344E-01 0.11768922E+04</pdfrwt>
<totfact> 0.70292087E+01</totfact>
</mgrwt>
</event>
<event>
12    1  0.1397649E-007  0.1559375E+04  0.7818608E-02  0.8845901E-01
          2   -1    0    0  501    0  0.00000000000E+00  0.00000000000E+00  0.15679502610E+04  0.15679502610E+04  0.00000000000E+00 0. -1.
         -2   -1    0    0    0  501 -0.00000000000E+00 -0.00000000000E+00 -0.38771181143E+03  0.38771181143E+03  0.00000000000E+00 0.  1.
         23    2    1    2    0    0  0.47815196145E+02  0.52167004871E+02 -0.24428678852E+03  0.27001556972E+03  0.90690040609E+02 0.  0.
        254    2    1    2    0    0 -0.47815196145E+02 -0.52167004871E+02  0.14245252381E+04  0.16856465027E+04  0.89840096216E+03 0.  0.
        -24    2    4    4    0    0 -0.39114048894E+03  0.10098787407E+03  0.11263451332E+04  0.11993062998E+04  0.80577966876E+02 0.  0.
         24    2    4    4    0    0  0.34332529279E+03 -0.15315487894E+03  0.29818010489E+03  0.48634020297E+03  0.79288993322E+02 0.  0.
         13    1    3    3    0    0  0.26573841486E+02  0.16039697198E+02 -0.10902683000E+02  0.32898471608E+02  0.00000000000E+00 0. -1.
        -13    1    3    3    0    0  0.21241354659E+02  0.36127307673E+02 -0.23338410552E+03  0.23711709811E+03  0.00000000000E+00 0.  1.
          4    1    6    6  502    0  0.19265084498E+03 -0.49615358183E+02  0.12791029639E+03  0.23651020224E+03  0.00000000000E+00 0. -1.
          1    1    5    5  503    0 -0.17702311064E+03  0.52382396821E+02  0.40093226303E+03  0.44139299579E+03  0.00000000000E+00 0. -1.
         -2    1    5    5    0  503 -0.21411737830E+03  0.48605477245E+02  0.72541287018E+03  0.75791330397E+03  0.00000000000E+00 0.  1.
         -3    1    6    6    0  502  0.15067444781E+03 -0.10353952075E+03  0.17026980850E+03  0.24983000073E+03  0.00000000000E+00 0.  1.
<mgrwt>
<rscale>  0 0.15593753E+04</rscale>
<asrwt>0</asrwt>
<pdfrwt beam="1">  1        2 0.24122311E+00 0.15593753E+04</pdfrwt>
<pdfrwt beam="2">  1       -2 0.59647972E-01 0.15593753E+04</pdfrwt>
<totfact> 0.29314611E+01</totfact>
</mgrwt>
</event>
<event>
12    1  0.1397649E-007  0.2002835E+04  0.7818608E-02  0.8605296E-01
         -1   -1    0    0    0  501 -0.00000000000E+00  0.00000000000E+00  0.94793202531E+03  0.94793202531E+03  0.00000000000E+00 0.  1.
          1   -1    0    0  501    0  0.00000000000E+00 -0.00000000000E+00 -0.10579210327E+04  0.10579210327E+04  0.00000000000E+00 0. -1.
         23    2    1    2    0    0 -0.16693955502E+03 -0.32618047847E+03 -0.76250667396E+03  0.85082232337E+03  0.90662442842E+02 0.  0.
        254    2    1    2    0    0  0.16693955502E+03  0.32618047847E+03  0.65251766653E+03  0.11550307347E+04  0.87980348565E+03 0.  0.
        -24    2    4    4    0    0  0.15032294128E+03 -0.20755190215E+03 -0.46200339419E+02  0.27197531011E+03  0.78494070993E+02 0.  0.
         24    2    4    4    0    0  0.16616613735E+02  0.53373238062E+03  0.69871800595E+03  0.88305542458E+03  0.80210130640E+02 0.  0.
         13    1    3    3    0    0 -0.16987668440E+03 -0.29839642043E+03 -0.65257442937E+03  0.73739534681E+03  0.00000000000E+00 0. -1.
        -13    1    3    3    0    0  0.29371293838E+01 -0.27784058035E+02 -0.10993224459E+03  0.11342697656E+03  0.00000000000E+00 0.  1.
          2    1    6    6  502    0  0.16316762978E+02  0.30007183468E+02  0.27530588233E+02  0.43870275839E+02  0.00000000000E+00 0. -1.
          1    1    5    5  503    0  0.85793113824E+01  0.38222150077E+01 -0.11921942371E+02  0.15177174350E+02  0.00000000000E+00 0. -1.
         -2    1    5    5    0  503  0.14174362990E+03 -0.21137411716E+03 -0.34278397048E+02  0.25679813575E+03  0.00000000000E+00 0.  1.
         -1    1    6    6    0  502  0.29985075718E+00  0.50372519716E+03  0.67118741772E+03  0.83918514874E+03  0.00000000000E+00 0.  1.
<mgrwt>
<rscale>  0 0.20028352E+04</rscale>
<asrwt>0</asrwt>
<pdfrwt beam="1">  1        1 0.16275708E+00 0.20028352E+04</pdfrwt>
<pdfrwt beam="2">  1       -1 0.14583570E+00 0.20028352E+04</pdfrwt>
<totfact> 0.47628465E+00</totfact>
</mgrwt>
</event>
<event>
12    1  0.1397649E-007  0.1081845E+04  0.7818608E-02  0.9223070E-01
          2   -1    0    0  501    0  0.00000000000E+00  0.00000000000E+00  0.12145118202E+04  0.12145118202E+04  0.00000000000E+00 0.  1.
         -2   -1    0    0    0  501 -0.00000000000E+00 -0.00000000000E+00 -0.24091753439E+03  0.24091753439E+03  0.00000000000E+00 0. -1.
         23    2    1    2    0    0  0.79530668482E+02  0.11434702187E+03  0.86156124067E+02  0.18366770198E+03  0.83129888711E+02 0.  0.
        254    2    1    2    0    0 -0.79530668482E+02 -0.11434702187E+03  0.88743816173E+03  0.12717616526E+04  0.90023932455E+03 0.  0.
        -24    2    4    4    0    0  0.37991675633E+03 -0.12481882822E+03  0.23783392994E+03  0.47200249192E+03  0.79403353368E+02 0.  0.
         24    2    4    4    0    0 -0.45944742481E+03  0.10471806359E+02  0.64960423179E+03  0.79975916067E+03  0.80171455142E+02 0.  0.
         13    1    3    3    0    0  0.43071918325E+02  0.39426117103E+02  0.81444213364E+02  0.10021361558E+03  0.00000000000E+00 0.  1.
        -13    1    3    3    0    0  0.36458750157E+02  0.74920904762E+02  0.47119107027E+01  0.83454086394E+02  0.00000000000E+00 0. -1.
          2    1    6    6  502    0 -0.32646949223E+03 -0.23192237291E+02  0.42246099356E+03  0.53440948748E+03  0.00000000000E+00 0. -1.
          3    1    5    5  503    0  0.39336877205E+01 -0.13248596108E+02  0.17021192924E+02  0.21925332528E+02  0.00000000000E+00 0. -1.
         -4    1    5    5    0  503  0.37598306861E+03 -0.11157023212E+03  0.22081273702E+03  0.45007715939E+03  0.00000000000E+00 0.  1.
         -1    1    6    6    0  502 -0.13297793259E+03  0.33664043650E+02  0.22714323823E+03  0.26534967320E+03  0.00000000000E+00 0.  1.
<mgrwt>
<rscale>  0 0.10818451E+04</rscale>
<asrwt>0</asrwt>
<pdfrwt beam="1">  1        2 0.18684797E+00 0.10818451E+04</pdfrwt>
<pdfrwt beam="2">  1       -2 0.37064237E-01 0.10818451E+04</pdfrwt>
<totfact> 0.12648151E+02</totfact>
</mgrwt>
</event>
<event>
12    1  0.1397649E-007  0.1307526E+04  0.7818608E-02  0.9023618E-01
          1   -1    0    0  501    0  0.00000000000E+00  0.00000000000E+00  0.45235913302E+03  0.45235913302E+03  0.00000000000E+00 0. -1.
         -1   -1    0    0    0  501 -0.00000000000E+00 -0.00000000000E+00 -0.94483759640E+03  0.94483759640E+03  0.00000000000E+00 0.  1.
         23    2    1    2    0    0 -0.23475651212E+03 -0.11104950017E+03  0.87492024150E+02  0.28950493682E+03  0.93357606451E+02 0.  0.
        254    2    1    2    0    0  0.23475651212E+03  0.11104950017E+03 -0.57997048753E+03  0.11076917926E+04  0.90728866934E+03 0.  0.
        -24    2    4    4    0    0  0.29567511276E+03 -0.33398336867E+03 -0.14114218806E+03  0.47478824032E+03  0.80833737074E+02 0.  0.
         24    2    4    4    0    0 -0.60918600639E+02  0.44503286884E+03 -0.43882829947E+03  0.63290355228E+03  0.78938582573E+02 0.  0.
         11    1    3    3    0    0 -0.25063497969E+02 -0.44830398309E+01  0.43211877436E+02  0.50155188447E+02  0.00000000000E+00 0.  1.
        -11    1    3    3    0    0 -0.20969301415E+03 -0.10656646034E+03  0.44280146714E+02  0.23934974837E+03  0.00000000000E+00 0. -1.
          2    1    6    6  502    0  0.13350527572E+02  0.81069527856E+02 -0.10625432829E+03  0.13431488083E+03  0.00000000000E+00 0. -1.
          1    1    5    5  503    0  0.23712390392E+03 -0.22978765861E+03 -0.12957170659E+03  0.35470965733E+03  0.00000000000E+00 0. -1.
         -2    1    5    5    0  503  0.58551208845E+02 -0.10419571006E+03 -0.11570481467E+02  0.12007858299E+03  0.00000000000E+00 0.  1.
         -1    1    6    6    0  502 -0.74269128211E+02  0.36396334098E+03 -0.33257397118E+03  0.49858867144E+03  0.00000000000E+00 0.  1.
<mgrwt>
<rscale>  0 0.13075258E+04</rscale>
<asrwt>0</asrwt>
<pdfrwt beam="1">  1        1 0.69593713E-01 0.13075258E+04</pdfrwt>
<pdfrwt beam="2">  1       -1 0.14535963E+00 0.13075258E+04</pdfrwt>
<totfact> 0.18952392E+01</totfact>
</mgrwt>
</event>
<event>
12    1  0.1397649E-007  0.1599115E+04  0.7818608E-02  0.8821092E-01
         -1   -1    0    0    0  501 -0.00000000000E+00  0.00000000000E+00  0.28195041614E+03  0.28195041614E+03  0.00000000000E+00 0.  1.
          1   -1    0    0  501    0  0.00000000000E+00 -0.00000000000E+00 -0.22673933166E+04  0.22673933166E+04  0.00000000000E+00 0. -1.
         23    2    1    2    0    0  0.44851006913E+02  0.10030043584E+03 -0.15427638357E+04  0.15491130196E+04  0.86943110395E+02 0.  0.
        254    2    1    2    0    0 -0.44851006913E+02 -0.10030043584E+03 -0.44267906473E+03  0.10002307131E+04  0.89018252896E+03 0.  0.
        -24    2    4    4    0    0 -0.12726029553E+03  0.23783504145E+03  0.14431741430E+03  0.31428726824E+03  0.72029724059E+02 0.  0.
         24    2    4    4    0    0  0.82409288618E+02 -0.33813547729E+03 -0.58699647903E+03  0.68594344488E+03  0.69474105509E+02 0.  0.
         11    1    3    3    0    0  0.37922875127E+02  0.70859972777E+02 -0.54531066835E+03  0.55120141982E+03  0.00000000000E+00 0.  1.
        -11    1    3    3    0    0  0.69281317863E+01  0.29440463060E+02 -0.99745316734E+03  0.99791159974E+03  0.00000000000E+00 0. -1.
          4    1    6    6  502    0  0.17055923785E+02 -0.19509354447E+03 -0.35950610073E+03  0.40938616500E+03  0.00000000000E+00 0. -1.
          3    1    5    5  503    0 -0.93131614813E+02  0.20794583631E+03  0.14279198296E+03  0.26889499607E+03  0.00000000000E+00 0. -1.
         -4    1    5    5    0  503 -0.34128680718E+02  0.29889205143E+02  0.15254313343E+01  0.45392272166E+02  0.00000000000E+00 0.  1.
         -3    1    6    6    0  502  0.65353364832E+02 -0.14304193282E+03 -0.22749037830E+03  0.27655727989E+03  0.00000000000E+00 0.  1.
<mgrwt>
<rscale>  0 0.15991154E+04</rscale>
<asrwt>0</asrwt>
<pdfrwt beam="1">  1        1 0.34882973E+00 0.15991154E+04</pdfrwt>
<pdfrwt beam="2">  1       -1 0.43376989E-01 0.15991154E+04</pdfrwt>
<totfact> 0.98720876E+00</totfact>
</mgrwt>
</event>
<event>
12    1  0.1397649E-007  0.1566062E+04  0.7818608E-02  0.8841673E-01
         -2   -1    0    0    0  501 -0.00000000000E+00  0.00000000000E+00  0.31978240019E+03  0.31978240019E+03  0.00000000000E+00 0.  1.
          2   -1    0    0  501    0  0.00000000000E+00 -0.00000000000E+00 -0.19173591778E+04  0.19173591778E+04  0.00000000000E+00 0. -1.
         23    2    1    2    0    0  0.36363387271E+03  0.24645613946E+03 -0.14362721362E+03  0.47201502470E+03  0.95912381809E+02 0.  0.
        254    2    1    2    0    0 -0.36363387271E+03 -0.24645613946E+03 -0.14539495640E+04  0.17651265533E+04  0.89929538666E+03 0.  0.
        -24    2    4    4    0    0 -0.46690030158E+03 -0.48558179414E+03 -0.12587528757E+04  0.14299748816E+04  0.81140554029E+02 0.  0.
         24    2    4    4    0    0  0.10326642886E+03  0.23912565468E+03 -0.19519668834E+03  0.33515167175E+03  0.79874037585E+02 0.  0.
         11    1    3    3    0    0  0.17182390414E+03  0.16191173053E+03 -0.10707035917E+03  0.25923526830E+03  0.00000000000E+00 0. -1.
        -11    1    3    3    0    0  0.19180996857E+03  0.84544408932E+02 -0.36556854450E+02  0.21277975640E+03  0.00000000000E+00 0.  1.
          2    1    6    6  502    0  0.99641916578E+02  0.23570662902E+03 -0.20248538837E+03  0.32632263025E+03  0.00000000000E+00 0. -1.
          1    1    5    5  503    0 -0.34665361164E+03 -0.36123455691E+03 -0.85628561318E+03  0.99190936224E+03  0.00000000000E+00 0. -1.
         -4    1    5    5    0  503 -0.12024668994E+03 -0.12434723723E+03 -0.40246726250E+03  0.43806551934E+03  0.00000000000E+00 0.  1.
         -1    1    6    6    0  502  0.36245122838E+01  0.34190256519E+01  0.72887000302E+01  0.88290415015E+01  0.00000000000E+00 0.  1.
<mgrwt>
<rscale>  0 0.15660622E+04</rscale>
<asrwt>0</asrwt>
<pdfrwt beam="1">  1        2 0.29497834E+00 0.15660622E+04</pdfrwt>
<pdfrwt beam="2">  1       -2 0.49197292E-01 0.15660622E+04</pdfrwt>
<totfact> 0.27930074E+01</totfact>
</mgrwt>
</event>
<event>
12    1  0.1397649E-007  0.1120826E+04  0.7818608E-02  0.9185128E-01
         -1   -1    0    0    0  501 -0.00000000000E+00  0.00000000000E+00  0.19266408958E+03  0.19266408958E+03  0.00000000000E+00 0.  1.
          1   -1    0    0  501    0  0.00000000000E+00 -0.00000000000E+00 -0.16301056081E+04  0.16301056081E+04  0.00000000000E+00 0. -1.
         23    2    1    2    0    0  0.32008702111E+02  0.73019538713E+02  0.36133742277E+01  0.12208331770E+03  0.92384359834E+02 0.  0.
        254    2    1    2    0    0 -0.32008702111E+02 -0.73019538713E+02 -0.14410548927E+04  0.17006863799E+04  0.89963245222E+03 0.  0.
        -24    2    4    4    0    0  0.55155161412E+02  0.34155931914E+03 -0.25297313118E+03  0.43663427253E+03  0.83361996897E+02 0.  0.
         24    2    4    4    0    0 -0.87163863523E+02 -0.41457885785E+03 -0.11880817615E+04  0.12640521074E+04  0.82560824346E+02 0.  0.
         11    1    3    3    0    0  0.16674869090E+02  0.69973486581E+02 -0.35314178381E+02  0.80133833542E+02  0.00000000000E+00 0. -1.
        -11    1    3    3    0    0  0.15333833021E+02  0.30460521318E+01  0.38927552609E+02  0.41949484155E+02  0.00000000000E+00 0.  1.
          4    1    6    6  502    0 -0.42322883048E+02 -0.99468145281E+02 -0.39393062380E+03  0.40849293106E+03  0.00000000000E+00 0. -1.
          3    1    5    5  503    0 -0.85008171685E+01  0.33353697826E+02 -0.54843018233E+02  0.64749437836E+02  0.00000000000E+00 0. -1.
         -4    1    5    5    0  503  0.63655978580E+02  0.30820562131E+03 -0.19813011295E+03  0.37188483469E+03  0.00000000000E+00 0.  1.
         -3    1    6    6    0  502 -0.44840980475E+02 -0.31511071257E+03 -0.79415113771E+03  0.85555917635E+03  0.00000000000E+00 0.  1.
<mgrwt>
<rscale>  0 0.11208261E+04</rscale>
<asrwt>0</asrwt>
<pdfrwt beam="1">  1        1 0.25078547E+00 0.11208261E+04</pdfrwt>
<pdfrwt beam="2">  1       -1 0.29640630E-01 0.11208261E+04</pdfrwt>
<totfact> 0.55196440E+01</totfact>
</mgrwt>
</event>
<event>
12    1  0.1397649E-007  0.1801512E+04  0.7818608E-02  0.8705496E-01
         -1   -1    0    0    0  501 -0.00000000000E+00  0.00000000000E+00  0.46358040638E+03  0.46358040638E+03  0.00000000000E+00 0. -1.
          1   -1    0    0  501    0  0.00000000000E+00 -0.00000000000E+00 -0.17502070465E+04  0.17502070465E+04  0.00000000000E+00 0.  1.
         23    2    1    2    0    0  0.36907886911E+03 -0.44720731577E+03 -0.62270643478E+02  0.59015310720E+03  0.90495646336E+02 0.  0.
        254    2    1    2    0    0 -0.36907886911E+03  0.44720731577E+03 -0.12243559966E+04  0.16236343456E+04  0.89494541008E+03 0.  0.
        -24    2    4    4    0    0  0.99686457742E+02  0.11177777998E+03 -0.97601299933E+03  0.99106889760E+03  0.84761565400E+02 0.  0.
         24    2    4    4    0    0 -0.46876532685E+03  0.33542953579E+03 -0.24834299729E+03  0.63256544805E+03  0.78809242043E+02 0.  0.
         11    1    3    3    0    0  0.19702211407E+03 -0.20313179157E+03  0.90540697474E+01  0.28312932444E+03  0.00000000000E+00 0. -1.
        -11    1    3    3    0    0  0.17205675504E+03 -0.24407552419E+03 -0.71324713225E+02  0.30702378276E+03  0.00000000000E+00 0.  1.
          4    1    6    6  502    0 -0.68090454212E+02  0.41802858240E+02 -0.65228113317E+02  0.10314308352E+03  0.00000000000E+00 0. -1.
          1    1    5    5  503    0  0.35755496374E+02  0.28285178245E+02 -0.11578765612E+03  0.12443989770E+03  0.00000000000E+00 0. -1.
         -2    1    5    5    0  503  0.63930961368E+02  0.83492601733E+02 -0.86022534321E+03  0.86662899990E+03  0.00000000000E+00 0.  1.
         -3    1    6    6    0  502 -0.40067487264E+03  0.29362667755E+03 -0.18311488397E+03  0.52942236453E+03  0.00000000000E+00 0.  1.
<mgrwt>
<rscale>  0 0.18015124E+04</rscale>
<asrwt>0</asrwt>
<pdfrwt beam="1">  1        1 0.26926262E+00 0.18015124E+04</pdfrwt>
<pdfrwt beam="2">  1       -1 0.71320062E-01 0.18015124E+04</pdfrwt>
<totfact> 0.82497195E+00</totfact>
</mgrwt>
</event>
<event>
12    1  0.1397649E-007  0.1426166E+04  0.7818608E-02  0.8935093E-01
         -1   -1    0    0    0  501 -0.00000000000E+00  0.00000000000E+00  0.35286502143E+03  0.35286502143E+03  0.00000000000E+00 0.  1.
          1   -1    0    0  501    0  0.00000000000E+00 -0.00000000000E+00 -0.14410254584E+04  0.14410254584E+04  0.00000000000E+00 0. -1.
         23    2    1    2    0    0  0.11152066966E+03  0.40901551771E+03 -0.37943668469E+03  0.57617812617E+03  0.90986163209E+02 0.  0.
        254    2    1    2    0    0 -0.11152066966E+03 -0.40901551771E+03 -0.70872375223E+03  0.12177123536E+04  0.89487622925E+03 0.  0.
        -24    2    4    4    0    0  0.35333225006E+03 -0.28467128020E+03 -0.16986749507E+03  0.49086613882E+03  0.78823750567E+02 0.  0.
         24    2    4    4    0    0 -0.46485291972E+03 -0.12434423751E+03 -0.53885625715E+03  0.72684621480E+03  0.79935146943E+02 0.  0.
         11    1    3    3    0    0 -0.17943280393E+01  0.11347945947E+03 -0.68928604424E+02  0.13278539017E+03  0.00000000000E+00 0.  1.
        -11    1    3    3    0    0  0.11331499770E+03  0.29553605823E+03 -0.31050808027E+03  0.44339273599E+03  0.00000000000E+00 0. -1.
          2    1    6    6  502    0 -0.42512473785E+03 -0.12159345576E+03 -0.52060026577E+03  0.68303780857E+03  0.00000000000E+00 0. -1.
          3    1    5    5  503    0  0.24502976500E+03 -0.15392127467E+03 -0.12535072880E+03  0.31534766487E+03  0.00000000000E+00 0. -1.
         -2    1    5    5    0  503  0.10830248506E+03 -0.13075000553E+03 -0.44516766277E+02  0.17551847395E+03  0.00000000000E+00 0.  1.
         -1    1    6    6    0  502 -0.39728181868E+02 -0.27507817478E+01 -0.18255991388E+02  0.43808406229E+02  0.00000000000E+00 0.  1.
<mgrwt>
<rscale>  0 0.14261662E+04</rscale>
<asrwt>0</asrwt>
<pdfrwt beam="1">  1        1 0.22169623E+00 0.14261662E+04</pdfrwt>
<pdfrwt beam="2">  1       -1 0.54286925E-01 0.14261662E+04</pdfrwt>
<totfact> 0.23974614E+01</totfact>
</mgrwt>
</event>
<event>
12    1  0.1397649E-007  0.1184114E+04  0.7818608E-02  0.9126876E-01
         -2   -1    0    0    0  501 -0.00000000000E+00  0.00000000000E+00  0.18593739332E+03  0.18593739332E+03  0.00000000000E+00 0.  1.
          2   -1    0    0  501    0  0.00000000000E+00 -0.00000000000E+00 -0.18852121991E+04  0.18852121991E+04  0.00000000000E+00 0. -1.
         23    2    1    2    0    0 -0.15823715396E+03 -0.15590218099E+03 -0.27599793046E+03  0.36582319743E+03  0.91144211134E+02 0.  0.
        254    2    1    2    0    0  0.15823715396E+03  0.15590218099E+03 -0.14232768754E+04  0.17053263950E+04  0.91273027928E+03 0.  0.
        -24    2    4    4    0    0 -0.39506904893E+02 -0.11179399474E+03  0.81094513103E+02  0.16254919401E+03  0.76073830074E+02 0.  0.
         24    2    4    4    0    0  0.19774405886E+03  0.26769617573E+03 -0.15043713885E+04  0.15427772010E+04  0.79147092499E+02 0.  0.
         13    1    3    3    0    0 -0.83032611336E+02 -0.73407092957E+02 -0.68741382358E+02  0.13041623170E+03  0.00000000000E+00 0.  1.
        -13    1    3    3    0    0 -0.75204542627E+02 -0.82495088038E+02 -0.20725654810E+03  0.23540696573E+03  0.00000000000E+00 0. -1.
          2    1    6    6  502    0  0.44223612667E+02  0.93846818363E+02 -0.61350398585E+03  0.62221386507E+03  0.00000000000E+00 0. -1.
          1    1    5    5  503    0 -0.23922865072E+02 -0.46369714322E+02  0.79724024408E+02  0.95280501402E+02  0.00000000000E+00 0. -1.
         -2    1    5    5    0  503 -0.15584039821E+02 -0.65424280417E+02  0.13704886949E+01  0.67268692603E+02  0.00000000000E+00 0.  1.
         -1    1    6    6    0  502  0.15352044619E+03  0.17384935737E+03 -0.89086740262E+03  0.92056333596E+03  0.00000000000E+00 0.  1.
<mgrwt>
<rscale>  0 0.11841139E+04</rscale>
<asrwt>0</asrwt>
<pdfrwt beam="1">  1        2 0.29003264E+00 0.11841139E+04</pdfrwt>
<pdfrwt beam="2">  1       -2 0.28605753E-01 0.11841139E+04</pdfrwt>
<totfact> 0.85701432E+01</totfact>
</mgrwt>
</event>
<event>
12    1  0.1397649E-007  0.1769496E+04  0.7818608E-02  0.8722692E-01
          2   -1    0    0  501    0  0.00000000000E+00  0.00000000000E+00  0.68967469200E+03  0.68967469200E+03  0.00000000000E+00 0. -1.
         -2   -1    0    0    0  501 -0.00000000000E+00 -0.00000000000E+00 -0.11349970104E+04  0.11349970104E+04  0.00000000000E+00 0.  1.
         23    2    1    2    0    0  0.55950817657E+03 -0.15085890395E+03 -0.47810377784E+03  0.75710434396E+03  0.93893326221E+02 0.  0.
        254    2    1    2    0    0 -0.55950817657E+03  0.15085890395E+03  0.32781459421E+02  0.10675673585E+04  0.89600091085E+03 0.  0.
        -24    2    4    4    0    0 -0.58861775942E+03  0.11195751989E+03  0.37595040711E+03  0.71190835541E+03  0.80432859752E+02 0.  0.
         24    2    4    4    0    0  0.29109582853E+02  0.38901384063E+02 -0.34316894769E+03  0.35565900306E+03  0.79797959290E+02 0.  0.
         13    1    3    3    0    0  0.15067173253E+02  0.97449885852E+01 -0.25161316607E+02  0.30904309825E+02  0.00000000000E+00 0. -1.
        -13    1    3    3    0    0  0.54444100331E+03 -0.16060389254E+03 -0.45294246124E+03  0.72620003413E+03  0.00000000000E+00 0.  1.
          2    1    6    6  502    0  0.22120362448E+02 -0.16031952630E+02 -0.47045937056E+02  0.54402703365E+02  0.00000000000E+00 0. -1.
          3    1    5    5  503    0 -0.22893720035E+03  0.51764992560E+02  0.10264583418E+03  0.25617967022E+03  0.00000000000E+00 0. -1.
         -4    1    5    5    0  503 -0.35968055907E+03  0.60192527328E+02  0.27330457293E+03  0.45572868519E+03  0.00000000000E+00 0.  1.
         -1    1    6    6    0  502  0.69892204047E+01  0.54933336693E+02 -0.29612301063E+03  0.30125629970E+03  0.00000000000E+00 0.  1.
<mgrwt>
<rscale>  0 0.17694956E+04</rscale>
<asrwt>0</asrwt>
<pdfrwt beam="1">  1        2 0.10610380E+00 0.17694956E+04</pdfrwt>
<pdfrwt beam="2">  1       -2 0.17461492E+00 0.17694956E+04</pdfrwt>
<totfact> 0.78059599E+00</totfact>
</mgrwt>
</event>
<event>
12    1  0.1397649E-007  0.1266236E+04  0.7818608E-02  0.9056777E-01
          1   -1    0    0  501    0  0.00000000000E+00  0.00000000000E+00  0.65487329985E+03  0.65487329985E+03  0.00000000000E+00 0. -1.
         -1   -1    0    0    0  501 -0.00000000000E+00 -0.00000000000E+00 -0.61208524565E+03  0.61208524565E+03  0.00000000000E+00 0.  1.
         23    2    1    2    0    0  0.23713278390E+03 -0.84872991125E+01  0.21146439837E+03  0.33063824913E+03  0.91106907316E+02 0.  0.
        254    2    1    2    0    0 -0.23713278390E+03  0.84872991125E+01 -0.16867634417E+03  0.93632029636E+03  0.88991010605E+03 0.  0.
        -24    2    4    4    0    0 -0.41703916441E+03  0.15519539739E+03 -0.39527913906E+03  0.60038462314E+03  0.78796078009E+02 0.  0.
         24    2    4    4    0    0  0.17990638050E+03 -0.14670809828E+03  0.22660279488E+03  0.33593567322E+03  0.87260403676E+02 0.  0.
         13    1    3    3    0    0  0.22570760770E+03  0.10485907242E+02  0.20995444819E+03  0.30843921401E+03  0.00000000000E+00 0. -1.
        -13    1    3    3    0    0  0.11425176202E+02 -0.18973206354E+02  0.15099501810E+01  0.22199035118E+02  0.00000000000E+00 0.  1.
          4    1    6    6  502    0  0.11109899047E+03 -0.34535376163E+02  0.10257991953E+03  0.15510743947E+03  0.00000000000E+00 0. -1.
          1    1    5    5  503    0 -0.38956610902E+03  0.12078274035E+03 -0.35782442372E+03  0.54257583974E+03  0.00000000000E+00 0. -1.
         -4    1    5    5    0  503 -0.27473055389E+02  0.34412657040E+02 -0.37454715340E+02  0.57808783400E+02  0.00000000000E+00 0.  1.
         -3    1    6    6    0  502  0.68807390034E+02 -0.11217272211E+03  0.12402287535E+03  0.18082823375E+03  0.00000000000E+00 0.  1.
<mgrwt>
<rscale>  0 0.12662358E+04</rscale>
<asrwt>0</asrwt>
<pdfrwt beam="1">  1        1 0.10074974E+00 0.12662358E+04</pdfrwt>
<pdfrwt beam="2">  1       -1 0.94166961E-01 0.12662358E+04</pdfrwt>
<totfact> 0.32418924E+01</totfact>
</mgrwt>
</event>
<event>
12    1  0.1397649E-007  0.1583403E+04  0.7818608E-02  0.8830810E-01
          2   -1    0    0  501    0  0.00000000000E+00  0.00000000000E+00  0.16431824373E+04  0.16431824373E+04  0.00000000000E+00 0.  1.
         -2   -1    0    0    0  501 -0.00000000000E+00 -0.00000000000E+00 -0.38144938868E+03  0.38144938868E+03  0.00000000000E+00 0. -1.
         23    2    1    2    0    0 -0.48454537208E+03 -0.13147865845E+03  0.64988657574E+03  0.82630152227E+03  0.91382652315E+02 0.  0.
        254    2    1    2    0    0  0.48454537208E+03  0.13147865845E+03  0.61184647289E+03  0.11983303037E+04  0.89976027653E+03 0.  0.
        -24    2    4    4    0    0  0.32612409317E+03 -0.17428203407E+03 -0.11066147406E+03  0.39384899055E+03  0.78357603158E+02 0.  0.
         24    2    4    4    0    0  0.15842127891E+03  0.30576069252E+03  0.72250794695E+03  0.80448131318E+03  0.81151384086E+02 0.  0.
         11    1    3    3    0    0 -0.23842296603E+03 -0.60809326737E+02  0.39239012696E+03  0.46315580174E+03  0.00000000000E+00 0.  1.
        -11    1    3    3    0    0 -0.24612240605E+03 -0.70669331713E+02  0.25749644878E+03  0.36314572053E+03  0.00000000000E+00 0. -1.
          2    1    6    6  502    0  0.88473983861E+02  0.18513402755E+03  0.51604601600E+03  0.55534290723E+03  0.00000000000E+00 0. -1.
          3    1    5    5  503    0  0.31347972813E+03 -0.18247106295E+03 -0.10870359274E+03  0.37865776084E+03  0.00000000000E+00 0. -1.
         -4    1    5    5    0  503  0.12644365035E+02  0.81890288777E+01 -0.19578813172E+01  0.15191229718E+02  0.00000000000E+00 0.  1.
         -1    1    6    6    0  502  0.69947295046E+02  0.12062666498E+03  0.20646193095E+03  0.24913840595E+03  0.00000000000E+00 0.  1.
<mgrwt>
<rscale>  0 0.15834026E+04</rscale>
<asrwt>0</asrwt>
<pdfrwt beam="1">  1        2 0.25279729E+00 0.15834026E+04</pdfrwt>
<pdfrwt beam="2">  1       -2 0.58684522E-01 0.15834026E+04</pdfrwt>
<totfact> 0.27486115E+01</totfact>
</mgrwt>
</event>
<event>
12    1  0.1397649E-007  0.1779774E+04  0.7818608E-02  0.8717130E-01
         -1   -1    0    0    0  501 -0.00000000000E+00  0.00000000000E+00  0.33302625210E+03  0.33302625210E+03  0.00000000000E+00 0.  1.
          1   -1    0    0  501    0  0.00000000000E+00 -0.00000000000E+00 -0.23778860642E+04  0.23778860642E+04  0.00000000000E+00 0. -1.
         23    2    1    2    0    0  0.26074859387E+03  0.11963799232E+03  0.13714314575E+03  0.32951252875E+03  0.86412879608E+02 0.  0.
        254    2    1    2    0    0 -0.26074859387E+03 -0.11963799232E+03 -0.21820029579E+04  0.23813997876E+04  0.90973895247E+03 0.  0.
        -24    2    4    4    0    0  0.11951224518E+03 -0.34521317556E+03 -0.41899102828E+03  0.56211005555E+03  0.83420138127E+02 0.  0.
         24    2    4    4    0    0 -0.38026083906E+03  0.22557518324E+03 -0.17630119296E+04  0.18192897320E+04  0.78240629457E+02 0.  0.
         13    1    3    3    0    0  0.36769076720E+02  0.46338324344E+02  0.52540401267E+02  0.79118260036E+02  0.00000000000E+00 0. -1.
        -13    1    3    3    0    0  0.22397951715E+03  0.73299667977E+02  0.84602744486E+02  0.25039426871E+03  0.00000000000E+00 0.  1.
          2    1    6    6  502    0 -0.22779890491E+02 -0.23952212389E+01 -0.58167617185E+02  0.62515055663E+02  0.00000000000E+00 0. -1.
          1    1    5    5  503    0  0.37669201227E+02 -0.97021716498E+02 -0.18025193807E+03  0.20814164257E+03  0.00000000000E+00 0. -1.
         -2    1    5    5    0  503  0.81843043958E+02 -0.24819145906E+03 -0.23873909021E+03  0.35396841298E+03  0.00000000000E+00 0.  1.
         -1    1    6    6    0  502 -0.35748094857E+03  0.22797040448E+03 -0.17048443124E+04  0.17567746764E+04  0.00000000000E+00 0.  1.
<mgrwt>
<rscale>  0 0.17797736E+04</rscale>
<asrwt>0</asrwt>
<pdfrwt beam="1">  1        1 0.36582861E+00 0.17797736E+04</pdfrwt>
<pdfrwt beam="2">  1       -1 0.51234810E-01 0.17797736E+04</pdfrwt>
<totfact> 0.59633970E+00</totfact>
</mgrwt>
</event>
<event>
12    1  0.1498978E-007  0.1495337E+04  0.7818608E-02  0.8887560E-01
          1   -1    0    0  501    0  0.00000000000E+00  0.00000000000E+00  0.13894260851E+04  0.13894260851E+04  0.00000000000E+00 0. -1.
         -1   -1    0    0    0  501 -0.00000000000E+00 -0.00000000000E+00 -0.40233014107E+03  0.40233014107E+03  0.00000000000E+00 0.  1.
         23    2    1    2    0    0  0.38474226757E+03  0.28295597151E+03  0.30681235402E+03  0.57493653525E+03  0.91255162656E+02 0.  0.
        254    2    1    2    0    0 -0.38474226757E+03 -0.28295597151E+03  0.68028359003E+03  0.12168196909E+04  0.88869213067E+03 0.  0.
        -24    2    4    4    0    0 -0.62394200795E+03 -0.34673777581E+03  0.35861139915E+03  0.80285344659E+03  0.80254636304E+02 0.  0.
         24    2    4    4    0    0  0.23919974037E+03  0.63781804297E+02  0.32167219089E+03  0.41396624435E+03  0.81304481538E+02 0.  0.
         13    1    3    3    0    0  0.37390230096E+03  0.28950732198E+03  0.29349555790E+03  0.55655822935E+03  0.00000000000E+00 0. -1.
        -13    1    3    3    0    0  0.10839966610E+02 -0.65513504643E+01  0.13316796116E+02  0.18378305901E+02  0.00000000000E+00 0.  1.
          2    1    6    6  502    0 -0.27956381084E+01 -0.38682764873E+01  0.23764571454E+02  0.24239100887E+02  0.00000000000E+00 0. -1.
          3    1    5    5  503    0 -0.14572220245E+03 -0.44219613591E+02  0.69256982131E+02  0.16729274966E+03  0.00000000000E+00 0. -1.
         -4    1    5    5    0  503 -0.47821980549E+03 -0.30251816222E+03  0.28935441702E+03  0.63556069693E+03  0.00000000000E+00 0.  1.
         -1    1    6    6    0  502  0.24199537848E+03  0.67650080784E+02  0.29790761943E+03  0.38972714346E+03  0.00000000000E+00 0.  1.
<mgrwt>
<rscale>  0 0.14953367E+04</rscale>
<asrwt>0</asrwt>
<pdfrwt beam="1">  1        1 0.21375786E+00 0.14953367E+04</pdfrwt>
<pdfrwt beam="2">  1       -1 0.61896945E-01 0.14953367E+04</pdfrwt>
<totfact> 0.20021978E+01</totfact>
</mgrwt>
</event>
<event>
12    1  0.1397649E-007  0.1873972E+04  0.7818608E-02  0.8667922E-01
          1   -1    0    0  501    0  0.00000000000E+00  0.00000000000E+00  0.24274645262E+04  0.24274645262E+04  0.00000000000E+00 0.  1.
         -1   -1    0    0    0  501 -0.00000000000E+00 -0.00000000000E+00 -0.36167059288E+03  0.36167059288E+03  0.00000000000E+00 0. -1.
         23    2    1    2    0    0 -0.33804702864E+03  0.90707677448E+01 -0.13917257802E+03  0.37650249825E+03  0.89593818522E+02 0.  0.
        254    2    1    2    0    0  0.33804702864E+03 -0.90707677448E+01  0.22049665113E+04  0.24126326208E+04  0.91899987732E+03 0.  0.
        -24    2    4    4    0    0  0.47702596069E+03 -0.25761692131E+03  0.75411922920E+03  0.93195918773E+03  0.77018636904E+02 0.  0.
         24    2    4    4    0    0 -0.13897893205E+03  0.24854615357E+03  0.14508472821E+04  0.14806734331E+04  0.79659559155E+02 0.  0.
         11    1    3    3    0    0 -0.26046320138E+03  0.44087586659E+02 -0.96099358486E+02  0.28110475142E+03  0.00000000000E+00 0. -1.
        -11    1    3    3    0    0 -0.77583827257E+02 -0.35016818914E+02 -0.43073219535E+02  0.95397746827E+02  0.00000000000E+00 0.  1.
          4    1    6    6  502    0 -0.38835896845E+02  0.38939106566E+02  0.44301190862E+03  0.44641240135E+03  0.00000000000E+00 0. -1.
          3    1    5    5  503    0  0.19070522806E+02  0.40465624094E+01  0.36223811584E+02  0.41136650728E+02  0.00000000000E+00 0. -1.
         -4    1    5    5    0  503  0.45795543788E+03 -0.26166348372E+03  0.71789541762E+03  0.89082253700E+03  0.00000000000E+00 0.  1.
         -3    1    6    6    0  502 -0.10014303520E+03  0.20960704700E+03  0.10078353735E+04  0.10342610317E+04  0.00000000000E+00 0.  1.
<mgrwt>
<rscale>  0 0.18739718E+04</rscale>
<asrwt>0</asrwt>
<pdfrwt beam="1">  1        1 0.37345607E+00 0.18739718E+04</pdfrwt>
<pdfrwt beam="2">  1       -1 0.55641631E-01 0.18739718E+04</pdfrwt>
<totfact> 0.46614116E+00</totfact>
</mgrwt>
</event>
<event>
12    1  0.1397649E-007  0.1083142E+04  0.7818608E-02  0.9221780E-01
          2   -1    0    0  501    0  0.00000000000E+00  0.00000000000E+00  0.11644575124E+04  0.11644575124E+04  0.00000000000E+00 0. -1.
         -2   -1    0    0    0  501 -0.00000000000E+00 -0.00000000000E+00 -0.25187622867E+03  0.25187622867E+03  0.00000000000E+00 0.  1.
         23    2    1    2    0    0 -0.39582746899E+02  0.31660071277E+02 -0.14366798775E+02  0.12135944222E+03  0.10932774279E+03 0.  0.
        254    2    1    2    0    0  0.39582746899E+02 -0.31660071277E+02  0.92694808252E+03  0.12949742989E+04  0.90286019576E+03 0.  0.
        -24    2    4    4    0    0 -0.41225984438E+03  0.90203881262E+02  0.43031854824E+03  0.60793168780E+03  0.79447873349E+02 0.  0.
         24    2    4    4    0    0  0.45184259128E+03 -0.12186395254E+03  0.49662953428E+03  0.68704261108E+03  0.79837991520E+02 0.  0.
         13    1    3    3    0    0 -0.14616338490E+02  0.68889581906E+02  0.86798942780E+01  0.70955989252E+02  0.00000000000E+00 0. -1.
        -13    1    3    3    0    0 -0.24966408409E+02 -0.37229510629E+02 -0.23046693053E+02  0.50403452969E+02  0.00000000000E+00 0.  1.
          2    1    6    6  502    0  0.72971988863E+02 -0.35040702048E+02  0.12735243722E+03  0.15090197224E+03  0.00000000000E+00 0. -1.
          3    1    5    5  503    0 -0.26851811074E+03  0.96911825443E+02  0.28141894296E+03  0.40086219473E+03  0.00000000000E+00 0. -1.
         -4    1    5    5    0  503 -0.14374173364E+03 -0.67079441812E+01  0.14889960528E+03  0.20706949307E+03  0.00000000000E+00 0.  1.
         -1    1    6    6    0  502  0.37887060242E+03 -0.86823250492E+02  0.36927709706E+03  0.53614063884E+03  0.00000000000E+00 0.  1.
<mgrwt>
<rscale>  0 0.10831420E+04</rscale>
<asrwt>0</asrwt>
<pdfrwt beam="1">  1        2 0.17914731E+00 0.10831420E+04</pdfrwt>
<pdfrwt beam="2">  1       -2 0.38750190E-01 0.10831420E+04</pdfrwt>
<totfact> 0.12432798E+02</totfact>
</mgrwt>
</event>
<event>
12    1  0.1397649E-007  0.1546943E+04  0.7818608E-02  0.8853823E-01
          1   -1    0    0  501    0  0.00000000000E+00  0.00000000000E+00  0.89672170261E+03  0.89672170261E+03  0.00000000000E+00 0. -1.
         -1   -1    0    0    0  501 -0.00000000000E+00 -0.00000000000E+00 -0.66716105605E+03  0.66716105605E+03  0.00000000000E+00 0.  1.
         23    2    1    2    0    0 -0.10441405726E+03  0.12290042137E+02 -0.42355500626E+03  0.44802182645E+03  0.10134778321E+03 0.  0.
        254    2    1    2    0    0  0.10441405726E+03 -0.12290042137E+02  0.65311565282E+03  0.11158609322E+04  0.89862796728E+03 0.  0.
        -24    2    4    4    0    0  0.12296573686E+03  0.38364261039E+03  0.57071343516E+03  0.70309734561E+03  0.79560212303E+02 0.  0.
         24    2    4    4    0    0 -0.18551679605E+02 -0.39593265253E+03  0.82402217661E+02  0.41276358660E+03  0.80478710175E+02 0.  0.
         13    1    3    3    0    0 -0.64461406730E+02  0.36624943027E+02 -0.12126289357E+03  0.14213144890E+03  0.00000000000E+00 0. -1.
        -13    1    3    3    0    0 -0.39952650530E+02 -0.24334900889E+02 -0.30229211269E+03  0.30589037755E+03  0.00000000000E+00 0.  1.
          2    1    6    6  502    0 -0.24566566014E+01 -0.29122058357E+03  0.25081731583E+02  0.29230900896E+03  0.00000000000E+00 0. -1.
          3    1    5    5  503    0  0.93462308126E+02  0.16181958055E+03  0.25900463392E+03  0.31938093255E+03  0.00000000000E+00 0. -1.
         -4    1    5    5    0  503  0.29503428738E+02  0.22182302984E+03  0.31170880125E+03  0.38371641306E+03  0.00000000000E+00 0.  1.
         -1    1    6    6    0  502 -0.16095023003E+02 -0.10471206895E+03  0.57320486078E+02  0.12045457764E+03  0.00000000000E+00 0.  1.
<mgrwt>
<rscale>  0 0.15469425E+04</rscale>
<asrwt>0</asrwt>
<pdfrwt beam="1">  1        1 0.13795719E+00 0.15469425E+04</pdfrwt>
<pdfrwt beam="2">  1       -1 0.10264016E+00 0.15469425E+04</pdfrwt>
<totfact> 0.15842058E+01</totfact>
</mgrwt>
</event>
<event>
12    1  0.1397649E-007  0.1288808E+04  0.7818608E-02  0.9038488E-01
          2   -1    0    0  501    0  0.00000000000E+00  0.00000000000E+00  0.58177078505E+03  0.58177078505E+03  0.00000000000E+00 0. -1.
         -2   -1    0    0    0  501 -0.00000000000E+00 -0.00000000000E+00 -0.71378007765E+03  0.71378007765E+03  0.00000000000E+00 0.  1.
         23    2    1    2    0    0 -0.18005047515E+03  0.12918852592E+03  0.20856629147E+03  0.31804063479E+03  0.92423474342E+02 0.  0.
        254    2    1    2    0    0  0.18005047515E+03 -0.12918852592E+03 -0.34057558407E+03  0.97751022790E+03  0.88905942904E+03 0.  0.
        -24    2    4    4    0    0  0.39959907999E+03 -0.37907461068E+03 -0.11842165922E+03  0.56883835794E+03  0.78590094154E+02 0.  0.
         24    2    4    4    0    0 -0.21954860484E+03  0.24988608477E+03 -0.22215392486E+03  0.40867186996E+03  0.83759690310E+02 0.  0.
         11    1    3    3    0    0 -0.86996924397E+02  0.95372605492E+02  0.16595988373E+03  0.21025480194E+03  0.00000000000E+00 0. -1.
        -11    1    3    3    0    0 -0.93053550755E+02  0.33815920425E+02  0.42606407746E+02  0.10778583285E+03  0.00000000000E+00 0.  1.
          2    1    6    6  502    0 -0.17091999130E+02  0.64784335710E+02 -0.60440686543E+02  0.90234268310E+02  0.00000000000E+00 0. -1.
          3    1    5    5  503    0  0.84376790067E+01 -0.12052994276E+02  0.93626623157E+01  0.17439281627E+02  0.00000000000E+00 0. -1.
         -4    1    5    5    0  503  0.39116140099E+03 -0.36702161641E+03 -0.12778432153E+03  0.55139907632E+03  0.00000000000E+00 0.  1.
         -1    1    6    6    0  502 -0.20245660571E+03  0.18510174906E+03 -0.16171323831E+03  0.31843760165E+03  0.00000000000E+00 0.  1.
<mgrwt>
<rscale>  0 0.12888078E+04</rscale>
<asrwt>0</asrwt>
<pdfrwt beam="1">  1        2 0.89503197E-01 0.12888078E+04</pdfrwt>
<pdfrwt beam="2">  1       -2 0.10981232E+00 0.12888078E+04</pdfrwt>
<totfact> 0.33315875E+01</totfact>
</mgrwt>
</event>
<event>
12    1  0.1397649E-007  0.1278415E+04  0.7818608E-02  0.9046859E-01
          1   -1    0    0  501    0  0.00000000000E+00  0.00000000000E+00  0.95726583166E+03  0.95726583166E+03  0.00000000000E+00 0. -1.
         -1   -1    0    0    0  501 -0.00000000000E+00 -0.00000000000E+00 -0.42682640654E+03  0.42682640654E+03  0.00000000000E+00 0.  1.
         23    2    1    2    0    0  0.27544592822E+03  0.27766757806E+02  0.25073877996E+03  0.38487718040E+03  0.92838871215E+02 0.  0.
        254    2    1    2    0    0 -0.27544592822E+03 -0.27766757806E+02  0.27970064517E+03  0.99921505780E+03  0.91845349834E+03 0.  0.
        -24    2    4    4    0    0  0.25885060136E+03 -0.63985312424E+01  0.36180792940E+03  0.45206773718E+03  0.80097978741E+02 0.  0.
         24    2    4    4    0    0 -0.53429652958E+03 -0.21368226564E+02 -0.82107284230E+02  0.54714732061E+03  0.81848651186E+02 0.  0.
         13    1    3    3    0    0  0.11956247246E+03  0.33587269664E+02  0.58410445789E+02  0.13724091839E+03  0.00000000000E+00 0.  1.
        -13    1    3    3    0    0  0.15588345576E+03 -0.58205118579E+01  0.19232833417E+03  0.24763626201E+03  0.00000000000E+00 0. -1.
          4    1    6    6  502    0 -0.46020139230E+03  0.47727114676E+01 -0.87187780160E+02  0.46841200803E+03  0.00000000000E+00 0. -1.
          1    1    5    5  503    0  0.18309370704E+03  0.20780489547E+02  0.29326363698E+03  0.34635053786E+03  0.00000000000E+00 0. -1.
         -2    1    5    5    0  503  0.75756894328E+02 -0.27179020789E+02  0.68544292414E+02  0.10571719932E+03  0.00000000000E+00 0.  1.
         -3    1    6    6    0  502 -0.74095137279E+02 -0.26140938031E+02  0.50804959300E+01  0.78735312589E+02  0.00000000000E+00 0.  1.
<mgrwt>
<rscale>  0 0.12784152E+04</rscale>
<asrwt>0</asrwt>
<pdfrwt beam="1">  1        1 0.14727167E+00 0.12784152E+04</pdfrwt>
<pdfrwt beam="2">  1       -1 0.65665601E-01 0.12784152E+04</pdfrwt>
<totfact> 0.37839355E+01</totfact>
</mgrwt>
</event>
<event>
12    1  0.1397649E-007  0.1096470E+04  0.7818608E-02  0.9208639E-01
          2   -1    0    0  501    0  0.00000000000E+00  0.00000000000E+00  0.84815890527E+03  0.84815890527E+03  0.00000000000E+00 0. -1.
         -2   -1    0    0    0  501 -0.00000000000E+00 -0.00000000000E+00 -0.35436967553E+03  0.35436967553E+03  0.00000000000E+00 0.  1.
         23    2    1    2    0    0 -0.75338988229E+02 -0.62627182930E+02 -0.42719406762E+02  0.14034369095E+03  0.90957554307E+02 0.  0.
        254    2    1    2    0    0  0.75338988229E+02  0.62627182930E+02  0.53650863650E+03  0.10621848899E+04  0.91148071621E+03 0.  0.
        -24    2    4    4    0    0 -0.19231618918E+03  0.37101799120E+03  0.59951045255E+02  0.42949151893E+03  0.78923827753E+02 0.  0.
         24    2    4    4    0    0  0.26765517741E+03 -0.30839080827E+03  0.47655759125E+03  0.63269337093E+03  0.80309272376E+02 0.  0.
         11    1    3    3    0    0 -0.44038851120E+02 -0.74303352330E+01 -0.59794564963E+02  0.74632568553E+02  0.00000000000E+00 0.  1.
        -11    1    3    3    0    0 -0.31300137109E+02 -0.55196847697E+02  0.17075158201E+02  0.65711122395E+02  0.00000000000E+00 0. -1.
          4    1    6    6  502    0  0.89310975375E+02 -0.10560736001E+03  0.22210757051E+03  0.26165079341E+03  0.00000000000E+00 0. -1.
          1    1    5    5  503    0  0.30069667536E+01  0.13246684236E+02 -0.87044193282E+01  0.16133301216E+02  0.00000000000E+00 0. -1.
         -2    1    5    5    0  503 -0.19532315593E+03  0.35777130697E+03  0.68655464584E+02  0.41335821771E+03  0.00000000000E+00 0.  1.
         -3    1    6    6    0  502  0.17834420203E+03 -0.20278344826E+03  0.25445002073E+03  0.37104257753E+03  0.00000000000E+00 0.  1.
<mgrwt>
<rscale>  0 0.10964703E+04</rscale>
<asrwt>0</asrwt>
<pdfrwt beam="1">  1        2 0.13048598E+00 0.10964703E+04</pdfrwt>
<pdfrwt beam="2">  1       -2 0.54518412E-01 0.10964703E+04</pdfrwt>
<totfact> 0.10010944E+02</totfact>
</mgrwt>
</event>
<event>
12    1  0.1397649E-007  0.1513289E+04  0.7818608E-02  0.8875664E-01
         -1   -1    0    0    0  501 -0.00000000000E+00  0.00000000000E+00  0.18263465971E+04  0.18263465971E+04  0.00000000000E+00 0.  1.
          1   -1    0    0  501    0  0.00000000000E+00 -0.00000000000E+00 -0.31347318354E+03  0.31347318354E+03  0.00000000000E+00 0. -1.
         23    2    1    2    0    0 -0.10261895759E+03  0.24352647854E+03 -0.80742503775E+02  0.29177694168E+03  0.93694373220E+02 0.  0.
        254    2    1    2    0    0  0.10261895759E+03 -0.24352647854E+03  0.15936159173E+04  0.18480428389E+04  0.89767190355E+03 0.  0.
        -24    2    4    4    0    0 -0.15250124699E+03 -0.33898507273E+03  0.20693131958E+03  0.43260097522E+03  0.78457140308E+02 0.  0.
         24    2    4    4    0    0  0.25512020458E+03  0.95458594193E+02  0.13866845977E+04  0.14154418637E+04  0.79892640442E+02 0.  0.
         13    1    3    3    0    0  0.15376612474E+02  0.18296322353E+02 -0.17899197423E+02  0.29859284841E+02  0.00000000000E+00 0.  1.
        -13    1    3    3    0    0 -0.11799557006E+03  0.22523015619E+03 -0.62843306352E+02  0.26191765684E+03  0.00000000000E+00 0. -1.
          2    1    6    6  502    0  0.12955865594E+03  0.71092151160E+02  0.90878059077E+03  0.92071803579E+03  0.00000000000E+00 0. -1.
          1    1    5    5  503    0 -0.50720716853E+02 -0.59071505971E+02  0.70351630033E+02  0.10493515037E+03  0.00000000000E+00 0. -1.
         -2    1    5    5    0  503 -0.10178053014E+03 -0.27991356676E+03  0.13657968955E+03  0.32766582484E+03  0.00000000000E+00 0.  1.
         -1    1    6    6    0  502  0.12556154864E+03  0.24366443033E+02  0.47790400695E+03  0.49472382792E+03  0.00000000000E+00 0.  1.
<mgrwt>
<rscale>  0 0.15132887E+04</rscale>
<asrwt>0</asrwt>
<pdfrwt beam="1">  1        1 0.48226645E-01 0.15132887E+04</pdfrwt>
<pdfrwt beam="2">  1       -1 0.28097639E+00 0.15132887E+04</pdfrwt>
<totfact> 0.35144487E+00</totfact>
</mgrwt>
</event>
<event>
12    1  0.1407836E-007  0.1727521E+04  0.7818608E-02  0.8745822E-01
          2   -1    0    0  501    0  0.00000000000E+00  0.00000000000E+00  0.21013304804E+04  0.21013304804E+04  0.00000000000E+00 0.  1.
         -2   -1    0    0    0  501 -0.00000000000E+00 -0.00000000000E+00 -0.35505240405E+03  0.35505240405E+03  0.00000000000E+00 0. -1.
         23    2    1    2    0    0 -0.13391009165E+02 -0.51026850281E+03  0.99361790769E+03  0.11210803695E+04  0.94822910736E+02 0.  0.
        254    2    1    2    0    0  0.13391009165E+02  0.51026850281E+03  0.75266016871E+03  0.13353025150E+04  0.97774342892E+03 0.  0.
        -24    2    4    4    0    0 -0.31178162539E+02 -0.18933853688E+03  0.56891104225E+03  0.60570541373E+03  0.79988217075E+02 0.  0.
         24    2    4    4    0    0  0.44569171704E+02  0.69960703969E+03  0.18374912646E+03  0.72959710122E+03  0.84331296585E+02 0.  0.
         13    1    3    3    0    0  0.70338197337E-01 -0.98402101505E+00 -0.22534558260E+01  0.24599406456E+01  0.00000000000E+00 0. -1.
        -13    1    3    3    0    0 -0.13461347362E+02 -0.50928448179E+03  0.99587136351E+03  0.11186204289E+04  0.00000000000E+00 0.  1.
          2    1    6    6  502    0  0.53163647603E+02  0.42007129707E+03  0.77669170200E+02  0.43048666419E+03  0.00000000000E+00 0. -1.
          3    1    5    5  503    0 -0.45512297359E+02 -0.88926552453E+02  0.35793470424E+03  0.37161344626E+03  0.00000000000E+00 0. -1.
         -4    1    5    5    0  503  0.14334134820E+02 -0.10041198443E+03  0.21097633800E+03  0.23409196747E+03  0.00000000000E+00 0.  1.
         -1    1    6    6    0  502 -0.85944758994E+01  0.27953574262E+03  0.10607995626E+03  0.29911043703E+03  0.00000000000E+00 0.  1.
<mgrwt>
<rscale>  0 0.17275213E+04</rscale>
<asrwt>0</asrwt>
<pdfrwt beam="1">  1        2 0.32328161E+00 0.17275213E+04</pdfrwt>
<pdfrwt beam="2">  1       -2 0.54623448E-01 0.17275213E+04</pdfrwt>
<totfact> 0.17569074E+01</totfact>
</mgrwt>
</event>
<event>
12    1  0.1397649E-007  0.2519676E+04  0.7818608E-02  0.8396009E-01
         -2   -1    0    0    0  501 -0.00000000000E+00  0.00000000000E+00  0.16004820770E+04  0.16004820770E+04  0.00000000000E+00 0.  1.
          2   -1    0    0  501    0  0.00000000000E+00 -0.00000000000E+00 -0.99169616385E+03  0.99169616385E+03  0.00000000000E+00 0. -1.
         23    2    1    2    0    0 -0.50609836987E+03 -0.92455220011E+03 -0.42854299644E+02  0.10584865921E+04  0.87321497043E+02 0.  0.
        254    2    1    2    0    0  0.50609836987E+03  0.92455220011E+03  0.65164021279E+03  0.15336916488E+04  0.90368289570E+03 0.  0.
        -24    2    4    4    0    0  0.55012125224E+03  0.87279087953E+03  0.82971750271E+03  0.13263194209E+04  0.79339525272E+02 0.  0.
         24    2    4    4    0    0 -0.44022882371E+02  0.51761320574E+02 -0.17807728993E+03  0.20737222795E+03  0.81697437266E+02 0.  0.
         13    1    3    3    0    0 -0.28688778323E+03 -0.44278341438E+03 -0.18328796154E+01  0.52760317632E+03  0.00000000000E+00 0. -1.
        -13    1    3    3    0    0 -0.21921058664E+03 -0.48176878572E+03 -0.41021420029E+02  0.53088341573E+03  0.00000000000E+00 0.  1.
          4    1    6    6  502    0  0.16959593442E+02  0.34245662665E+02 -0.98122252460E+02  0.10530132786E+03  0.00000000000E+00 0. -1.
          3    1    5    5  503    0  0.18959639935E+03  0.37169475057E+03  0.32280331944E+03  0.52754693183E+03  0.00000000000E+00 0. -1.
         -4    1    5    5    0  503  0.36052485289E+03  0.50109612897E+03  0.50691418328E+03  0.79877248903E+03  0.00000000000E+00 0.  1.
         -3    1    6    6    0  502 -0.60982475813E+02  0.17515657909E+02 -0.79955037466E+02  0.10207090009E+03  0.00000000000E+00 0.  1.
<mgrwt>
<rscale>  0 0.25196761E+04</rscale>
<asrwt>0</asrwt>
<pdfrwt beam="1">  1        2 0.15256864E+00 0.25196761E+04</pdfrwt>
<pdfrwt beam="2">  1       -2 0.24622801E+00 0.25196761E+04</pdfrwt>
<totfact> 0.15392197E+00</totfact>
</mgrwt>
</event>
<event>
12    1  0.1397649E-007  0.1159938E+04  0.7818608E-02  0.9148664E-01
          1   -1    0    0  501    0  0.00000000000E+00  0.00000000000E+00  0.86507673707E+03  0.86507673707E+03  0.00000000000E+00 0. -1.
         -1   -1    0    0    0  501 -0.00000000000E+00 -0.00000000000E+00 -0.38882545079E+03  0.38882545079E+03  0.00000000000E+00 0.  1.
         23    2    1    2    0    0  0.18166783511E+02 -0.17245133570E+03 -0.74304034041E+02  0.20834565517E+03  0.88415651016E+02 0.  0.
        254    2    1    2    0    0 -0.18166783511E+02  0.17245133570E+03  0.55055532032E+03  0.10455565327E+04  0.87178426638E+03 0.  0.
        -24    2    4    4    0    0  0.26956869365E+03 -0.19496971525E+03  0.31668648741E+02  0.34309796322E+03  0.77671349891E+02 0.  0.
         24    2    4    4    0    0 -0.28773547716E+03  0.36742105095E+03  0.51888667158E+03  0.70245856947E+03  0.80092011914E+02 0.  0.
         13    1    3    3    0    0 -0.12087504324E+02  0.53465457133E+01  0.17592475369E+00  0.13218330506E+02  0.00000000000E+00 0. -1.
        -13    1    3    3    0    0  0.30254287835E+02 -0.17779788142E+03 -0.74479958794E+02  0.19512732467E+03  0.00000000000E+00 0.  1.
          4    1    6    6  502    0 -0.36627878332E+02  0.12868653359E+02  0.36985495480E+02  0.53620244184E+02  0.00000000000E+00 0. -1.
          1    1    5    5  503    0  0.27917088295E+02 -0.48324833725E+01 -0.15052533759E+02  0.32082635288E+02  0.00000000000E+00 0. -1.
         -2    1    5    5    0  503  0.24165160536E+03 -0.19013723187E+03  0.46721182501E+02  0.31101532793E+03  0.00000000000E+00 0.  1.
         -3    1    6    6    0  502 -0.25110759883E+03  0.35455239759E+03  0.48190117610E+03  0.64883832528E+03  0.00000000000E+00 0.  1.
<mgrwt>
<rscale>  0 0.11599377E+04</rscale>
<asrwt>0</asrwt>
<pdfrwt beam="1">  1        1 0.13308873E+00 0.11599377E+04</pdfrwt>
<pdfrwt beam="2">  1       -1 0.59819300E-01 0.11599377E+04</pdfrwt>
<totfact> 0.54702534E+01</totfact>
</mgrwt>
</event>
<event>
12    1  0.1397649E-007  0.1528740E+04  0.7818608E-02  0.8865563E-01
          2   -1    0    0  501    0  0.00000000000E+00  0.00000000000E+00  0.99254408163E+03  0.99254408163E+03  0.00000000000E+00 0. -1.
         -2   -1    0    0    0  501 -0.00000000000E+00 -0.00000000000E+00 -0.58865073777E+03  0.58865073777E+03  0.00000000000E+00 0.  1.
         23    2    1    2    0    0  0.25208485461E+03 -0.65416331259E+02  0.60710894871E+03  0.66692636115E+03  0.91561046684E+02 0.  0.
        254    2    1    2    0    0 -0.25208485461E+03  0.65416331259E+02 -0.20321560485E+03  0.91426845825E+03  0.85250464009E+03 0.  0.
        -24    2    4    4    0    0  0.10687088786E+02 -0.32683147166E+03  0.95598589705E+02  0.34973633583E+03  0.79015122060E+02 0.  0.
         24    2    4    4    0    0 -0.26277194340E+03  0.39224780292E+03 -0.29881419455E+03  0.56453212241E+03  0.80617375524E+02 0.  0.
         13    1    3    3    0    0  0.20047806769E+03 -0.15590063235E+02  0.48913220691E+03  0.52885236271E+03  0.00000000000E+00 0. -1.
        -13    1    3    3    0    0  0.51606786919E+02 -0.49826268024E+02  0.11797674180E+03  0.13807399845E+03  0.00000000000E+00 0.  1.
          4    1    6    6  502    0 -0.16387972369E+03  0.26583074888E+03 -0.15329017338E+03  0.34787990477E+03  0.00000000000E+00 0. -1.
          1    1    5    5  503    0  0.23140780113E+02 -0.24560159851E+03  0.10278028080E+03  0.26724413374E+03  0.00000000000E+00 0. -1.
         -2    1    5    5    0  503 -0.12453691327E+02 -0.81229873147E+02 -0.71816910983E+01  0.82492202093E+02  0.00000000000E+00 0.  1.
         -1    1    6    6    0  502 -0.98892219707E+02  0.12641705404E+03 -0.14552402118E+03  0.21665221764E+03  0.00000000000E+00 0.  1.
<mgrwt>
<rscale>  0 0.15287404E+04</rscale>
<asrwt>0</asrwt>
<pdfrwt beam="1">  1        2 0.15269909E+00 0.15287404E+04</pdfrwt>
<pdfrwt beam="2">  1       -2 0.90561652E-01 0.15287404E+04</pdfrwt>
<totfact> 0.25585366E+01</totfact>
</mgrwt>
</event>
<event>
12    1  0.1397649E-007  0.1339845E+04  0.7818608E-02  0.8998551E-01
         -2   -1    0    0    0  501 -0.00000000000E+00  0.00000000000E+00  0.20447223119E+03  0.20447223119E+03  0.00000000000E+00 0.  1.
          2   -1    0    0  501    0  0.00000000000E+00 -0.00000000000E+00 -0.21949013510E+04  0.21949013510E+04  0.00000000000E+00 0. -1.
         23    2    1    2    0    0 -0.18366336568E+03 -0.21457191339E+03 -0.97282779386E+03  0.10164496207E+04  0.83681402223E+02 0.  0.
        254    2    1    2    0    0  0.18366336568E+03  0.21457191339E+03 -0.10176013260E+04  0.13829239615E+04  0.89285658799E+03 0.  0.
        -24    2    4    4    0    0  0.39597245113E+03 -0.11061957173E+03 -0.85907914141E+03  0.95590242627E+03  0.81863335163E+02 0.  0.
         24    2    4    4    0    0 -0.21230908544E+03  0.32519148512E+03 -0.15852218459E+03  0.42702153523E+03  0.79959106972E+02 0.  0.
         11    1    3    3    0    0 -0.15840948435E+03 -0.18430636177E+03 -0.70445421073E+03  0.74519670875E+03  0.00000000000E+00 0. -1.
        -11    1    3    3    0    0 -0.25253881330E+02 -0.30265551623E+02 -0.26837358313E+03  0.27125291198E+03  0.00000000000E+00 0.  1.
          4    1    6    6  502    0 -0.15784903365E+02  0.74868295884E+01  0.64752584150E+01  0.18631821250E+02  0.00000000000E+00 0. -1.
          1    1    5    5  503    0  0.35934864565E+01 -0.13555134017E+02 -0.18756594372E+02  0.23419321843E+02  0.00000000000E+00 0. -1.
         -2    1    5    5    0  503  0.39237896467E+03 -0.97064437715E+02 -0.84032254704E+03  0.93248310443E+03  0.00000000000E+00 0.  1.
         -3    1    6    6    0  502 -0.19652418208E+03  0.31770465553E+03 -0.16499744300E+03  0.40838971398E+03  0.00000000000E+00 0.  1.
<mgrwt>
<rscale>  0 0.13398453E+04</rscale>
<asrwt>0</asrwt>
<pdfrwt beam="1">  1        2 0.33767712E+00 0.13398453E+04</pdfrwt>
<pdfrwt beam="2">  1       -2 0.31457267E-01 0.13398453E+04</pdfrwt>
<totfact> 0.47755640E+01</totfact>
</mgrwt>
</event>
<event>
12    1  0.1397649E-007  0.1748635E+04  0.7818608E-02  0.8734102E-01
          1   -1    0    0  501    0  0.00000000000E+00  0.00000000000E+00  0.15842680488E+04  0.15842680488E+04  0.00000000000E+00 0. -1.
         -1   -1    0    0    0  501 -0.00000000000E+00 -0.00000000000E+00 -0.48251351765E+03  0.48251351765E+03  0.00000000000E+00 0.  1.
         23    2    1    2    0    0 -0.30432731157E+03  0.23853461826E+03  0.99977939195E+03  0.10758588774E+04  0.91649412914E+02 0.  0.
        254    2    1    2    0    0  0.30432731157E+03 -0.23853461826E+03  0.10197513917E+03  0.99092268900E+03  0.90665041217E+03 0.  0.
        -24    2    4    4    0    0 -0.23213962947E+03 -0.33697398503E+03 -0.46651296582E+02  0.42009221972E+03  0.82830280941E+02 0.  0.
         24    2    4    4    0    0  0.53646694105E+03  0.98439366766E+02  0.14862643575E+03  0.57083046928E+03  0.79186611784E+02 0.  0.
         13    1    3    3    0    0 -0.18366783164E+03  0.18528976146E+03  0.58308068239E+03  0.63878732788E+03  0.00000000000E+00 0.  1.
        -13    1    3    3    0    0 -0.12065947994E+03  0.53244856795E+02  0.41669870956E+03  0.43707154955E+03  0.00000000000E+00 0. -1.
          2    1    6    6  502    0  0.15765316922E+03 -0.40638230444E+01  0.27174884742E+02  0.16002971844E+03  0.00000000000E+00 0. -1.
          3    1    5    5  503    0 -0.72537227716E+02 -0.17253837465E+03 -0.36639709607E+02  0.19071866309E+03  0.00000000000E+00 0. -1.
         -4    1    5    5    0  503 -0.15960240176E+03 -0.16443561037E+03 -0.10011586976E+02  0.22937355663E+03  0.00000000000E+00 0.  1.
         -1    1    6    6    0  502  0.37881377183E+03  0.10250318981E+03  0.12145155101E+03  0.41080075084E+03  0.00000000000E+00 0.  1.
<mgrwt>
<rscale>  0 0.17486346E+04</rscale>
<asrwt>0</asrwt>
<pdfrwt beam="1">  1        1 0.24373354E+00 0.17486346E+04</pdfrwt>
<pdfrwt beam="2">  1       -1 0.74232850E-01 0.17486346E+04</pdfrwt>
<totfact> 0.99039541E+00</totfact>
</mgrwt>
</event>
<event>
12    1  0.1397649E-007  0.2005367E+04  0.7818608E-02  0.8604116E-01
         -2   -1    0    0    0  501 -0.00000000000E+00  0.00000000000E+00  0.43485023611E+03  0.43485023611E+03  0.00000000000E+00 0. -1.
          2   -1    0    0  501    0  0.00000000000E+00 -0.00000000000E+00 -0.23120009641E+04  0.23120009641E+04  0.00000000000E+00 0.  1.
         23    2    1    2    0    0  0.37902801079E+02  0.73485771608E+03 -0.32044195999E+03  0.80771170845E+03  0.90899224603E+02 0.  0.
        254    2    1    2    0    0 -0.37902801079E+02 -0.73485771608E+03 -0.15567087680E+04  0.19391394918E+04  0.89188973249E+03 0.  0.
        -24    2    4    4    0    0 -0.55125315846E+02 -0.93390593778E+03 -0.13132613984E+04  0.16144114600E+04  0.80310399876E+02 0.  0.
         24    2    4    4    0    0  0.17222514766E+02  0.19904822171E+03 -0.24344736958E+03  0.32472803182E+03  0.79150889537E+02 0.  0.
         13    1    3    3    0    0  0.17804204125E+02  0.50737206979E+03 -0.26509320633E+03  0.57272839542E+03  0.00000000000E+00 0. -1.
        -13    1    3    3    0    0  0.20098596954E+02  0.22748564629E+03 -0.55348753665E+02  0.23498331302E+03  0.00000000000E+00 0.  1.
          2    1    6    6  502    0  0.69279201663E+01  0.16395199240E+03 -0.23593274533E+03  0.28738913029E+03  0.00000000000E+00 0. -1.
          1    1    5    5  503    0 -0.23278429211E+02 -0.70625499308E+03 -0.93879868812E+03  0.11750238199E+04  0.00000000000E+00 0. -1.
         -2    1    5    5    0  503 -0.31846886635E+02 -0.22765094470E+03 -0.37446271032E+03  0.43938764005E+03  0.00000000000E+00 0.  1.
         -1    1    6    6    0  502  0.10294594600E+02  0.35096229310E+02 -0.75146242450E+01  0.37338901528E+02  0.00000000000E+00 0.  1.
<mgrwt>
<rscale>  0 0.20053670E+04</rscale>
<asrwt>0</asrwt>
<pdfrwt beam="1">  1        2 0.35569245E+00 0.20053670E+04</pdfrwt>
<pdfrwt beam="2">  1       -2 0.66900037E-01 0.20053670E+04</pdfrwt>
<totfact> 0.85039426E+00</totfact>
</mgrwt>
</event>
<event>
12    1  0.2557809E-007  0.2431944E+04  0.7818608E-02  0.8427640E-01
         -1   -1    0    0    0  501 -0.00000000000E+00  0.00000000000E+00  0.70455915656E+03  0.70455915656E+03  0.00000000000E+00 0.  1.
          1   -1    0    0  501    0  0.00000000000E+00 -0.00000000000E+00 -0.20985998319E+04  0.20985998319E+04  0.00000000000E+00 0. -1.
         23    2    1    2    0    0  0.63600850471E+03 -0.60553761532E+03  0.49732607828E+02  0.88429881325E+03  0.91260271781E+02 0.  0.
        254    2    1    2    0    0 -0.63600850471E+03  0.60553761532E+03 -0.14437732832E+04  0.19188601752E+04  0.90904370475E+03 0.  0.
        -24    2    4    4    0    0 -0.74485105349E+03  0.13694269401E+03 -0.73465598551E+03  0.10582925174E+04  0.81897753338E+02 0.  0.
         24    2    4    4    0    0  0.10884254878E+03  0.46859492131E+03 -0.70911729766E+03  0.86056765781E+03  0.79381680024E+02 0.  0.
         11    1    3    3    0    0  0.61440206804E+03 -0.55708913476E+03  0.53741763594E+02  0.83109950213E+03  0.00000000000E+00 0.  1.
        -11    1    3    3    0    0  0.21606436667E+02 -0.48448480562E+02 -0.40091557657E+01  0.53199311125E+02  0.00000000000E+00 0. -1.
          4    1    6    6  502    0  0.94640518678E+01  0.11474849721E+01 -0.17012117489E+02  0.19501208706E+02  0.00000000000E+00 0. -1.
          3    1    5    5  503    0 -0.71291367476E+02 -0.10789774124E+02 -0.73999504853E+02  0.10331894802E+03  0.00000000000E+00 0. -1.
         -2    1    5    5    0  503 -0.67355968601E+03  0.14773246814E+03 -0.66065648065E+03  0.95497356937E+03  0.00000000000E+00 0.  1.
         -3    1    6    6    0  502  0.99378496909E+02  0.46744743634E+03 -0.69210518017E+03  0.84106644910E+03  0.00000000000E+00 0.  1.
<mgrwt>
<rscale>  0 0.24319439E+04</rscale>
<asrwt>0</asrwt>
<pdfrwt beam="1">  1        1 0.32286151E+00 0.24319439E+04</pdfrwt>
<pdfrwt beam="2">  1       -1 0.10839372E+00 0.24319439E+04</pdfrwt>
<totfact> 0.18030885E+00</totfact>
</mgrwt>
</event>
<event>
12    1  0.1397649E-007  0.1243977E+04  0.7818608E-02  0.9075211E-01
          1   -1    0    0  501    0  0.00000000000E+00  0.00000000000E+00  0.36115415630E+03  0.36115415630E+03  0.00000000000E+00 0. -1.
         -1   -1    0    0    0  501 -0.00000000000E+00 -0.00000000000E+00 -0.10712034720E+04  0.10712034720E+04  0.00000000000E+00 0.  1.
         23    2    1    2    0    0  0.42529831585E+01  0.21099939675E+02 -0.49708786828E+03  0.50590714308E+03  0.91555411128E+02 0.  0.
        254    2    1    2    0    0 -0.42529831585E+01 -0.21099939675E+02 -0.21296144737E+03  0.92645048517E+03  0.90138483905E+03 0.  0.
        -24    2    4    4    0    0 -0.43196443527E+03  0.76296311182E+02 -0.17548154364E+03  0.47907349978E+03  0.79392981991E+02 0.  0.
         24    2    4    4    0    0  0.42771145212E+03 -0.97396250857E+02 -0.37479903736E+02  0.44737698539E+03  0.79487784719E+02 0.  0.
         13    1    3    3    0    0  0.41660529406E+02  0.34531935148E+02 -0.27037862375E+03  0.27574019372E+03  0.00000000000E+00 0.  1.
        -13    1    3    3    0    0 -0.37407546248E+02 -0.13431995473E+02 -0.22670924454E+03  0.23016694936E+03  0.00000000000E+00 0. -1.
          4    1    6    6  502    0  0.12309173059E+03 -0.13396693334E+02  0.22223401283E+02  0.12579715854E+03  0.00000000000E+00 0. -1.
          3    1    5    5  503    0 -0.33620147604E+03  0.66251322737E+02 -0.17028354929E+03  0.38264494955E+03  0.00000000000E+00 0. -1.
         -4    1    5    5    0  503 -0.95762959231E+02  0.10044988446E+02 -0.51979943483E+01  0.96428550226E+02  0.00000000000E+00 0.  1.
         -3    1    6    6    0  502  0.30461972153E+03 -0.83999557523E+02 -0.59703305019E+02  0.32157982685E+03  0.00000000000E+00 0.  1.
<mgrwt>
<rscale>  0 0.12439768E+04</rscale>
<asrwt>0</asrwt>
<pdfrwt beam="1">  1        1 0.55562179E-01 0.12439768E+04</pdfrwt>
<pdfrwt beam="2">  1       -1 0.16480053E+00 0.12439768E+04</pdfrwt>
<totfact> 0.18229399E+01</totfact>
</mgrwt>
</event>
<event>
12    1  0.1397649E-007  0.1297867E+04  0.7818608E-02  0.9031258E-01
          1   -1    0    0  501    0  0.00000000000E+00  0.00000000000E+00  0.91925482375E+03  0.91925482375E+03  0.00000000000E+00 0. -1.
         -1   -1    0    0    0  501 -0.00000000000E+00 -0.00000000000E+00 -0.45810471084E+03  0.45810471084E+03  0.00000000000E+00 0.  1.
         23    2    1    2    0    0 -0.18494821238E+03 -0.28783462844E+03 -0.66737934194E+02  0.36009201129E+03  0.90319932128E+02 0.  0.
        254    2    1    2    0    0  0.18494821238E+03  0.28783462844E+03  0.52788804710E+03  0.10172675233E+04  0.79944531339E+03 0.  0.
        -24    2    4    4    0    0 -0.62323287502E+02  0.44268370376E+03  0.55006868200E+03  0.71323316298E+03  0.79201869403E+02 0.  0.
         24    2    4    4    0    0  0.24727149988E+03 -0.15484907532E+03 -0.22180634897E+02  0.30403436032E+03  0.82604363762E+02 0.  0.
         11    1    3    3    0    0 -0.11193669832E+03 -0.11268686448E+03  0.32429091536E+00  0.15883406128E+03  0.00000000000E+00 0. -1.
        -11    1    3    3    0    0 -0.73011514060E+02 -0.17514776396E+03 -0.67062225109E+02  0.20125795001E+03  0.00000000000E+00 0.  1.
          4    1    6    6  502    0  0.23281309245E+03 -0.12458603440E+03 -0.41732263569E+00  0.26405262760E+03  0.00000000000E+00 0. -1.
          3    1    5    5  503    0 -0.72376436242E+02  0.32992119736E+03  0.37438383354E+03  0.50423169258E+03  0.00000000000E+00 0. -1.
         -4    1    5    5    0  503  0.10053148740E+02  0.11276250641E+03  0.17568484846E+03  0.20900147040E+03  0.00000000000E+00 0.  1.
         -3    1    6    6    0  502  0.14458407429E+02 -0.30263040916E+02 -0.21763312262E+02  0.39981732722E+02  0.00000000000E+00 0.  1.
<mgrwt>
<rscale>  0 0.12978674E+04</rscale>
<asrwt>0</asrwt>
<pdfrwt beam="1">  1        1 0.14142382E+00 0.12978674E+04</pdfrwt>
<pdfrwt beam="2">  1       -1 0.70477648E-01 0.12978674E+04</pdfrwt>
<totfact> 0.35094067E+01</totfact>
</mgrwt>
</event>
<event>
12    1  0.1397649E-007  0.3027533E+04  0.7818608E-02  0.8235912E-01
          2   -1    0    0  501    0  0.00000000000E+00  0.00000000000E+00  0.39344073583E+04  0.39344073583E+04  0.00000000000E+00 0. -1.
         -2   -1    0    0    0  501 -0.00000000000E+00 -0.00000000000E+00 -0.58242284533E+03  0.58242284533E+03  0.00000000000E+00 0.  1.
         23    2    1    2    0    0  0.57513279430E+03 -0.10270912157E+04  0.26000219440E+04  0.28555025250E+04  0.89924773306E+02 0.  0.
        254    2    1    2    0    0 -0.57513279430E+03  0.10270912157E+04  0.75196256902E+03  0.16613276786E+04  0.89937081005E+03 0.  0.
        -24    2    4    4    0    0 -0.80347666361E+03  0.76319062000E+03  0.65752027839E+03  0.12910833196E+04  0.80799445185E+02 0.  0.
         24    2    4    4    0    0  0.22834386931E+03  0.26390059574E+03  0.94442290628E+02  0.37024435897E+03  0.79856696673E+02 0.  0.
         13    1    3    3    0    0  0.10648607246E+01 -0.28860313075E+02  0.56354275922E+02  0.63323423896E+02  0.00000000000E+00 0.  1.
        -13    1    3    3    0    0  0.57406793358E+03 -0.99823090266E+03  0.25436676681E+04  0.27921791012E+04  0.00000000000E+00 0. -1.
          4    1    6    6  502    0  0.88673796827E+02  0.16107913584E+03  0.60054142711E+02  0.19343223698E+03  0.00000000000E+00 0. -1.
          1    1    5    5  503    0 -0.29089807665E+03  0.23700855752E+03  0.25215613626E+03  0.45208125862E+03  0.00000000000E+00 0. -1.
         -2    1    5    5    0  503 -0.51257858696E+03  0.52618206247E+03  0.40536414213E+03  0.83900206102E+03  0.00000000000E+00 0.  1.
         -3    1    6    6    0  502  0.13967007248E+03  0.10282145990E+03  0.34388147918E+02  0.17681212198E+03  0.00000000000E+00 0.  1.
<mgrwt>
<rscale>  0 0.30275328E+04</rscale>
<asrwt>0</asrwt>
<pdfrwt beam="1">  1        2 0.60529342E+00 0.30275328E+04</pdfrwt>
<pdfrwt beam="2">  1       -2 0.89603517E-01 0.30275328E+04</pdfrwt>
<totfact> 0.35184659E-01</totfact>
</mgrwt>
</event>
<event>
12    1  0.1397649E-007  0.3157994E+04  0.7818608E-02  0.8200000E-01
          2   -1    0    0  501    0  0.00000000000E+00  0.00000000000E+00  0.25646519071E+04  0.25646519071E+04  0.00000000000E+00 0. -1.
         -2   -1    0    0    0  501 -0.00000000000E+00 -0.00000000000E+00 -0.97215181801E+03  0.97215181801E+03  0.00000000000E+00 0.  1.
         23    2    1    2    0    0  0.65096109569E+03  0.51637526501E+03 -0.59816273346E+03  0.10276795819E+04  0.89066856775E+02 0.  0.
        254    2    1    2    0    0 -0.65096109569E+03 -0.51637526501E+03  0.21906628225E+04  0.25091241432E+04  0.89794576752E+03 0.  0.
        -24    2    4    4    0    0 -0.23497959270E+03 -0.35819946670E+03  0.19470658558E+04  0.19952215426E+04  0.79506542008E+02 0.  0.
         24    2    4    4    0    0 -0.41598150300E+03 -0.15817579831E+03  0.24359696672E+03  0.51390260058E+03  0.81830353042E+02 0.  0.
         13    1    3    3    0    0  0.43321080476E+03  0.33552034587E+03 -0.44470413223E+03  0.70569630088E+03  0.00000000000E+00 0. -1.
        -13    1    3    3    0    0  0.21775029093E+03  0.18085491914E+03 -0.15345860124E+03  0.32198328104E+03  0.00000000000E+00 0.  1.
          2    1    6    6  502    0 -0.14621920329E+03 -0.98183232775E+02  0.97321523360E+02  0.20122495252E+03  0.00000000000E+00 0. -1.
          1    1    5    5  503    0 -0.39289132972E+02 -0.11242460643E+03  0.44560555183E+03  0.46124530992E+03  0.00000000000E+00 0. -1.
         -2    1    5    5    0  503 -0.19569045972E+03 -0.24577486026E+03  0.15014603040E+04  0.15339762327E+04  0.00000000000E+00 0.  1.
         -1    1    6    6    0  502 -0.26976229971E+03 -0.59992565539E+02  0.14627544336E+03  0.31267764806E+03  0.00000000000E+00 0.  1.
<mgrwt>
<rscale>  0 0.31579937E+04</rscale>
<asrwt>0</asrwt>
<pdfrwt beam="1">  1        2 0.39456183E+00 0.31579937E+04</pdfrwt>
<pdfrwt beam="2">  1       -2 0.14956182E+00 0.31579937E+04</pdfrwt>
<totfact> 0.81420329E-01</totfact>
</mgrwt>
</event>
<event>
12    1  0.1397649E-007  0.1222279E+04  0.7818608E-02  0.9093576E-01
          2   -1    0    0  501    0  0.00000000000E+00  0.00000000000E+00  0.17524343268E+04  0.17524343268E+04  0.00000000000E+00 0. -1.
         -2   -1    0    0    0  501 -0.00000000000E+00 -0.00000000000E+00 -0.21312726027E+03  0.21312726027E+03  0.00000000000E+00 0.  1.
         23    2    1    2    0    0 -0.28905593499E+03  0.21752409649E+03  0.50680132151E+03  0.62941668102E+03  0.91911439762E+02 0.  0.
        254    2    1    2    0    0  0.28905593499E+03 -0.21752409649E+03  0.10325057451E+04  0.13361449061E+04  0.76703652480E+03 0.  0.
        -24    2    4    4    0    0  0.43702993203E+03 -0.31711555447E+03  0.41071296927E+03  0.68390590485E+03  0.86514202220E+02 0.  0.
         24    2    4    4    0    0 -0.14797399704E+03  0.99591457988E+02  0.62179277579E+03  0.65223900123E+03  0.83514647847E+02 0.  0.
         13    1    3    3    0    0 -0.21033026376E+03  0.19665021901E+03  0.42977119362E+03  0.51731364505E+03  0.00000000000E+00 0. -1.
        -13    1    3    3    0    0 -0.78725671229E+02  0.20873877479E+02  0.77030127892E+02  0.11210303597E+03  0.00000000000E+00 0.  1.
          2    1    6    6  502    0 -0.12282064047E+03  0.55601723933E+02  0.33690005172E+03  0.36287478044E+03  0.00000000000E+00 0. -1.
          1    1    5    5  503    0  0.16191443006E+03 -0.68610763649E+02  0.14211138897E+03  0.22609592306E+03  0.00000000000E+00 0. -1.
         -2    1    5    5    0  503  0.27511550197E+03 -0.24850479082E+03  0.26860158030E+03  0.45780998179E+03  0.00000000000E+00 0.  1.
         -1    1    6    6    0  502 -0.25153356567E+02  0.43989734055E+02  0.28489272407E+03  0.28936422080E+03  0.00000000000E+00 0.  1.
<mgrwt>
<rscale>  0 0.12222791E+04</rscale>
<asrwt>0</asrwt>
<pdfrwt beam="1">  1        2 0.26960527E+00 0.12222791E+04</pdfrwt>
<pdfrwt beam="2">  1       -2 0.32788810E-01 0.12222791E+04</pdfrwt>
<totfact> 0.78383185E+01</totfact>
</mgrwt>
</event>
<event>
12    1  0.1397649E-007  0.3915277E+04  0.7818608E-02  0.8021859E-01
         -1   -1    0    0    0  501 -0.00000000000E+00  0.00000000000E+00  0.28651554758E+04  0.28651554758E+04  0.00000000000E+00 0.  1.
          1   -1    0    0  501    0  0.00000000000E+00 -0.00000000000E+00 -0.13375708781E+04  0.13375708781E+04  0.00000000000E+00 0. -1.
         23    2    1    2    0    0 -0.41053685306E+03  0.17652259759E+04  0.93286795147E+03  0.20404584074E+04  0.93084069236E+02 0.  0.
        254    2    1    2    0    0  0.41053685306E+03 -0.17652259759E+04  0.59471664617E+03  0.21622679465E+04  0.10184063676E+04 0.  0.
        -24    2    4    4    0    0  0.46218016142E+03 -0.53362812706E+03 -0.14112956544E+03  0.72432245599E+03  0.79724440507E+02 0.  0.
         24    2    4    4    0    0 -0.51643308354E+02 -0.12315978488E+04  0.73584621161E+03  0.14379454905E+04  0.81959099685E+02 0.  0.
         11    1    3    3    0    0 -0.20990990065E+03  0.97371393782E+03  0.56134744776E+03  0.11433686878E+04  0.00000000000E+00 0.  1.
        -11    1    3    3    0    0 -0.20062695241E+03  0.79151203804E+03  0.37152050371E+03  0.89708971963E+03  0.00000000000E+00 0. -1.
          4    1    6    6  502    0 -0.70185182903E+02 -0.71470404430E+03  0.42252547654E+03  0.83322002446E+03  0.00000000000E+00 0. -1.
          3    1    5    5  503    0  0.39737498141E+03 -0.43185677275E+03 -0.91906948580E+02  0.59401518097E+03  0.00000000000E+00 0. -1.
         -4    1    5    5    0  503  0.64805180005E+02 -0.10177135431E+03 -0.49222616859E+02  0.13030727502E+03  0.00000000000E+00 0.  1.
         -3    1    6    6    0  502  0.18541874549E+02 -0.51689380451E+03  0.31332073507E+03  0.60472546604E+03  0.00000000000E+00 0.  1.
<mgrwt>
<rscale>  0 0.39152770E+04</rscale>
<asrwt>0</asrwt>
<pdfrwt beam="1">  1        1 0.20578014E+00 0.39152770E+04</pdfrwt>
<pdfrwt beam="2">  1       -1 0.44079315E+00 0.39152770E+04</pdfrwt>
<totfact> 0.25093625E-02</totfact>
</mgrwt>
</event>
<event>
12    1  0.1397649E-007  0.2292463E+04  0.7818608E-02  0.8480899E-01
         -2   -1    0    0    0  501 -0.00000000000E+00  0.00000000000E+00  0.11617548959E+04  0.11617548959E+04  0.00000000000E+00 0. -1.
          2   -1    0    0  501    0  0.00000000000E+00 -0.00000000000E+00 -0.11309159136E+04  0.11309159136E+04  0.00000000000E+00 0.  1.
         23    2    1    2    0    0  0.42202663721E+03  0.15531101809E+03  0.86761620696E+03  0.98161370017E+03  0.92626016439E+02 0.  0.
        254    2    1    2    0    0 -0.42202663721E+03 -0.15531101809E+03 -0.83677722463E+03  0.13110571093E+04  0.90357436065E+03 0.  0.
        -24    2    4    4    0    0  0.13060067058E+03  0.16562080908E+03  0.33622744238E+02  0.22819281100E+03  0.80341038753E+02 0.  0.
         24    2    4    4    0    0 -0.55262730779E+03 -0.32093182717E+03 -0.87039996887E+03  0.10828642983E+04  0.81269942981E+02 0.  0.
         11    1    3    3    0    0  0.13419522781E+03  0.46555817893E+02  0.37267178778E+03  0.39882335031E+03  0.00000000000E+00 0. -1.
        -11    1    3    3    0    0  0.28783140940E+03  0.10875520019E+03  0.49494441918E+03  0.58279034986E+03  0.00000000000E+00 0.  1.
          2    1    6    6  502    0 -0.53951653741E+03 -0.32541762158E+03 -0.84657686433E+03  0.10553042736E+04  0.00000000000E+00 0. -1.
          1    1    5    5  503    0  0.13834716815E+03  0.15217106015E+03  0.42933226441E+02  0.21009338974E+03  0.00000000000E+00 0. -1.
         -2    1    5    5    0  503 -0.77464975743E+01  0.13449748934E+02 -0.93104822031E+01  0.18099421259E+02  0.00000000000E+00 0.  1.
         -1    1    6    6    0  502 -0.13110770377E+02  0.44857944158E+01 -0.23823104540E+02  0.27560024698E+02  0.00000000000E+00 0.  1.
<mgrwt>
<rscale>  0 0.22924634E+04</rscale>
<asrwt>0</asrwt>
<pdfrwt beam="1">  1        2 0.17398706E+00 0.22924634E+04</pdfrwt>
<pdfrwt beam="2">  1       -2 0.17873152E+00 0.22924634E+04</pdfrwt>
<totfact> 0.35002338E+00</totfact>
</mgrwt>
</event>
<event>
12    1  0.1397649E-007  0.1782611E+04  0.7818608E-02  0.8715602E-01
         -2   -1    0    0    0  501 -0.00000000000E+00  0.00000000000E+00  0.10539348901E+04  0.10539348901E+04  0.00000000000E+00 0.  1.
          2   -1    0    0  501    0  0.00000000000E+00 -0.00000000000E+00 -0.75377058722E+03  0.75377058722E+03  0.00000000000E+00 0. -1.
         23    2    1    2    0    0  0.72573665806E+02 -0.44102913900E+03  0.61499016540E+03  0.76537827380E+03  0.88415836020E+02 0.  0.
        254    2    1    2    0    0 -0.72573665806E+02  0.44102913900E+03 -0.31482586249E+03  0.10423272035E+04  0.88744410367E+03 0.  0.
        -24    2    4    4    0    0 -0.42448346106E+03  0.17450595835E+03  0.43732338986E+02  0.46813483409E+03  0.81235258367E+02 0.  0.
         24    2    4    4    0    0  0.35190979525E+03  0.26652318065E+03 -0.35855820148E+03  0.57419236945E+03  0.79106153208E+02 0.  0.
         13    1    3    3    0    0  0.13630539128E+02 -0.44537592387E+02  0.11813856624E+03  0.12698861983E+03  0.00000000000E+00 0. -1.
        -13    1    3    3    0    0  0.58943126678E+02 -0.39649154661E+03  0.49685159916E+03  0.63838965397E+03  0.00000000000E+00 0.  1.
          2    1    6    6  502    0  0.25676642107E+03  0.22859264545E+03 -0.29960990235E+03  0.45601500647E+03  0.00000000000E+00 0. -1.
          3    1    5    5  503    0 -0.31502764336E+03  0.99403931636E+02  0.55111820560E+02  0.33490427061E+03  0.00000000000E+00 0. -1.
         -4    1    5    5    0  503 -0.10945581770E+03  0.75102026714E+02 -0.11379481574E+02  0.13323056348E+03  0.00000000000E+00 0.  1.
         -1    1    6    6    0  502  0.95143374180E+02  0.37930535196E+02 -0.58948299131E+02  0.11817736298E+03  0.00000000000E+00 0.  1.
<mgrwt>
<rscale>  0 0.17826106E+04</rscale>
<asrwt>0</asrwt>
<pdfrwt beam="1">  1        2 0.11596471E+00 0.17826106E+04</pdfrwt>
<pdfrwt beam="2">  1       -2 0.16214383E+00 0.17826106E+04</pdfrwt>
<totfact> 0.85503191E+00</totfact>
</mgrwt>
</event>
<event>
12    1  0.1397649E-007  0.1524664E+04  0.7818608E-02  0.8868215E-01
         -2   -1    0    0    0  501 -0.00000000000E+00  0.00000000000E+00  0.64057788822E+03  0.64057788822E+03  0.00000000000E+00 0.  1.
          2   -1    0    0  501    0  0.00000000000E+00 -0.00000000000E+00 -0.90722788254E+03  0.90722788254E+03  0.00000000000E+00 0. -1.
         23    2    1    2    0    0  0.43842438542E+03 -0.79736554666E+02 -0.29407529817E+03  0.54100173475E+03  0.87342636344E+02 0.  0.
        254    2    1    2    0    0 -0.43842438542E+03  0.79736554666E+02  0.27425303854E+02  0.10068040360E+04  0.90240144047E+03 0.  0.
        -24    2    4    4    0    0 -0.28314978520E+03 -0.64622047157E+02  0.44172871972E+03  0.53460463164E+03  0.79548981840E+02 0.  0.
         24    2    4    4    0    0 -0.15527460023E+03  0.14435860182E+03 -0.41430341587E+03  0.47219940437E+03  0.79845786962E+02 0.  0.
         11    1    3    3    0    0  0.12051356491E+02  0.13018423342E+02 -0.10812730767E+02  0.20775699416E+02  0.00000000000E+00 0. -1.
        -11    1    3    3    0    0  0.42637302893E+03 -0.92754978008E+02 -0.28326256741E+03  0.52022603533E+03  0.00000000000E+00 0.  1.
          4    1    6    6  502    0 -0.98702513860E+02  0.46562803601E+02 -0.15721720662E+03  0.19138320454E+03  0.00000000000E+00 0. -1.
          1    1    5    5  503    0 -0.15531505232E+03 -0.69530237296E+01  0.28223965392E+03  0.32222714390E+03  0.00000000000E+00 0. -1.
         -2    1    5    5    0  503 -0.12783473288E+03 -0.57669023427E+02  0.15948906580E+03  0.21237748775E+03  0.00000000000E+00 0.  1.
         -3    1    6    6    0  502 -0.56572086367E+02  0.97795798222E+02 -0.25708620924E+03  0.28081619983E+03  0.00000000000E+00 0.  1.
<mgrwt>
<rscale>  0 0.15246641E+04</rscale>
<asrwt>0</asrwt>
<pdfrwt beam="1">  1        2 0.13957352E+00 0.15246641E+04</pdfrwt>
<pdfrwt beam="2">  1       -2 0.98550445E-01 0.15246641E+04</pdfrwt>
<totfact> 0.23913043E+01</totfact>
</mgrwt>
</event>
<event>
12    1  0.1397649E-007  0.1159463E+04  0.7818608E-02  0.9149098E-01
          1   -1    0    0  501    0  0.00000000000E+00  0.00000000000E+00  0.59066448511E+03  0.59066448511E+03  0.00000000000E+00 0. -1.
         -1   -1    0    0    0  501 -0.00000000000E+00 -0.00000000000E+00 -0.56900101630E+03  0.56900101630E+03  0.00000000000E+00 0.  1.
         23    2    1    2    0    0 -0.26963053087E+02 -0.90518497800E+02  0.21400904737E+03  0.25146556283E+03  0.92273789654E+02 0.  0.
        254    2    1    2    0    0  0.26963053087E+02  0.90518497800E+02 -0.19234557856E+03  0.90819993858E+03  0.88255861118E+03 0.  0.
        -24    2    4    4    0    0  0.44853795304E+02 -0.34791329058E+03 -0.27650608978E+03  0.45424409231E+03  0.82622981052E+02 0.  0.
         24    2    4    4    0    0 -0.17890742218E+02  0.43843178838E+03  0.84160511219E+02  0.45395584627E+03  0.80314425839E+02 0.  0.
         11    1    3    3    0    0 -0.66413346279E+01 -0.81597087532E+02  0.76073201603E+02  0.11175564425E+03  0.00000000000E+00 0.  1.
        -11    1    3    3    0    0 -0.20321718459E+02 -0.89214102680E+01  0.13793584577E+03  0.13970991858E+03  0.00000000000E+00 0. -1.
          2    1    6    6  502    0 -0.17830478142E+02  0.43888282567E+03  0.75986294252E+02  0.44576897328E+03  0.00000000000E+00 0. -1.
          3    1    5    5  503    0 -0.87511809039E+01 -0.23485397433E+03 -0.17230851997E+03  0.29141585145E+03  0.00000000000E+00 0. -1.
         -4    1    5    5    0  503  0.53604976208E+02 -0.11305931625E+03 -0.10419756982E+03  0.16282824086E+03  0.00000000000E+00 0.  1.
         -1    1    6    6    0  502 -0.60264075461E-01 -0.45103729611E+00  0.81742169669E+01  0.81868729942E+01  0.00000000000E+00 0.  1.
<mgrwt>
<rscale>  0 0.11594631E+04</rscale>
<asrwt>0</asrwt>
<pdfrwt beam="1">  1        1 0.90871460E-01 0.11594631E+04</pdfrwt>
<pdfrwt beam="2">  1       -1 0.87538617E-01 0.11594631E+04</pdfrwt>
<totfact> 0.44670930E+01</totfact>
</mgrwt>
</event>
<event>
12    1  0.1397649E-007  0.2533401E+04  0.7818608E-02  0.8391182E-01
          2   -1    0    0  501    0  0.00000000000E+00  0.00000000000E+00  0.23339351228E+04  0.23339351228E+04  0.00000000000E+00 0.  1.
         -2   -1    0    0    0  501 -0.00000000000E+00 -0.00000000000E+00 -0.68747868678E+03  0.68747868678E+03  0.00000000000E+00 0. -1.
         23    2    1    2    0    0  0.37859460298E+03 -0.10657223516E+04  0.72212042676E+03  0.13448807360E+04  0.90267819373E+02 0.  0.
        254    2    1    2    0    0 -0.37859460298E+03  0.10657223516E+04  0.92433600926E+03  0.16765330736E+04  0.82296299113E+03 0.  0.
        -24    2    4    4    0    0  0.38010042449E+02  0.37720915324E+03  0.75717470506E+03  0.85067058706E+03  0.81212099416E+02 0.  0.
         24    2    4    4    0    0 -0.41660464543E+03  0.68851319834E+03  0.16716130420E+03  0.82586248654E+03  0.80598326059E+02 0.  0.
         13    1    3    3    0    0  0.13525868900E+03 -0.37403500925E+03  0.20359090137E+03  0.44681803480E+03  0.00000000000E+00 0. -1.
        -13    1    3    3    0    0  0.24333591399E+03 -0.69168734233E+03  0.51852952539E+03  0.89806270119E+03  0.00000000000E+00 0.  1.
          2    1    6    6  502    0 -0.13364155582E+03  0.23134295292E+03  0.94147503703E+02  0.28327262445E+03  0.00000000000E+00 0. -1.
          1    1    5    5  503    0 -0.19524456501E+02  0.30413720156E+02  0.66965497955E+02  0.76095838860E+02  0.00000000000E+00 0. -1.
         -2    1    5    5    0  503  0.57534498950E+02  0.34679543309E+03  0.69020920710E+03  0.77457474820E+03  0.00000000000E+00 0.  1.
         -1    1    6    6    0  502 -0.28296308961E+03  0.45717024541E+03  0.73013800502E+02  0.54258986209E+03  0.00000000000E+00 0.  1.
<mgrwt>
<rscale>  0 0.25334014E+04</rscale>
<asrwt>0</asrwt>
<pdfrwt beam="1">  1        2 0.35906694E+00 0.25334014E+04</pdfrwt>
<pdfrwt beam="2">  1       -2 0.10576595E+00 0.25334014E+04</pdfrwt>
<totfact> 0.27856873E+00</totfact>
</mgrwt>
</event>
<event>
12    1  0.1397649E-007  0.2579110E+04  0.7818608E-02  0.8375332E-01
          2   -1    0    0  501    0  0.00000000000E+00  0.00000000000E+00  0.11831692338E+04  0.11831692338E+04  0.00000000000E+00 0. -1.
         -2   -1    0    0    0  501 -0.00000000000E+00 -0.00000000000E+00 -0.14055060551E+04  0.14055060551E+04  0.00000000000E+00 0.  1.
         23    2    1    2    0    0  0.18574790985E+03 -0.52197878254E+03  0.89150101677E+03  0.10535319564E+04  0.90506269332E+02 0.  0.
        254    2    1    2    0    0 -0.18574790985E+03  0.52197878254E+03 -0.11138378381E+04  0.15351433325E+04  0.89948106500E+03 0.  0.
        -24    2    4    4    0    0  0.17050756890E+03  0.58904972289E+02  0.72617362675E+02  0.21023784136E+03  0.79900198779E+02 0.  0.
         24    2    4    4    0    0 -0.35625547875E+03  0.46307381025E+03 -0.11864552008E+04  0.13249054912E+04  0.79644818349E+02 0.  0.
         13    1    3    3    0    0  0.44673699190E+02 -0.11335553891E+03  0.13209874545E+03  0.17970892062E+03  0.00000000000E+00 0.  1.
        -13    1    3    3    0    0  0.14107421066E+03 -0.40862324363E+03  0.75940227133E+03  0.87382303577E+03  0.00000000000E+00 0. -1.
          2    1    6    6  502    0 -0.23113285879E+03  0.35023469193E+03 -0.80187184420E+03  0.90503325484E+03  0.00000000000E+00 0. -1.
          1    1    5    5  503    0  0.16789367728E+03  0.69961708700E+02  0.56388780388E+02  0.19042747204E+03  0.00000000000E+00 0. -1.
         -2    1    5    5    0  503  0.26138916213E+01 -0.11056736411E+02  0.16228582287E+02  0.19810369318E+02  0.00000000000E+00 0.  1.
         -1    1    6    6    0  502 -0.12512261996E+03  0.11283911832E+03 -0.38458335662E+03  0.41987223633E+03  0.00000000000E+00 0.  1.
<mgrwt>
<rscale>  0 0.25791096E+04</rscale>
<asrwt>0</asrwt>
<pdfrwt beam="1">  1        2 0.18202604E+00 0.25791096E+04</pdfrwt>
<pdfrwt beam="2">  1       -2 0.21623170E+00 0.25791096E+04</pdfrwt>
<totfact> 0.17940304E+00</totfact>
</mgrwt>
</event>
<event>
12    1  0.1397649E-007  0.1297807E+04  0.7818608E-02  0.9031306E-01
         -2   -1    0    0    0  501 -0.00000000000E+00  0.00000000000E+00  0.53471003176E+03  0.53471003176E+03  0.00000000000E+00 0.  1.
          2   -1    0    0  501    0  0.00000000000E+00 -0.00000000000E+00 -0.78748398939E+03  0.78748398939E+03  0.00000000000E+00 0. -1.
         23    2    1    2    0    0 -0.82893278162E+02  0.31917828738E+03 -0.25811750678E+02  0.34336676342E+03  0.92132584072E+02 0.  0.
        254    2    1    2    0    0  0.82893278162E+02 -0.31917828738E+03 -0.22696220695E+03  0.97882725774E+03  0.89322163118E+03 0.  0.
        -24    2    4    4    0    0  0.31898785167E+02  0.28023763336E+03 -0.22669498431E+03  0.37073050560E+03  0.80621512220E+02 0.  0.
         24    2    4    4    0    0  0.50994492995E+02 -0.59941592074E+03 -0.26722264850E+00  0.60809675213E+03  0.88778962586E+02 0.  0.
         11    1    3    3    0    0 -0.29667057999E+02  0.20225505690E+03  0.23487328122E+02  0.20576417802E+03  0.00000000000E+00 0. -1.
        -11    1    3    3    0    0 -0.53226220163E+02  0.11692323048E+03 -0.49299078801E+02  0.13760258540E+03  0.00000000000E+00 0.  1.
          4    1    6    6  502    0 -0.14460818692E+01 -0.38870997899E+03 -0.25242942579E+02  0.38953144298E+03  0.00000000000E+00 0. -1.
          3    1    5    5  503    0  0.20485545303E+02  0.21226326140E+03 -0.21109615379E+03  0.30006155344E+03  0.00000000000E+00 0. -1.
         -4    1    5    5    0  503  0.11413239864E+02  0.67974371954E+02 -0.15598830515E+02  0.70668952165E+02  0.00000000000E+00 0.  1.
         -3    1    6    6    0  502  0.52440574864E+02 -0.21070594175E+03  0.24975719930E+02  0.21856530915E+03  0.00000000000E+00 0.  1.
<mgrwt>
<rscale>  0 0.12978067E+04</rscale>
<asrwt>0</asrwt>
<pdfrwt beam="1">  1        2 0.12115138E+00 0.12978067E+04</pdfrwt>
<pdfrwt beam="2">  1       -2 0.82263082E-01 0.12978067E+04</pdfrwt>
<totfact> 0.44775095E+01</totfact>
</mgrwt>
</event>
<event>
12    1  0.1397649E-007  0.2757335E+04  0.7818608E-02  0.8316638E-01
          1   -1    0    0  501    0  0.00000000000E+00  0.00000000000E+00  0.14018685830E+04  0.14018685830E+04  0.00000000000E+00 0. -1.
         -1   -1    0    0    0  501 -0.00000000000E+00 -0.00000000000E+00 -0.13558506918E+04  0.13558506918E+04  0.00000000000E+00 0.  1.
         23    2    1    2    0    0 -0.14583177300E+03  0.11915510640E+04  0.29890714867E+03  0.12405327927E+04  0.92278286069E+02 0.  0.
        254    2    1    2    0    0  0.14583177300E+03 -0.11915510640E+04 -0.25288925745E+03  0.15171864821E+04  0.89265951003E+03 0.  0.
        -24    2    4    4    0    0 -0.46853747678E+02 -0.12222714074E+04 -0.36400010892E+03  0.12786002781E+04  0.78612497352E+02 0.  0.
         24    2    4    4    0    0  0.19268552068E+03  0.30720343449E+02  0.11111085147E+03  0.23858620401E+03  0.80661676451E+02 0.  0.
         11    1    3    3    0    0  0.22586375180E+01 -0.85190543877E+00  0.77103876029E+00  0.25341047895E+01  0.00000000000E+00 0.  1.
        -11    1    3    3    0    0 -0.14809041052E+03  0.11924029694E+04  0.29813610991E+03  0.12379986879E+04  0.00000000000E+00 0. -1.
          4    1    6    6  502    0  0.79018205906E+02  0.11736309158E+02  0.91878193780E+02  0.12175064809E+03  0.00000000000E+00 0. -1.
          3    1    5    5  503    0 -0.30025581576E+02 -0.90854064994E+03 -0.23465154397E+03  0.93883384858E+03  0.00000000000E+00 0. -1.
         -4    1    5    5    0  503 -0.16828166102E+02 -0.31373075750E+03 -0.12934856495E+03  0.33976642952E+03  0.00000000000E+00 0.  1.
         -3    1    6    6    0  502  0.11366731477E+03  0.18984034291E+02  0.19232657689E+02  0.11683555592E+03  0.00000000000E+00 0.  1.
<mgrwt>
<rscale>  0 0.27573353E+04</rscale>
<asrwt>0</asrwt>
<pdfrwt beam="1">  1        1 0.21567209E+00 0.27573353E+04</pdfrwt>
<pdfrwt beam="2">  1       -1 0.20859241E+00 0.27573353E+04</pdfrwt>
<totfact> 0.87470107E-01</totfact>
</mgrwt>
</event>
<event>
12    1  0.1397649E-007  0.2774850E+04  0.7818608E-02  0.8311119E-01
          2   -1    0    0  501    0  0.00000000000E+00  0.00000000000E+00  0.30924718174E+04  0.30924718174E+04  0.00000000000E+00 0. -1.
         -2   -1    0    0    0  501 -0.00000000000E+00 -0.00000000000E+00 -0.62246258335E+03  0.62246258335E+03  0.00000000000E+00 0.  1.
         23    2    1    2    0    0  0.58089205249E+03 -0.48213007915E+03 -0.20855147964E+03  0.78871296229E+03  0.93217097994E+02 0.  0.
        254    2    1    2    0    0 -0.58089205249E+03  0.48213007915E+03  0.26785607137E+04  0.29262214385E+04  0.90454376350E+03 0.  0.
        -24    2    4    4    0    0 -0.12597160605E+03 -0.21560110564E+03  0.11895337510E+04  0.12181737560E+04  0.81265447500E+02 0.  0.
         24    2    4    4    0    0 -0.45492044644E+03  0.69773118479E+03  0.14890269628E+04  0.17080476824E+04  0.80275593015E+02 0.  0.
         11    1    3    3    0    0  0.33754818201E+02 -0.48610018447E+01 -0.35993405651E+01  0.34292453153E+02  0.00000000000E+00 0. -1.
        -11    1    3    3    0    0  0.54713723429E+03 -0.47726907730E+03 -0.20495213908E+03  0.75442050914E+03  0.00000000000E+00 0.  1.
          2    1    6    6  502    0 -0.34389783705E+02  0.86409912721E+02  0.13302674803E+03  0.16231280274E+03  0.00000000000E+00 0. -1.
          1    1    5    5  503    0 -0.54058830437E+01 -0.77284611471E+02  0.29404954911E+03  0.30408431737E+03  0.00000000000E+00 0. -1.
         -2    1    5    5    0  503 -0.12056572300E+03 -0.13831649417E+03  0.89548420185E+03  0.91408943867E+03  0.00000000000E+00 0.  1.
         -1    1    6    6    0  502 -0.42053066274E+03  0.61132127207E+03  0.13560002147E+04  0.15457348797E+04  0.00000000000E+00 0.  1.
<mgrwt>
<rscale>  0 0.27748499E+04</rscale>
<asrwt>0</asrwt>
<pdfrwt beam="1">  1        2 0.47576489E+00 0.27748499E+04</pdfrwt>
<pdfrwt beam="2">  1       -2 0.95763476E-01 0.27748499E+04</pdfrwt>
<totfact> 0.12131584E+00</totfact>
</mgrwt>
</event>
<event>
12    1  0.1397649E-007  0.1987671E+04  0.7818608E-02  0.8612407E-01
          3   -1    0    0  501    0  0.00000000000E+00  0.00000000000E+00  0.91959798419E+03  0.91959798419E+03  0.00000000000E+00 0. -1.
         -3   -1    0    0    0  501 -0.00000000000E+00 -0.00000000000E+00 -0.10740660672E+04  0.10740660672E+04  0.00000000000E+00 0.  1.
         23    2    1    2    0    0  0.32476780694E+03 -0.68612067526E+03 -0.27443357403E+03  0.81230752477E+03  0.91071503775E+02 0.  0.
        254    2    1    2    0    0 -0.32476780694E+03  0.68612067526E+03  0.11996549097E+03  0.11813565267E+04  0.89720444416E+03 0.  0.
        -24    2    4    4    0    0 -0.22209079674E+03  0.82867429451E+03 -0.12361419606E+03  0.87040941610E+03  0.79414569197E+02 0.  0.
         24    2    4    4    0    0 -0.10267701020E+03 -0.14255361924E+03  0.24357968703E+03  0.31094711056E+03  0.80578774199E+02 0.  0.
         13    1    3    3    0    0  0.19391425835E+03 -0.31024521900E+03 -0.11431246362E+03  0.38330428493E+03  0.00000000000E+00 0. -1.
        -13    1    3    3    0    0  0.13085354859E+03 -0.37587545626E+03 -0.16012111042E+03  0.42900323984E+03  0.00000000000E+00 0.  1.
          2    1    6    6  502    0 -0.44869934283E+02 -0.92291935208E+02  0.19466925207E+03  0.22006187768E+03  0.00000000000E+00 0. -1.
          1    1    5    5  503    0 -0.18617360023E+03  0.60521473249E+03 -0.11741588417E+03  0.64399687243E+03  0.00000000000E+00 0. -1.
         -2    1    5    5    0  503 -0.35917196512E+02  0.22345956201E+03 -0.61983118870E+01  0.22641254367E+03  0.00000000000E+00 0.  1.
         -1    1    6    6    0  502 -0.57807075919E+02 -0.50261684035E+02  0.48910434960E+02  0.90885232883E+02  0.00000000000E+00 0.  1.
<mgrwt>
<rscale>  0 0.19876710E+04</rscale>
<asrwt>0</asrwt>
<pdfrwt beam="1">  1        3 0.14147661E+00 0.19876710E+04</pdfrwt>
<pdfrwt beam="2">  1       -3 0.16524093E+00 0.19876710E+04</pdfrwt>
<totfact> 0.22820130E-01</totfact>
</mgrwt>
</event>
<event>
12    1  0.1397649E-007  0.2835704E+04  0.7818608E-02  0.8292269E-01
          1   -1    0    0  501    0  0.00000000000E+00  0.00000000000E+00  0.25591438518E+04  0.25591438518E+04  0.00000000000E+00 0. -1.
         -1   -1    0    0    0  501 -0.00000000000E+00 -0.00000000000E+00 -0.78553768499E+03  0.78553768499E+03  0.00000000000E+00 0.  1.
         23    2    1    2    0    0 -0.22427803021E+03  0.31334885223E+02  0.22758096122E+04  0.22889081047E+04  0.92241047704E+02 0.  0.
        254    2    1    2    0    0  0.22427803021E+03 -0.31334885223E+02 -0.50220344538E+03  0.10557734321E+04  0.90064794982E+03 0.  0.
        -24    2    4    4    0    0 -0.62447694310E+02 -0.34742793687E+03 -0.50539488772E+03  0.62170556330E+03  0.80547681947E+02 0.  0.
         24    2    4    4    0    0  0.28672572452E+03  0.31609305165E+03  0.31914423439E+01  0.43406786880E+03  0.79235541386E+02 0.  0.
         13    1    3    3    0    0 -0.62576453903E+02  0.40199859363E+02  0.10184849488E+04  0.10211970585E+04  0.00000000000E+00 0.  1.
        -13    1    3    3    0    0 -0.16170157630E+03 -0.88649741399E+01  0.12573246633E+04  0.12677110462E+04  0.00000000000E+00 0. -1.
          4    1    6    6  502    0  0.11572309696E+03  0.73772183660E+02  0.76635573395E+01  0.13745144729E+03  0.00000000000E+00 0. -1.
          3    1    5    5  503    0 -0.80245104004E+02 -0.30253031656E+03 -0.45095678340E+03  0.54893158922E+03  0.00000000000E+00 0. -1.
         -4    1    5    5    0  503  0.17797409693E+02 -0.44897620313E+02 -0.54438104322E+02  0.72773974083E+02  0.00000000000E+00 0.  1.
         -3    1    6    6    0  502  0.17100262756E+03  0.24232086799E+03 -0.44721149956E+01  0.29661642150E+03  0.00000000000E+00 0.  1.
<mgrwt>
<rscale>  0 0.28357037E+04</rscale>
<asrwt>0</asrwt>
<pdfrwt beam="1">  1        1 0.39371443E+00 0.28357037E+04</pdfrwt>
<pdfrwt beam="2">  1       -1 0.12085195E+00 0.28357037E+04</pdfrwt>
<totfact> 0.64676711E-01</totfact>
</mgrwt>
</event>
<event>
12    1  0.1397649E-007  0.2100420E+04  0.7818608E-02  0.8561058E-01
         -2   -1    0    0    0  501 -0.00000000000E+00  0.00000000000E+00  0.11601554706E+04  0.11601554706E+04  0.00000000000E+00 0.  1.
          2   -1    0    0  501    0  0.00000000000E+00 -0.00000000000E+00 -0.95068391595E+03  0.95068391595E+03  0.00000000000E+00 0. -1.
         23    2    1    2    0    0 -0.42908762946E+03 -0.10745533182E+03  0.81619222056E+03  0.93275121655E+03  0.90511043442E+02 0.  0.
        254    2    1    2    0    0  0.42908762946E+03  0.10745533182E+03 -0.60672066587E+03  0.11780881700E+04  0.90780996244E+03 0.  0.
        -24    2    4    4    0    0  0.31658010557E+03 -0.69635811993E+02 -0.80980641723E+03  0.87530484791E+03  0.72801331279E+02 0.  0.
         24    2    4    4    0    0  0.11250752389E+03  0.17709114381E+03  0.20308575136E+03  0.30278332213E+03  0.80091832351E+02 0.  0.
         13    1    3    3    0    0 -0.16400901844E+03 -0.61975370389E+02  0.40611018228E+03  0.44234080166E+03  0.00000000000E+00 0. -1.
        -13    1    3    3    0    0 -0.26507861102E+03 -0.45479961430E+02  0.41008203828E+03  0.49041041489E+03  0.00000000000E+00 0.  1.
          4    1    6    6  502    0  0.10232990184E+03  0.11209061585E+03  0.17387111747E+03  0.23079618815E+03  0.00000000000E+00 0. -1.
          1    1    5    5  503    0  0.17379246093E+03 -0.74971110447E+02 -0.45304342949E+03  0.49099168617E+03  0.00000000000E+00 0. -1.
         -2    1    5    5    0  503  0.14278764464E+03  0.53352984546E+01 -0.35676298773E+03  0.38431316174E+03  0.00000000000E+00 0.  1.
         -3    1    6    6    0  502  0.10177622042E+02  0.65000527966E+02  0.29214633884E+02  0.71987133984E+02  0.00000000000E+00 0.  1.
<mgrwt>
<rscale>  0 0.21004201E+04</rscale>
<asrwt>0</asrwt>
<pdfrwt beam="1">  1        2 0.14625906E+00 0.21004201E+04</pdfrwt>
<pdfrwt beam="2">  1       -2 0.17848546E+00 0.21004201E+04</pdfrwt>
<totfact> 0.46415691E+00</totfact>
</mgrwt>
</event>
<event>
12    1  0.1397649E-007  0.1657414E+04  0.7818608E-02  0.8786032E-01
          3   -1    0    0  501    0  0.00000000000E+00  0.00000000000E+00  0.31092419719E+03  0.31092419719E+03  0.00000000000E+00 0. -1.
         -3   -1    0    0    0  501 -0.00000000000E+00 -0.00000000000E+00 -0.22087548494E+04  0.22087548494E+04  0.00000000000E+00 0.  1.
         23    2    1    2    0    0 -0.39342694012E+03 -0.33731841728E+03 -0.26899380937E+03  0.58947239329E+03  0.80941714370E+02 0.  0.
        254    2    1    2    0    0  0.39342694012E+03  0.33731841728E+03 -0.16288368428E+04  0.19302066533E+04  0.89667150728E+03 0.  0.
        -24    2    4    4    0    0  0.28365820074E+03  0.62679340723E+03 -0.91041255696E+03  0.11439117870E+04  0.79694431331E+02 0.  0.
         24    2    4    4    0    0  0.10976873939E+03 -0.28947498994E+03 -0.71842428584E+03  0.78629486625E+03  0.79254124592E+02 0.  0.
         11    1    3    3    0    0 -0.33708853141E+03 -0.24663688030E+03 -0.21008779840E+03  0.46754177543E+03  0.00000000000E+00 0. -1.
        -11    1    3    3    0    0 -0.56338408715E+02 -0.90681536977E+02 -0.58906010970E+02  0.12193061787E+03  0.00000000000E+00 0.  1.
          2    1    6    6  502    0  0.12159071254E+03 -0.26602010530E+03 -0.64217483358E+03  0.70564829390E+03  0.00000000000E+00 0. -1.
          3    1    5    5  503    0  0.28391988555E+03  0.61339866466E+03 -0.90478082161E+03  0.11293789259E+04  0.00000000000E+00 0. -1.
         -4    1    5    5    0  503 -0.26168481085E+00  0.13394742570E+02 -0.56317353454E+01  0.14532861056E+02  0.00000000000E+00 0.  1.
         -3    1    6    6    0  502 -0.11821973152E+02 -0.23454884644E+02 -0.76249452252E+02  0.80646572349E+02  0.00000000000E+00 0.  1.
<mgrwt>
<rscale>  0 0.16574140E+04</rscale>
<asrwt>0</asrwt>
<pdfrwt beam="1">  1        3 0.47834491E-01 0.16574140E+04</pdfrwt>
<pdfrwt beam="2">  1       -3 0.33980844E+00 0.16574140E+04</pdfrwt>
<totfact> 0.24864265E-01</totfact>
</mgrwt>
</event>
<event>
12    1  0.1397649E-007  0.1612901E+04  0.7818608E-02  0.8812661E-01
         -2   -1    0    0    0  501 -0.00000000000E+00  0.00000000000E+00  0.10552162036E+04  0.10552162036E+04  0.00000000000E+00 0.  1.
          2   -1    0    0  501    0  0.00000000000E+00 -0.00000000000E+00 -0.61633093859E+03  0.61633093859E+03  0.00000000000E+00 0. -1.
         23    2    1    2    0    0  0.11984703627E+03  0.31367563219E+03 -0.30031367338E+03  0.46053389991E+03  0.95642334821E+02 0.  0.
        254    2    1    2    0    0 -0.11984703627E+03 -0.31367563219E+03  0.73919893843E+03  0.12110132423E+04  0.89854453879E+03 0.  0.
        -24    2    4    4    0    0 -0.96442291307E+00 -0.38198947486E+03  0.90248403944E+03  0.98337996003E+03  0.81497333245E+02 0.  0.
         24    2    4    4    0    0 -0.11888261336E+03  0.68313842667E+02 -0.16328510101E+03  0.22763328230E+03  0.79718442907E+02 0.  0.
         11    1    3    3    0    0  0.67653433231E+02  0.10200480854E+03 -0.60839273643E+02  0.13668718012E+03  0.00000000000E+00 0.  1.
        -11    1    3    3    0    0  0.52193603042E+02  0.21167082365E+03 -0.23947439974E+03  0.32384671978E+03  0.00000000000E+00 0. -1.
          4    1    6    6  502    0 -0.11715443335E+03  0.46926220081E+02 -0.16303587072E+03  0.20617450503E+03  0.00000000000E+00 0. -1.
          3    1    5    5  503    0 -0.10004709253E+02 -0.37970169041E+03  0.89101976259E+03  0.96860192299E+03  0.00000000000E+00 0. -1.
         -4    1    5    5    0  503  0.90402863398E+01 -0.22877844446E+01  0.11464276856E+02  0.14778037035E+02  0.00000000000E+00 0.  1.
         -3    1    6    6    0  502 -0.17281800056E+01  0.21387622586E+02 -0.24923029378E+00  0.21458777266E+02  0.00000000000E+00 0.  1.
<mgrwt>
<rscale>  0 0.16129010E+04</rscale>
<asrwt>0</asrwt>
<pdfrwt beam="1">  1        2 0.94820145E-01 0.16129010E+04</pdfrwt>
<pdfrwt beam="2">  1       -2 0.16234095E+00 0.16129010E+04</pdfrwt>
<totfact> 0.11123481E+01</totfact>
</mgrwt>
</event>
<event>
12    1  0.1397649E-007  0.1664244E+04  0.7818608E-02  0.8782024E-01
         -1   -1    0    0    0  501 -0.00000000000E+00  0.00000000000E+00  0.26405689140E+03  0.26405689140E+03  0.00000000000E+00 0.  1.
          1   -1    0    0  501    0  0.00000000000E+00 -0.00000000000E+00 -0.26222630716E+04  0.26222630716E+04  0.00000000000E+00 0. -1.
         23    2    1    2    0    0 -0.42272873725E+02 -0.27284535482E+03  0.56920713826E+02  0.29618302728E+03  0.90845112591E+02 0.  0.
        254    2    1    2    0    0  0.42272873725E+02  0.27284535482E+03 -0.24151268940E+04  0.25901369357E+04  0.89428174982E+03 0.  0.
        -24    2    4    4    0    0  0.20494381754E+03  0.48497371798E+03 -0.21119579909E+04  0.21780816335E+04  0.80446076871E+02 0.  0.
         24    2    4    4    0    0 -0.16267094381E+03 -0.21212836315E+03 -0.30316890313E+03  0.41205530226E+03  0.80111858522E+02 0.  0.
         13    1    3    3    0    0 -0.19015598205E+02 -0.17933451205E+03 -0.71252419714E+01  0.18048055092E+03  0.00000000000E+00 0.  1.
        -13    1    3    3    0    0 -0.23257275520E+02 -0.93510842778E+02  0.64045955798E+02  0.11570247636E+03  0.00000000000E+00 0. -1.
          2    1    6    6  502    0 -0.12231493659E+03 -0.15795225533E+03 -0.16831768274E+03  0.26122921161E+03  0.00000000000E+00 0. -1.
          3    1    5    5  503    0  0.20542151655E+03  0.48051395405E+03 -0.20361612615E+04  0.21021523118E+04  0.00000000000E+00 0. -1.
         -4    1    5    5    0  503 -0.47769900718E+00  0.44597639293E+01 -0.75796729443E+02  0.75929321641E+02  0.00000000000E+00 0.  1.
         -1    1    6    6    0  502 -0.40356007226E+02 -0.54176107825E+02 -0.13485122039E+03  0.15082609065E+03  0.00000000000E+00 0.  1.
<mgrwt>
<rscale>  0 0.16642435E+04</rscale>
<asrwt>0</asrwt>
<pdfrwt beam="1">  1        1 0.40342510E+00 0.16642435E+04</pdfrwt>
<pdfrwt beam="2">  1       -1 0.40624135E-01 0.16642435E+04</pdfrwt>
<totfact> 0.63038836E+00</totfact>
</mgrwt>
</event>
<event>
12    1  0.1397649E-007  0.1795823E+04  0.7818608E-02  0.8708524E-01
         -1   -1    0    0    0  501 -0.00000000000E+00  0.00000000000E+00  0.12570666424E+04  0.12570666424E+04  0.00000000000E+00 0.  1.
          1   -1    0    0  501    0  0.00000000000E+00 -0.00000000000E+00 -0.64136986951E+03  0.64136986951E+03  0.00000000000E+00 0. -1.
         23    2    1    2    0    0 -0.31574861653E+03 -0.31432372581E+03  0.76678215427E+03  0.89142811951E+03  0.90513129965E+02 0.  0.
        254    2    1    2    0    0  0.31574861653E+03  0.31432372581E+03 -0.15108538135E+03  0.10070083924E+04  0.89036089115E+03 0.  0.
        -24    2    4    4    0    0  0.50447632467E+03  0.23711144505E+02  0.15830872341E+03  0.53552826219E+03  0.81671826037E+02 0.  0.
         24    2    4    4    0    0 -0.18872770814E+03  0.29061258131E+03 -0.30939410477E+03  0.47148013023E+03  0.80591444344E+02 0.  0.
         11    1    3    3    0    0 -0.15478421610E+03 -0.17667655510E+03  0.31965086523E+03  0.39667295637E+03  0.00000000000E+00 0.  1.
        -11    1    3    3    0    0 -0.16096440043E+03 -0.13764717071E+03  0.44713128905E+03  0.49475516314E+03  0.00000000000E+00 0. -1.
          4    1    6    6  502    0 -0.14257452957E+03  0.15409699283E+03 -0.20595100367E+03  0.29409045479E+03  0.00000000000E+00 0. -1.
          3    1    5    5  503    0  0.44252185876E+03 -0.62056080065E+01  0.13148086734E+03  0.46168314192E+03  0.00000000000E+00 0. -1.
         -4    1    5    5    0  503  0.61954465911E+02  0.29916752511E+02  0.26827856068E+02  0.73845120274E+02  0.00000000000E+00 0.  1.
         -3    1    6    6    0  502 -0.46153178568E+02  0.13651558848E+03 -0.10344310109E+03  0.17738967544E+03  0.00000000000E+00 0.  1.
<mgrwt>
<rscale>  0 0.17958226E+04</rscale>
<asrwt>0</asrwt>
<pdfrwt beam="1">  1        1 0.98672287E-01 0.17958226E+04</pdfrwt>
<pdfrwt beam="2">  1       -1 0.19339487E+00 0.17958226E+04</pdfrwt>
<totfact> 0.49045311E+00</totfact>
</mgrwt>
</event>
<event>
12    1  0.1397649E-007  0.2116813E+04  0.7818608E-02  0.8553873E-01
          2   -1    0    0  501    0  0.00000000000E+00  0.00000000000E+00  0.99324474535E+03  0.99324474535E+03  0.00000000000E+00 0.  1.
         -2   -1    0    0    0  501 -0.00000000000E+00 -0.00000000000E+00 -0.11278429717E+04  0.11278429717E+04  0.00000000000E+00 0. -1.
         23    2    1    2    0    0 -0.15674652846E+03 -0.47144015844E+03 -0.74873760689E+03  0.90444034848E+03  0.10285447395E+03 0.  0.
        254    2    1    2    0    0  0.15674652846E+03  0.47144015844E+03  0.61413938055E+03  0.12166473686E+04  0.92533147763E+03 0.  0.
        -24    2    4    4    0    0  0.20972617181E+03  0.62015926626E+03  0.93012360594E+02  0.66631283131E+03  0.82090847759E+02 0.  0.
         24    2    4    4    0    0 -0.52979643343E+02 -0.14871910782E+03  0.52112701996E+03  0.55033453724E+03  0.79815514249E+02 0.  0.
         13    1    3    3    0    0 -0.11683799561E+03 -0.44321325252E+03 -0.68209568464E+03  0.82179293464E+03  0.00000000000E+00 0. -1.
        -13    1    3    3    0    0 -0.39908532856E+02 -0.28226905918E+02 -0.66641922258E+02  0.82647413842E+02  0.00000000000E+00 0.  1.
          2    1    6    6  502    0 -0.83002590786E+01 -0.13790955359E+02  0.18086392037E+03  0.18157874998E+03  0.00000000000E+00 0. -1.
          3    1    5    5  503    0  0.19641854764E+02  0.69497212421E+02 -0.15197106536E+02  0.73801199448E+02  0.00000000000E+00 0. -1.
         -4    1    5    5    0  503  0.19008431704E+03  0.55066205384E+03  0.10820946713E+03  0.59251163187E+03  0.00000000000E+00 0.  1.
         -1    1    6    6    0  502 -0.44679384265E+02 -0.13492815246E+03  0.34026309958E+03  0.36875578727E+03  0.00000000000E+00 0.  1.
<mgrwt>
<rscale>  0 0.21168128E+04</rscale>
<asrwt>0</asrwt>
<pdfrwt beam="1">  1        2 0.15280688E+00 0.21168128E+04</pdfrwt>
<pdfrwt beam="2">  1       -2 0.17351430E+00 0.21168128E+04</pdfrwt>
<totfact> 0.47116133E+00</totfact>
</mgrwt>
</event>
<event>
12    1  0.1397649E-007  0.1651959E+04  0.7818608E-02  0.8789248E-01
         -1   -1    0    0    0  501 -0.00000000000E+00  0.00000000000E+00  0.38558826071E+03  0.38558826071E+03  0.00000000000E+00 0.  1.
          1   -1    0    0  501    0  0.00000000000E+00 -0.00000000000E+00 -0.17693540455E+04  0.17693540455E+04  0.00000000000E+00 0. -1.
         23    2    1    2    0    0 -0.35881785998E+03 -0.24454589299E+03  0.11965919319E+02  0.44427917158E+03  0.93208629725E+02 0.  0.
        254    2    1    2    0    0  0.35881785998E+03  0.24454589299E+03 -0.13957317041E+04  0.17106631346E+04  0.88867790563E+03 0.  0.
        -24    2    4    4    0    0  0.23221291294E+03  0.20809603141E+03 -0.14947797321E+04  0.15289974202E+04  0.78992836610E+02 0.  0.
         24    2    4    4    0    0  0.12660494703E+03  0.36449861576E+02  0.99048027981E+02  0.18166571446E+03  0.76383996624E+02 0.  0.
         13    1    3    3    0    0 -0.24126598265E+03 -0.21394179054E+03  0.29301354269E+01  0.32247317690E+03  0.00000000000E+00 0.  1.
        -13    1    3    3    0    0 -0.11755187733E+03 -0.30604102450E+02  0.90357838924E+01  0.12180599468E+03  0.00000000000E+00 0. -1.
          2    1    6    6  502    0  0.13214420686E+03  0.24869239281E+02  0.73906444634E+02  0.15343641363E+03  0.00000000000E+00 0. -1.
          1    1    5    5  503    0  0.64600057549E+02  0.52793609168E+02 -0.58708227206E+03  0.59298054502E+03  0.00000000000E+00 0. -1.
         -2    1    5    5    0  503  0.16761285539E+03  0.15530242225E+03 -0.90769746003E+03  0.93601687517E+03  0.00000000000E+00 0.  1.
         -1    1    6    6    0  502 -0.55392598246E+01  0.11580622295E+02  0.25141583347E+02  0.28229300830E+02  0.00000000000E+00 0.  1.
<mgrwt>
<rscale>  0 0.16519590E+04</rscale>
<asrwt>0</asrwt>
<pdfrwt beam="1">  1        1 0.27220832E+00 0.16519590E+04</pdfrwt>
<pdfrwt beam="2">  1       -1 0.59321271E-01 0.16519590E+04</pdfrwt>
<totfact> 0.11764960E+01</totfact>
</mgrwt>
</event>
<event>
12    1  0.1397649E-007  0.2114517E+04  0.7818608E-02  0.8554875E-01
          2   -1    0    0  501    0  0.00000000000E+00  0.00000000000E+00  0.37314297235E+04  0.37314297235E+04  0.00000000000E+00 0. -1.
         -2   -1    0    0    0  501 -0.00000000000E+00 -0.00000000000E+00 -0.29956233967E+03  0.29956233967E+03  0.00000000000E+00 0.  1.
         23    2    1    2    0    0 -0.12238679935E+03 -0.23300567398E+03  0.29900464453E+04  0.30030047452E+04  0.91594659163E+02 0.  0.
        254    2    1    2    0    0  0.12238679935E+03  0.23300567398E+03  0.44182093855E+03  0.10279873180E+04  0.89010224780E+03 0.  0.
        -24    2    4    4    0    0  0.23020341712E+03 -0.18938707935E+01  0.64485860536E+03  0.68953291024E+03  0.81337650572E+02 0.  0.
         24    2    4    4    0    0 -0.10781661776E+03  0.23489954477E+03 -0.20303766681E+03  0.33845440779E+03  0.80776684827E+02 0.  0.
         11    1    3    3    0    0 -0.71357081287E+02 -0.21125431795E+03  0.24408974944E+04  0.24510611575E+04  0.00000000000E+00 0. -1.
        -11    1    3    3    0    0 -0.51029718065E+02 -0.21751356027E+02  0.54914895094E+03  0.55194358764E+03  0.00000000000E+00 0.  1.
          2    1    6    6  502    0 -0.10362870720E+03  0.23801988644E+03 -0.18267110973E+03  0.31742890484E+03  0.00000000000E+00 0. -1.
          1    1    5    5  503    0  0.19165210949E+03 -0.20913674982E+02  0.44274986949E+03  0.48290305426E+03  0.00000000000E+00 0. -1.
         -2    1    5    5    0  503  0.38551307627E+02  0.19019804188E+02  0.20210873587E+03  0.20662985599E+03  0.00000000000E+00 0.  1.
         -1    1    6    6    0  502 -0.41879105634E+01 -0.31203416716E+01 -0.20366557087E+02  0.21025502957E+02  0.00000000000E+00 0.  1.
<mgrwt>
<rscale>  0 0.21145173E+04</rscale>
<asrwt>0</asrwt>
<pdfrwt beam="1">  1        2 0.57406608E+00 0.21145173E+04</pdfrwt>
<pdfrwt beam="2">  1       -2 0.46086517E-01 0.21145173E+04</pdfrwt>
<totfact> 0.22869508E+00</totfact>
</mgrwt>
</event>
<event>
12    1  0.1397649E-007  0.1960810E+04  0.7818608E-02  0.8625166E-01
          1   -1    0    0  501    0  0.00000000000E+00  0.00000000000E+00  0.19900139589E+04  0.19900139589E+04  0.00000000000E+00 0. -1.
         -1   -1    0    0    0  501 -0.00000000000E+00 -0.00000000000E+00 -0.48300869483E+03  0.48300869483E+03  0.00000000000E+00 0.  1.
         23    2    1    2    0    0 -0.29557819692E+03  0.12755093280E+03 -0.29225119621E+03  0.44407885184E+03  0.90330249724E+02 0.  0.
        254    2    1    2    0    0  0.29557819692E+03 -0.12755093280E+03  0.17992564603E+04  0.20289438019E+04  0.88071188845E+03 0.  0.
        -24    2    4    4    0    0 -0.38699226862E+02 -0.43226518803E+03  0.11667232199E+04  0.12473370873E+04  0.79094339446E+02 0.  0.
         24    2    4    4    0    0  0.33427742378E+03  0.30471425523E+03  0.63253324036E+03  0.78160671459E+03  0.78857990966E+02 0.  0.
         11    1    3    3    0    0 -0.13769741313E+02  0.87594819730E+01  0.55275148053E+01  0.17230430064E+02  0.00000000000E+00 0. -1.
        -11    1    3    3    0    0 -0.28180845561E+03  0.11879145082E+03 -0.29777871101E+03  0.42684842177E+03  0.00000000000E+00 0.  1.
          4    1    6    6  502    0  0.12999741161E+03  0.15470481223E+03  0.32987866478E+03  0.38684989263E+03  0.00000000000E+00 0. -1.
          3    1    5    5  503    0 -0.48529293818E+01 -0.35258916259E+03  0.88687339508E+03  0.95440404830E+03  0.00000000000E+00 0. -1.
         -4    1    5    5    0  503 -0.33846297481E+02 -0.79676025436E+02  0.27984982483E+03  0.29293303901E+03  0.00000000000E+00 0.  1.
         -3    1    6    6    0  502  0.20428001217E+03  0.15000944301E+03  0.30265457558E+03  0.39475682196E+03  0.00000000000E+00 0.  1.
<mgrwt>
<rscale>  0 0.19608101E+04</rscale>
<asrwt>0</asrwt>
<pdfrwt beam="1">  1        1 0.30615599E+00 0.19608101E+04</pdfrwt>
<pdfrwt beam="2">  1       -1 0.74309031E-01 0.19608101E+04</pdfrwt>
<totfact> 0.51353862E+00</totfact>
</mgrwt>
</event>
<event>
12    1  0.1397649E-007  0.2270611E+04  0.7818608E-02  0.8489600E-01
         -2   -1    0    0    0  501 -0.00000000000E+00  0.00000000000E+00  0.19229595843E+04  0.19229595843E+04  0.00000000000E+00 0. -1.
          2   -1    0    0  501    0  0.00000000000E+00 -0.00000000000E+00 -0.67027832692E+03  0.67027832692E+03  0.00000000000E+00 0.  1.
         23    2    1    2    0    0 -0.35891116356E+03  0.74181787004E+03 -0.19271585629E+02  0.82957194394E+03  0.93312595718E+02 0.  0.
        254    2    1    2    0    0  0.35891116356E+03 -0.74181787004E+03  0.12719528430E+04  0.17636659672E+04  0.90196598252E+03 0.  0.
        -24    2    4    4    0    0  0.56073067496E+03 -0.78063645924E+03  0.84360397699E+03  0.12811283000E+04  0.76222567655E+02 0.  0.
         24    2    4    4    0    0 -0.20181951141E+03  0.38818589193E+02  0.42834886597E+03  0.48253766720E+03  0.84391061366E+02 0.  0.
         11    1    3    3    0    0  0.40077605432E+01  0.29508072730E+01 -0.37644034197E+01  0.62402036216E+01  0.00000000000E+00 0. -1.
        -11    1    3    3    0    0 -0.36291892410E+03  0.73886706277E+03 -0.15507182209E+02  0.82333174032E+03  0.00000000000E+00 0.  1.
          4    1    6    6  502    0 -0.55386038858E+02 -0.15193757991E+02  0.63013507867E+02  0.85259402742E+02  0.00000000000E+00 0. -1.
          3    1    5    5  503    0  0.12961427597E+03 -0.13304207791E+03  0.17837472192E+03  0.25752203100E+03  0.00000000000E+00 0. -1.
         -4    1    5    5    0  503  0.43111639900E+03 -0.64759438132E+03  0.66522925507E+03  0.10236062690E+04  0.00000000000E+00 0.  1.
         -3    1    6    6    0  502 -0.14643347255E+03  0.54012347184E+02  0.36533535810E+03  0.39727826446E+03  0.00000000000E+00 0.  1.
<mgrwt>
<rscale>  0 0.22706106E+04</rscale>
<asrwt>0</asrwt>
<pdfrwt beam="1">  1        2 0.10311974E+00 0.22706106E+04</pdfrwt>
<pdfrwt beam="2">  1       -2 0.29583993E+00 0.22706106E+04</pdfrwt>
<totfact> 0.13259332E+00</totfact>
</mgrwt>
</event>
<event>
12    1  0.1397649E-007  0.1344942E+04  0.7818608E-02  0.8994666E-01
         -2   -1    0    0    0  501 -0.00000000000E+00  0.00000000000E+00  0.59129632870E+03  0.59129632870E+03  0.00000000000E+00 0.  1.
          2   -1    0    0  501    0  0.00000000000E+00 -0.00000000000E+00 -0.76478908637E+03  0.76478908637E+03  0.00000000000E+00 0. -1.
         23    2    1    2    0    0  0.22656496613E+03  0.20337023805E+03 -0.25487383705E+03  0.40765741669E+03  0.92372934141E+02 0.  0.
        254    2    1    2    0    0 -0.22656496613E+03 -0.20337023805E+03  0.81381079380E+02  0.94842799838E+03  0.89453990992E+03 0.  0.
        -24    2    4    4    0    0 -0.22149365256E+03  0.23556466254E+03  0.30277503047E+03  0.44983784667E+03  0.78302112744E+02 0.  0.
         24    2    4    4    0    0 -0.50713135698E+01 -0.43893490059E+03 -0.22139395109E+03  0.49859015171E+03  0.82989714032E+02 0.  0.
         11    1    3    3    0    0  0.12743044586E+03  0.11836707711E+03 -0.85546001064E+02  0.19382311981E+03  0.00000000000E+00 0.  1.
        -11    1    3    3    0    0  0.99134520275E+02  0.85003160944E+02 -0.16932783599E+03  0.21383429688E+03  0.00000000000E+00 0. -1.
          2    1    6    6  502    0 -0.13638981807E+02 -0.16591477158E+03 -0.41661641127E+02  0.17160834943E+03  0.00000000000E+00 0. -1.
          1    1    5    5  503    0 -0.89402781648E+02  0.65203715519E+02  0.62706897339E+02  0.12718701529E+03  0.00000000000E+00 0. -1.
         -2    1    5    5    0  503 -0.13209087092E+03  0.17036094702E+03  0.24006813313E+03  0.32265083138E+03  0.00000000000E+00 0.  1.
         -1    1    6    6    0  502  0.85676682374E+01 -0.27302012901E+03 -0.17973230996E+03  0.32698180229E+03  0.00000000000E+00 0.  1.
<mgrwt>
<rscale>  0 0.13449416E+04</rscale>
<asrwt>0</asrwt>
<pdfrwt beam="1">  1        2 0.11765986E+00 0.13449416E+04</pdfrwt>
<pdfrwt beam="2">  1       -2 0.90968666E-01 0.13449416E+04</pdfrwt>
<totfact> 0.36839516E+01</totfact>
</mgrwt>
</event>
<event>
12    1  0.1397649E-007  0.1271429E+04  0.7818608E-02  0.9052534E-01
         -1   -1    0    0    0  501 -0.00000000000E+00  0.00000000000E+00  0.69901089142E+03  0.69901089142E+03  0.00000000000E+00 0.  1.
          1   -1    0    0  501    0  0.00000000000E+00 -0.00000000000E+00 -0.57814958660E+03  0.57814958660E+03  0.00000000000E+00 0. -1.
         23    2    1    2    0    0  0.92310873236E+02 -0.73836575659E+02  0.32936760134E+03  0.36176390547E+03  0.91744042116E+02 0.  0.
        254    2    1    2    0    0 -0.92310873236E+02  0.73836575659E+02 -0.20850629652E+03  0.91539657255E+03  0.88346073604E+03 0.  0.
        -24    2    4    4    0    0  0.16881220868E+03 -0.33561691763E+03 -0.17196923077E+02  0.38571381424E+03  0.85692094949E+02 0.  0.
         24    2    4    4    0    0 -0.26112308191E+03  0.40945349329E+03 -0.19130937344E+03  0.52968275830E+03  0.90150546313E+02 0.  0.
         13    1    3    3    0    0  0.10063465906E+03 -0.87015112791E+02  0.28008540680E+03  0.31007547397E+03  0.00000000000E+00 0.  1.
        -13    1    3    3    0    0 -0.83237858258E+01  0.13178537132E+02  0.49282194546E+02  0.51688431497E+02  0.00000000000E+00 0. -1.
          4    1    6    6  502    0 -0.34758114968E+02  0.42726369143E+02  0.65549476481E+01  0.55467436528E+02  0.00000000000E+00 0. -1.
          3    1    5    5  503    0 -0.82250730801E+01 -0.36455718980E+02 -0.64730141216E+01  0.37928500964E+02  0.00000000000E+00 0. -1.
         -4    1    5    5    0  503  0.17703728176E+03 -0.29916119865E+03 -0.10723908956E+02  0.34778531328E+03  0.00000000000E+00 0.  1.
         -3    1    6    6    0  502 -0.22636496695E+03  0.36672712415E+03 -0.19786432109E+03  0.47421532177E+03  0.00000000000E+00 0.  1.
<mgrwt>
<rscale>  0 0.12714289E+04</rscale>
<asrwt>0</asrwt>
<pdfrwt beam="1">  1        1 0.88946090E-01 0.12714289E+04</pdfrwt>
<pdfrwt beam="2">  1       -1 0.10754014E+00 0.12714289E+04</pdfrwt>
<totfact> 0.28650897E+01</totfact>
</mgrwt>
</event>
<event>
12    1  0.1397649E-007  0.1679909E+04  0.7818608E-02  0.8772906E-01
          1   -1    0    0  501    0  0.00000000000E+00  0.00000000000E+00  0.14393307743E+04  0.14393307743E+04  0.00000000000E+00 0. -1.
         -1   -1    0    0    0  501 -0.00000000000E+00 -0.00000000000E+00 -0.49017494686E+03  0.49017494686E+03  0.00000000000E+00 0.  1.
         23    2    1    2    0    0 -0.27535031504E+03  0.17932800153E+03  0.83159154141E+03  0.89859637964E+03  0.89188752777E+02 0.  0.
        254    2    1    2    0    0  0.27535031504E+03 -0.17932800153E+03  0.11756428599E+03  0.10309093415E+04  0.97003937080E+03 0.  0.
        -24    2    4    4    0    0 -0.34920975785E+03 -0.15100874594E+03  0.31418936416E+01  0.39041912062E+03  0.87556392829E+02 0.  0.
         24    2    4    4    0    0  0.62456007289E+03 -0.28319255591E+02  0.11442239235E+03  0.64049022086E+03  0.79107359056E+02 0.  0.
         13    1    3    3    0    0 -0.10091965811E+03  0.37276275927E+02  0.36640296100E+03  0.38187095722E+03  0.00000000000E+00 0. -1.
        -13    1    3    3    0    0 -0.17443065693E+03  0.14205172560E+03  0.46518858041E+03  0.51672542241E+03  0.00000000000E+00 0.  1.
          2    1    6    6  502    0  0.41204592849E+03 -0.50872960058E+02  0.94977820410E+02  0.42589986102E+03  0.00000000000E+00 0. -1.
          3    1    5    5  503    0 -0.29138122092E+03 -0.11839082553E+03  0.35588350890E+02  0.31652161726E+03  0.00000000000E+00 0. -1.
         -4    1    5    5    0  503 -0.57828536930E+02 -0.32617920406E+02 -0.32446457248E+02  0.73897503361E+02  0.00000000000E+00 0.  1.
         -1    1    6    6    0  502  0.21251414441E+03  0.22553704467E+02  0.19444571936E+02  0.21459035984E+03  0.00000000000E+00 0.  1.
<mgrwt>
<rscale>  0 0.16799094E+04</rscale>
<asrwt>0</asrwt>
<pdfrwt beam="1">  1        1 0.22143550E+00 0.16799094E+04</pdfrwt>
<pdfrwt beam="2">  1       -1 0.75411531E-01 0.16799094E+04</pdfrwt>
<totfact> 0.12147444E+01</totfact>
</mgrwt>
</event>
<event>
12    1  0.1397649E-007  0.1719374E+04  0.7818608E-02  0.8750391E-01
         -2   -1    0    0    0  501 -0.00000000000E+00  0.00000000000E+00  0.38299888284E+03  0.38299888284E+03  0.00000000000E+00 0.  1.
          2   -1    0    0  501    0  0.00000000000E+00 -0.00000000000E+00 -0.19296706130E+04  0.19296706130E+04  0.00000000000E+00 0. -1.
         23    2    1    2    0    0  0.46271340266E+03  0.39424492855E+03 -0.40512190269E+03  0.73615614724E+03  0.90936023599E+02 0.  0.
        254    2    1    2    0    0 -0.46271340266E+03 -0.39424492855E+03 -0.11415498274E+04  0.15765133486E+04  0.90151293556E+03 0.  0.
        -24    2    4    4    0    0 -0.26276010737E+03  0.20347043622E+03 -0.76532510464E+03  0.83811889555E+03  0.79231779318E+02 0.  0.
         24    2    4    4    0    0 -0.19995329529E+03 -0.59771536477E+03 -0.37622472279E+03  0.73839445300E+03  0.80226857119E+02 0.  0.
         11    1    3    3    0    0  0.13240671055E+03  0.10127678341E+03 -0.16049957422E+03  0.23140578467E+03  0.00000000000E+00 0.  1.
        -11    1    3    3    0    0  0.33030669211E+03  0.29296814514E+03 -0.24462232847E+03  0.50475036256E+03  0.00000000000E+00 0. -1.
          2    1    6    6  502    0 -0.16332415802E+02 -0.14930925836E+02 -0.25891546726E+02  0.34059544097E+02  0.00000000000E+00 0. -1.
          3    1    5    5  503    0 -0.46332485700E+02  0.56713695605E+01 -0.13744613559E+03  0.14515613611E+03  0.00000000000E+00 0. -1.
         -4    1    5    5    0  503 -0.21642762167E+03  0.19779906666E+03 -0.62787896905E+03  0.69296275944E+03  0.00000000000E+00 0.  1.
         -1    1    6    6    0  502 -0.18362087949E+03 -0.58278443893E+03 -0.35033317606E+03  0.70433490890E+03  0.00000000000E+00 0.  1.
<mgrwt>
<rscale>  0 0.17193739E+04</rscale>
<asrwt>0</asrwt>
<pdfrwt beam="1">  1        2 0.29687240E+00 0.17193739E+04</pdfrwt>
<pdfrwt beam="2">  1       -2 0.58922906E-01 0.17193739E+04</pdfrwt>
<totfact> 0.18691666E+01</totfact>
</mgrwt>
</event>
<event>
12    1  0.1397649E-007  0.1655775E+04  0.7818608E-02  0.8786997E-01
         -1   -1    0    0    0  501 -0.00000000000E+00  0.00000000000E+00  0.88702926550E+03  0.88702926550E+03  0.00000000000E+00 0.  1.
          1   -1    0    0  501    0  0.00000000000E+00 -0.00000000000E+00 -0.77268919642E+03  0.77268919642E+03  0.00000000000E+00 0. -1.
         23    2    1    2    0    0 -0.84693925664E+00  0.48308090112E+03 -0.28210019753E+03  0.56704121290E+03  0.92667908932E+02 0.  0.
        254    2    1    2    0    0  0.84693925664E+00 -0.48308090112E+03  0.39644026661E+03  0.10926772490E+04  0.89633186444E+03 0.  0.
        -24    2    4    4    0    0  0.20217622011E+03 -0.12056892464E+03  0.58098659599E+03  0.63189579864E+03  0.79591369240E+02 0.  0.
         24    2    4    4    0    0 -0.20132928085E+03 -0.36251197648E+03 -0.18454632938E+03  0.46078145038E+03  0.79459328641E+02 0.  0.
         11    1    3    3    0    0  0.12084805525E+02  0.38981856751E+03 -0.18455765995E+03  0.43146968370E+03  0.00000000000E+00 0. -1.
        -11    1    3    3    0    0 -0.12931744782E+02  0.93262333605E+02 -0.97542537577E+02  0.13557152920E+03  0.00000000000E+00 0.  1.
          4    1    6    6  502    0 -0.20092573174E+03 -0.36599078522E+03 -0.18589183836E+03  0.45702973657E+03  0.00000000000E+00 0. -1.
          1    1    5    5  503    0  0.11728227359E+03 -0.10757124859E+03  0.42516665099E+03  0.45397509440E+03  0.00000000000E+00 0. -1.
         -2    1    5    5    0  503  0.84893946522E+02 -0.12997676045E+02  0.15581994500E+03  0.17792070424E+03  0.00000000000E+00 0.  1.
         -3    1    6    6    0  502 -0.40354910879E+00  0.34788087378E+01  0.13455089774E+01  0.37517138118E+01  0.00000000000E+00 0.  1.
<mgrwt>
<rscale>  0 0.16557753E+04</rscale>
<asrwt>0</asrwt>
<pdfrwt beam="1">  1        1 0.11887526E+00 0.16557753E+04</pdfrwt>
<pdfrwt beam="2">  1       -1 0.13646604E+00 0.16557753E+04</pdfrwt>
<totfact> 0.10002112E+01</totfact>
</mgrwt>
</event>
<event>
12    1  0.1397649E-007  0.1680419E+04  0.7818608E-02  0.8772612E-01
         -2   -1    0    0    0  501 -0.00000000000E+00  0.00000000000E+00  0.44452374880E+03  0.44452374880E+03  0.00000000000E+00 0.  1.
          2   -1    0    0  501    0  0.00000000000E+00 -0.00000000000E+00 -0.15881077904E+04  0.15881077904E+04  0.00000000000E+00 0. -1.
         23    2    1    2    0    0  0.26727274235E+03  0.41566142140E+03 -0.90615749548E+01  0.50292019705E+03  0.92938024598E+02 0.  0.
        254    2    1    2    0    0 -0.26727274235E+03 -0.41566142140E+03 -0.11345224667E+04  0.15297113422E+04  0.89925882090E+03 0.  0.
        -24    2    4    4    0    0  0.12230867085E+03 -0.21337872770E+03  0.51028607346E+02  0.26351382416E+03  0.79660054975E+02 0.  0.
         24    2    4    4    0    0 -0.38958141320E+03 -0.20228269370E+03 -0.11855510740E+04  0.12661975180E+04  0.70942510840E+02 0.  0.
         11    1    3    3    0    0  0.24869240504E+03  0.34184332300E+03  0.15254972744E+02  0.42301002825E+03  0.00000000000E+00 0.  1.
        -11    1    3    3    0    0  0.18580337309E+02  0.73818098401E+02 -0.24316547699E+02  0.79910168803E+02  0.00000000000E+00 0. -1.
          4    1    6    6  502    0 -0.69700240275E+02 -0.28474989444E+02 -0.28668407788E+03  0.29640632420E+03  0.00000000000E+00 0. -1.
          3    1    5    5  503    0 -0.58746509051E+01  0.27521067749E+00 -0.54701194617E+01  0.80317788253E+01  0.00000000000E+00 0. -1.
         -4    1    5    5    0  503  0.12818332175E+03 -0.21365393838E+03  0.56498726808E+02  0.25548204534E+03  0.00000000000E+00 0.  1.
         -3    1    6    6    0  502 -0.31988117292E+03 -0.17380770425E+03 -0.89886699614E+03  0.96979119382E+03  0.00000000000E+00 0.  1.
<mgrwt>
<rscale>  0 0.16804186E+04</rscale>
<asrwt>0</asrwt>
<pdfrwt beam="1">  1        2 0.24432428E+00 0.16804186E+04</pdfrwt>
<pdfrwt beam="2">  1       -2 0.68388269E-01 0.16804186E+04</pdfrwt>
<totfact> 0.21105290E+01</totfact>
</mgrwt>
</event>
<event>
12    1  0.1397649E-007  0.1067679E+04  0.7818608E-02  0.9237279E-01
         -2   -1    0    0    0  501 -0.00000000000E+00  0.00000000000E+00  0.71503628399E+03  0.71503628399E+03  0.00000000000E+00 0.  1.
          2   -1    0    0  501    0  0.00000000000E+00 -0.00000000000E+00 -0.39855992959E+03  0.39855992959E+03  0.00000000000E+00 0. -1.
         23    2    1    2    0    0  0.13410686315E+03 -0.12602704842E+02  0.11047097636E+02  0.16334746271E+03  0.91743535429E+02 0.  0.
        254    2    1    2    0    0 -0.13410686315E+03  0.12602704842E+02  0.30542925677E+03  0.95024875088E+03  0.88968656208E+03 0.  0.
        -24    2    4    4    0    0 -0.35825270724E+02 -0.41927257985E+03  0.25046015719E+03  0.49532904966E+03  0.74482419817E+02 0.  0.
         24    2    4    4    0    0 -0.98281592430E+02  0.43187528469E+03  0.54969099572E+02  0.45491970121E+03  0.88061340595E+02 0.  0.
         13    1    3    3    0    0  0.14754008493E+03 -0.15777662399E+02  0.14589510834E+02  0.14909683135E+03  0.00000000000E+00 0.  1.
        -13    1    3    3    0    0 -0.13433221778E+02  0.31749575568E+01 -0.35424131983E+01  0.14250631358E+02  0.00000000000E+00 0. -1.
          2    1    6    6  502    0 -0.56822402308E+02  0.15414513793E+03  0.57629273467E+02  0.17409951784E+03  0.00000000000E+00 0. -1.
          3    1    5    5  503    0 -0.65656308080E+01 -0.30153081471E+03  0.14531599792E+03  0.33478452619E+03  0.00000000000E+00 0. -1.
         -4    1    5    5    0  503 -0.29259639916E+02 -0.11774176514E+03  0.10514415927E+03  0.16054452347E+03  0.00000000000E+00 0.  1.
         -1    1    6    6    0  502 -0.41459190122E+02  0.27773014676E+03 -0.26601738950E+01  0.28082018338E+03  0.00000000000E+00 0.  1.
<mgrwt>
<rscale>  0 0.10676794E+04</rscale>
<asrwt>0</asrwt>
<pdfrwt beam="1">  1        2 0.61316912E-01 0.10676794E+04</pdfrwt>
<pdfrwt beam="2">  1       -2 0.11000558E+00 0.10676794E+04</pdfrwt>
<totfact> 0.52172806E+01</totfact>
</mgrwt>
</event>
<event>
12    1  0.1397649E-007  0.1385195E+04  0.7818608E-02  0.8964606E-01
         -2   -1    0    0    0  501 -0.00000000000E+00  0.00000000000E+00  0.65061241019E+03  0.65061241019E+03  0.00000000000E+00 0. -1.
          2   -1    0    0  501    0  0.00000000000E+00 -0.00000000000E+00 -0.73729168373E+03  0.73729168373E+03  0.00000000000E+00 0.  1.
         23    2    1    2    0    0  0.23675803444E+03 -0.13720439860E+03 -0.31246002596E+03  0.42492497988E+03  0.89724895309E+02 0.  0.
        254    2    1    2    0    0 -0.23675803444E+03  0.13720439860E+03  0.22578075242E+03  0.96297911403E+03  0.89524991597E+03 0.  0.
        -24    2    4    4    0    0 -0.50312630647E+02 -0.37088432422E+03  0.14483675630E+03  0.40999032642E+03  0.83832207579E+02 0.  0.
         24    2    4    4    0    0 -0.18644540379E+03  0.50808872283E+03  0.80943996116E+02  0.55298878761E+03  0.79552686054E+02 0.  0.
         13    1    3    3    0    0  0.23997512028E+03 -0.13880958940E+03 -0.28632957891E+03  0.39854835117E+03  0.00000000000E+00 0. -1.
        -13    1    3    3    0    0 -0.32170858489E+01  0.16051907970E+01 -0.26130447053E+02  0.26376628709E+02  0.00000000000E+00 0.  1.
          2    1    6    6  502    0 -0.14297558386E+01  0.87760221707E+02  0.14481855079E+02  0.88958556881E+02  0.00000000000E+00 0. -1.
          1    1    5    5  503    0 -0.55527150699E+02 -0.11785178810E+03  0.43116988902E+02  0.13722748688E+03  0.00000000000E+00 0. -1.
         -4    1    5    5    0  503  0.52145200521E+01 -0.25303253613E+03  0.10171976740E+03  0.27276283955E+03  0.00000000000E+00 0.  1.
         -1    1    6    6    0  502 -0.18501564795E+03  0.42032850112E+03  0.66462141038E+02  0.46403023073E+03  0.00000000000E+00 0.  1.
<mgrwt>
<rscale>  0 0.13851947E+04</rscale>
<asrwt>0</asrwt>
<pdfrwt beam="1">  1        2 0.11342949E+00 0.13851947E+04</pdfrwt>
<pdfrwt beam="2">  1       -2 0.10009422E+00 0.13851947E+04</pdfrwt>
<totfact> 0.30794561E+01</totfact>
</mgrwt>
</event>
<event>
12    1  0.1397649E-007  0.1641884E+04  0.7818608E-02  0.8795222E-01
          2   -1    0    0  501    0  0.00000000000E+00  0.00000000000E+00  0.46876558048E+03  0.46876558048E+03  0.00000000000E+00 0. -1.
         -2   -1    0    0    0  501 -0.00000000000E+00 -0.00000000000E+00 -0.14377034215E+04  0.14377034215E+04  0.00000000000E+00 0.  1.
         23    2    1    2    0    0 -0.45085513500E+03  0.29883030349E+03 -0.14545165237E+03  0.56736316811E+03  0.90415033652E+02 0.  0.
        254    2    1    2    0    0  0.45085513500E+03 -0.29883030349E+03 -0.82348618870E+03  0.13391058339E+04  0.90692062960E+03 0.  0.
        -24    2    4    4    0    0  0.69287979688E+03 -0.34984526987E+03 -0.71235442131E+03  0.10565824986E+04  0.80272218148E+02 0.  0.
         24    2    4    4    0    0 -0.24202466188E+03  0.51014966380E+02 -0.11113176740E+03  0.28252333531E+03  0.79313942782E+02 0.  0.
         13    1    3    3    0    0 -0.33082845665E+03  0.18342123930E+03 -0.70613043473E+02  0.38480777105E+03  0.00000000000E+00 0. -1.
        -13    1    3    3    0    0 -0.12002667836E+03  0.11540906418E+03 -0.74838608895E+02  0.18255539706E+03  0.00000000000E+00 0.  1.
          2    1    6    6  502    0 -0.24001555237E+03  0.39431776743E+02 -0.91964675768E+02  0.26003813563E+03  0.00000000000E+00 0. -1.
          1    1    5    5  503    0  0.64326875664E+03 -0.30178283177E+03 -0.63580617461E+03  0.95347630411E+03  0.00000000000E+00 0. -1.
         -2    1    5    5    0  503  0.49611040244E+02 -0.48062438095E+02 -0.76548246696E+02  0.10310619449E+03  0.00000000000E+00 0.  1.
         -1    1    6    6    0  502 -0.20091095135E+01  0.11583189637E+02 -0.19167091627E+02  0.22485199680E+02  0.00000000000E+00 0.  1.
<mgrwt>
<rscale>  0 0.16418841E+04</rscale>
<asrwt>0</asrwt>
<pdfrwt beam="1">  1        2 0.72117783E-01 0.16418841E+04</pdfrwt>
<pdfrwt beam="2">  1       -2 0.22118514E+00 0.16418841E+04</pdfrwt>
<totfact> 0.61574667E+00</totfact>
</mgrwt>
</event>
<event>
12    1  0.1397649E-007  0.2337630E+04  0.7818608E-02  0.8463230E-01
         -2   -1    0    0    0  501 -0.00000000000E+00  0.00000000000E+00  0.69855561298E+03  0.69855561298E+03  0.00000000000E+00 0.  1.
          2   -1    0    0  501    0  0.00000000000E+00 -0.00000000000E+00 -0.19556472950E+04  0.19556472950E+04  0.00000000000E+00 0. -1.
         23    2    1    2    0    0 -0.15990464252E+03  0.65569998509E+02 -0.16420432436E+04  0.16536190114E+04  0.90999459035E+02 0.  0.
        254    2    1    2    0    0  0.15990464252E+03 -0.65569998509E+02  0.38495156155E+03  0.10005838966E+04  0.90725493112E+03 0.  0.
        -24    2    4    4    0    0 -0.27898280756E+03 -0.29940301778E+03  0.13525763093E+03  0.43862754481E+03  0.81399768840E+02 0.  0.
         24    2    4    4    0    0  0.43888745008E+03  0.23383301927E+03  0.24969393062E+03  0.56195635182E+03  0.78407956349E+02 0.  0.
         11    1    3    3    0    0 -0.15535206572E+03  0.46656783537E+02 -0.11717962316E+04  0.11829697917E+04  0.00000000000E+00 0. -1.
        -11    1    3    3    0    0 -0.45525768075E+01  0.18913214973E+02 -0.47024701200E+03  0.47064921964E+03  0.00000000000E+00 0.  1.
          2    1    6    6  502    0  0.40984784815E+02  0.46106224393E+02  0.46964026458E+02  0.77531647056E+02  0.00000000000E+00 0. -1.
          1    1    5    5  503    0 -0.12828335342E+03 -0.91503427037E+02  0.26568043433E+02  0.15979786249E+03  0.00000000000E+00 0. -1.
         -2    1    5    5    0  503 -0.15069945413E+03 -0.20789959075E+03  0.10868958750E+03  0.27882968231E+03  0.00000000000E+00 0.  1.
         -1    1    6    6    0  502  0.39790266526E+03  0.18772679488E+03  0.20272990416E+03  0.48442470476E+03  0.00000000000E+00 0.  1.
<mgrwt>
<rscale>  0 0.23376299E+04</rscale>
<asrwt>0</asrwt>
<pdfrwt beam="1">  1        2 0.30086881E+00 0.23376299E+04</pdfrwt>
<pdfrwt beam="2">  1       -2 0.10747010E+00 0.23376299E+04</pdfrwt>
<totfact> 0.44424253E+00</totfact>
</mgrwt>
</event>
<event>
12    1  0.1397649E-007  0.1086382E+04  0.7818608E-02  0.9218567E-01
          1   -1    0    0  501    0  0.00000000000E+00  0.00000000000E+00  0.14403626194E+04  0.14403626194E+04  0.00000000000E+00 0. -1.
         -1   -1    0    0    0  501 -0.00000000000E+00 -0.00000000000E+00 -0.20484879115E+03  0.20484879115E+03  0.00000000000E+00 0.  1.
         23    2    1    2    0    0  0.63692064721E+02 -0.12309710477E+02 -0.59423437243E+01  0.11160648038E+03  0.90622772708E+02 0.  0.
        254    2    1    2    0    0 -0.63692064721E+02  0.12309710477E+02  0.12414561720E+04  0.15336049302E+04  0.89806594793E+03 0.  0.
        -24    2    4    4    0    0 -0.32110330016E+03 -0.48560850982E+01  0.79215235676E+02  0.34029011661E+03  0.79946225448E+02 0.  0.
         24    2    4    4    0    0  0.25741123544E+03  0.17165795575E+02  0.11622409363E+04  0.11933148135E+04  0.81492586150E+02 0.  0.
         11    1    3    3    0    0  0.70309049033E+02 -0.10053880814E+02 -0.36782616676E+02  0.79983772010E+02  0.00000000000E+00 0.  1.
        -11    1    3    3    0    0 -0.66169843126E+01 -0.22558296626E+01  0.30840272952E+02  0.31622708369E+02  0.00000000000E+00 0. -1.
          2    1    6    6  502    0  0.21910577917E+03  0.13329042859E+02  0.10853451138E+04  0.11073206500E+04  0.00000000000E+00 0. -1.
          1    1    5    5  503    0 -0.18251361919E+03 -0.13590339463E+02  0.55657857719E+01  0.18310351304E+03  0.00000000000E+00 0. -1.
         -2    1    5    5    0  503 -0.13858968097E+03  0.87342543651E+01  0.73649449904E+02  0.15718660357E+03  0.00000000000E+00 0.  1.
         -1    1    6    6    0  502  0.38305456266E+02  0.38367527165E+01  0.76895822523E+02  0.85994163597E+02  0.00000000000E+00 0.  1.
<mgrwt>
<rscale>  0 0.10863821E+04</rscale>
<asrwt>0</asrwt>
<pdfrwt beam="1">  1        1 0.22159424E+00 0.10863821E+04</pdfrwt>
<pdfrwt beam="2">  1       -1 0.31515200E-01 0.10863821E+04</pdfrwt>
<totfact> 0.67129103E+01</totfact>
</mgrwt>
</event>
<event>
12    1  0.1397649E-007  0.1583934E+04  0.7818608E-02  0.8830479E-01
         -2   -1    0    0    0  501 -0.00000000000E+00  0.00000000000E+00  0.42568305309E+03  0.42568305309E+03  0.00000000000E+00 0.  1.
          2   -1    0    0  501    0  0.00000000000E+00 -0.00000000000E+00 -0.14734244429E+04  0.14734244429E+04  0.00000000000E+00 0. -1.
         23    2    1    2    0    0 -0.43670998613E+02  0.11525742499E+02 -0.99969526910E+03  0.10049026030E+04  0.91643939262E+02 0.  0.
        254    2    1    2    0    0  0.43670998613E+02 -0.11525742499E+02 -0.48046120668E+02  0.89420489294E+03  0.89177012844E+03 0.  0.
        -24    2    4    4    0    0  0.43120527805E+03 -0.10096053005E+03 -0.15467514614E+03  0.47479986339E+03  0.73344999786E+02 0.  0.
         24    2    4    4    0    0 -0.38753427944E+03  0.89434787550E+02  0.10662902547E+03  0.41940502955E+03  0.79683315536E+02 0.  0.
         13    1    3    3    0    0 -0.38478671637E+02  0.28444499173E+02 -0.22624368604E+03  0.23124857443E+03  0.00000000000E+00 0. -1.
        -13    1    3    3    0    0 -0.51923269757E+01 -0.16918756674E+02 -0.77345158306E+03  0.77365402857E+03  0.00000000000E+00 0.  1.
          4    1    6    6  502    0 -0.16099853509E+03  0.75026376495E+01  0.15769601686E+02  0.16194288564E+03  0.00000000000E+00 0. -1.
          3    1    5    5  503    0  0.39777104306E+03 -0.71118040287E+02 -0.13991133002E+03  0.42761519923E+03  0.00000000000E+00 0. -1.
         -4    1    5    5    0  503  0.33434234993E+02 -0.29842489762E+02 -0.14763816124E+02  0.47184664154E+02  0.00000000000E+00 0.  1.
         -3    1    6    6    0  502 -0.22653574435E+03  0.81932149901E+02  0.90859423786E+02  0.25746214391E+03  0.00000000000E+00 0.  1.
<mgrwt>
<rscale>  0 0.15839341E+04</rscale>
<asrwt>0</asrwt>
<pdfrwt beam="1">  1        2 0.22668069E+00 0.15839341E+04</pdfrwt>
<pdfrwt beam="2">  1       -2 0.65489700E-01 0.15839341E+04</pdfrwt>
<totfact> 0.27100788E+01</totfact>
</mgrwt>
</event>
<event>
12    1  0.1397649E-007  0.1521413E+04  0.7818608E-02  0.8870337E-01
          2   -1    0    0  501    0  0.00000000000E+00  0.00000000000E+00  0.23412845740E+04  0.23412845740E+04  0.00000000000E+00 0. -1.
         -2   -1    0    0    0  501 -0.00000000000E+00 -0.00000000000E+00 -0.24716107569E+03  0.24716107569E+03  0.00000000000E+00 0.  1.
         23    2    1    2    0    0 -0.26300205250E+03  0.96886942408E+02  0.25522738003E+01  0.29447577950E+03  0.90290151102E+02 0.  0.
        254    2    1    2    0    0  0.26300205250E+03 -0.96886942408E+02  0.20915712245E+04  0.22939698702E+04  0.89948341780E+03 0.  0.
        -24    2    4    4    0    0 -0.16478192661E+03  0.28427634700E+03  0.10364160309E+04  0.10906277002E+04  0.85699863605E+02 0.  0.
         24    2    4    4    0    0  0.42778397911E+03 -0.38116328941E+03  0.10551551936E+04  0.12033421700E+04  0.79970678380E+02 0.  0.
         11    1    3    3    0    0 -0.14602356454E+03  0.58750302732E+02 -0.43178120306E+02  0.16321406050E+03  0.00000000000E+00 0.  1.
        -11    1    3    3    0    0 -0.11697848796E+03  0.38136639676E+02  0.45730394106E+02  0.13126171900E+03  0.00000000000E+00 0. -1.
          2    1    6    6  502    0  0.38199889161E+03 -0.32028802925E+03  0.86288054090E+03  0.99652917807E+03  0.00000000000E+00 0. -1.
          1    1    5    5  503    0 -0.16981190791E+03  0.27664878010E+03  0.10285967410E+04  0.10786018205E+04  0.00000000000E+00 0. -1.
         -2    1    5    5    0  503  0.50299812967E+01  0.76275668962E+01  0.78192898645E+01  0.12025879701E+02  0.00000000000E+00 0.  1.
         -1    1    6    6    0  502  0.45785087495E+02 -0.60875260152E+02  0.19227465271E+03  0.20681299188E+03  0.00000000000E+00 0.  1.
<mgrwt>
<rscale>  0 0.15214130E+04</rscale>
<asrwt>0</asrwt>
<pdfrwt beam="1">  1        2 0.36019761E+00 0.15214130E+04</pdfrwt>
<pdfrwt beam="2">  1       -2 0.38024782E-01 0.15214130E+04</pdfrwt>
<totfact> 0.27094216E+01</totfact>
</mgrwt>
</event>
<event>
12    1  0.1397649E-007  0.4534171E+04  0.7818608E-02  0.7904682E-01
         -1   -1    0    0    0  501 -0.00000000000E+00  0.00000000000E+00  0.21855099347E+04  0.21855099347E+04  0.00000000000E+00 0.  1.
          1   -1    0    0  501    0  0.00000000000E+00 -0.00000000000E+00 -0.23517055747E+04  0.23517055747E+04  0.00000000000E+00 0. -1.
         23    2    1    2    0    0  0.18837766794E+03 -0.35136867959E+03  0.20608254320E+04  0.21009844029E+04  0.90487045194E+02 0.  0.
        254    2    1    2    0    0 -0.18837766794E+03  0.35136867959E+03 -0.22270210720E+04  0.24362311065E+04  0.90368858259E+03 0.  0.
        -24    2    4    4    0    0 -0.19036334933E+02 -0.29706716218E+03 -0.79643921829E+03  0.85399714294E+03  0.79902508292E+02 0.  0.
         24    2    4    4    0    0 -0.16934133300E+03  0.64843584177E+03 -0.14305818537E+04  0.15822339635E+04  0.88058771705E+02 0.  0.
         11    1    3    3    0    0  0.54820844539E+02 -0.40367563708E+02  0.43570876679E+03  0.44099545876E+03  0.00000000000E+00 0. -1.
        -11    1    3    3    0    0  0.13355682340E+03 -0.31100111588E+03  0.16251166652E+04  0.16599889442E+04  0.00000000000E+00 0.  1.
          4    1    6    6  502    0 -0.13487309013E+03  0.59598952302E+03 -0.13303412271E+04  0.14639679103E+04  0.00000000000E+00 0. -1.
          3    1    5    5  503    0 -0.43169871673E+02 -0.24475575879E+03 -0.60445661217E+03  0.65355704822E+03  0.00000000000E+00 0. -1.
         -4    1    5    5    0  503  0.24133536739E+02 -0.52311403385E+02 -0.19198260611E+03  0.20044009472E+03  0.00000000000E+00 0.  1.
         -3    1    6    6    0  502 -0.34468242874E+02  0.52446318744E+02 -0.10024062664E+03  0.11826605322E+03  0.00000000000E+00 0.  1.
<mgrwt>
<rscale>  0 0.45341707E+04</rscale>
<asrwt>0</asrwt>
<pdfrwt beam="1">  1        1 0.36180086E+00 0.45341707E+04</pdfrwt>
<pdfrwt beam="2">  1       -1 0.33623230E+00 0.45341707E+04</pdfrwt>
<totfact> 0.24622052E-02</totfact>
</mgrwt>
</event>
<event>
12    1  0.1397649E-007  0.1500663E+04  0.7818608E-02  0.8884012E-01
          2   -1    0    0  501    0  0.00000000000E+00  0.00000000000E+00  0.13941363267E+04  0.13941363267E+04  0.00000000000E+00 0. -1.
         -2   -1    0    0    0  501 -0.00000000000E+00 -0.00000000000E+00 -0.40383234726E+03  0.40383234726E+03  0.00000000000E+00 0.  1.
         23    2    1    2    0    0  0.13484987007E+03  0.10412733663E+03  0.83831249238E+03  0.86040687896E+03  0.92223493661E+02 0.  0.
        254    2    1    2    0    0 -0.13484987007E+03 -0.10412733663E+03  0.15199148703E+03  0.93756179497E+03  0.90933696591E+03 0.  0.
        -24    2    4    4    0    0  0.30801526561E+03 -0.24952401996E+03 -0.78987214768E+02  0.41185286356E+03  0.79045308140E+02 0.  0.
         24    2    4    4    0    0 -0.44286513568E+03  0.14539668333E+03  0.23097870180E+03  0.52570893141E+03  0.75822133657E+02 0.  0.
         13    1    3    3    0    0  0.32409300813E+02 -0.15663006784E+02  0.14452123620E+03  0.14893649745E+03  0.00000000000E+00 0.  1.
        -13    1    3    3    0    0  0.10244056926E+03  0.11979034341E+03  0.69379125618E+03  0.71147038151E+03  0.00000000000E+00 0. -1.
          4    1    6    6  502    0 -0.34757104827E+03  0.12578915917E+03  0.21349810103E+03  0.42686061578E+03  0.00000000000E+00 0. -1.
          3    1    5    5  503    0  0.18775185625E+03 -0.19758939243E+03 -0.64182050662E+02  0.28002082629E+03  0.00000000000E+00 0. -1.
         -4    1    5    5    0  503  0.12026340936E+03 -0.51934627530E+02 -0.14805164107E+02  0.13183203727E+03  0.00000000000E+00 0.  1.
         -3    1    6    6    0  502 -0.95294087411E+02  0.19607524160E+02  0.17480600766E+02  0.98848315627E+02  0.00000000000E+00 0.  1.
<mgrwt>
<rscale>  0 0.15006630E+04</rscale>
<asrwt>0</asrwt>
<pdfrwt beam="1">  1        2 0.21448251E+00 0.15006630E+04</pdfrwt>
<pdfrwt beam="2">  1       -2 0.62128054E-01 0.15006630E+04</pdfrwt>
<totfact> 0.33883158E+01</totfact>
</mgrwt>
</event>
<event>
12    1  0.1397649E-007  0.3139731E+04  0.7818608E-02  0.8204918E-01
         -2   -1    0    0    0  501 -0.00000000000E+00  0.00000000000E+00  0.23007743740E+04  0.23007743740E+04  0.00000000000E+00 0. -1.
          2   -1    0    0  501    0  0.00000000000E+00 -0.00000000000E+00 -0.10711512841E+04  0.10711512841E+04  0.00000000000E+00 0.  1.
         23    2    1    2    0    0 -0.88548333745E+03 -0.90445143625E+03  0.12985508125E+04  0.18156232797E+04  0.90224938804E+02 0.  0.
        254    2    1    2    0    0  0.88548333745E+03  0.90445143625E+03 -0.68927722540E+02  0.15563023784E+04  0.90289142246E+03 0.  0.
        -24    2    4    4    0    0 -0.10619728243E+03 -0.56915184408E+02  0.79841942438E+02  0.16483761211E+03  0.79243306243E+02 0.  0.
         24    2    4    4    0    0  0.99168061988E+03  0.96136662066E+03 -0.14876966498E+03  0.13914647663E+04  0.79909646145E+02 0.  0.
         11    1    3    3    0    0 -0.13822658287E+03 -0.18694423403E+03  0.21855963597E+03  0.31909724117E+03  0.00000000000E+00 0.  1.
        -11    1    3    3    0    0 -0.74725675458E+03 -0.71750720222E+03  0.10799911765E+04  0.14965260385E+04  0.00000000000E+00 0. -1.
          2    1    6    6  502    0  0.51556899595E+03  0.53394585835E+03 -0.48289646719E+02  0.74380202959E+03  0.00000000000E+00 0. -1.
          1    1    5    5  503    0 -0.15780180262E+01  0.16111433598E+02  0.13246360225E+02  0.20917325180E+02  0.00000000000E+00 0. -1.
         -2    1    5    5    0  503 -0.10461926440E+03 -0.73026618006E+02  0.66595582213E+02  0.14392028693E+03  0.00000000000E+00 0.  1.
         -1    1    6    6    0  502  0.47611162393E+03  0.42742076230E+03 -0.10048001826E+03  0.64766273674E+03  0.00000000000E+00 0.  1.
<mgrwt>
<rscale>  0 0.31397308E+04</rscale>
<asrwt>0</asrwt>
<pdfrwt beam="1">  1        2 0.16479251E+00 0.31397308E+04</pdfrwt>
<pdfrwt beam="2">  1       -2 0.35396529E+00 0.31397308E+04</pdfrwt>
<totfact> 0.28206040E-01</totfact>
</mgrwt>
</event>
<event>
12    1  0.1397649E-007  0.1309388E+04  0.7818608E-02  0.9022153E-01
          2   -1    0    0  501    0  0.00000000000E+00  0.00000000000E+00  0.11577810864E+04  0.11577810864E+04  0.00000000000E+00 0. -1.
         -2   -1    0    0    0  501 -0.00000000000E+00 -0.00000000000E+00 -0.37021170601E+03  0.37021170601E+03  0.00000000000E+00 0.  1.
         23    2    1    2    0    0 -0.29573307649E+03  0.13959028048E+03  0.13814763577E+03  0.36658883324E+03  0.91428138199E+02 0.  0.
        254    2    1    2    0    0  0.29573307649E+03 -0.13959028048E+03  0.64942174460E+03  0.11614039592E+04  0.90563074983E+03 0.  0.
        -24    2    4    4    0    0 -0.21473661290E+03 -0.22811075183E+03  0.53565358347E+03  0.62557467778E+03  0.79199671582E+02 0.  0.
         24    2    4    4    0    0  0.51046968939E+03  0.88520471352E+02  0.11376816113E+03  0.53582928137E+03  0.75859387343E+02 0.  0.
         11    1    3    3    0    0 -0.13853468362E+03  0.84351710161E+02  0.11394639226E+03  0.19821919655E+03  0.00000000000E+00 0. -1.
        -11    1    3    3    0    0 -0.15719839287E+03  0.55238570321E+02  0.24201243511E+02  0.16836963669E+03  0.00000000000E+00 0.  1.
          2    1    6    6  502    0  0.13504197571E+03 -0.42844720513E+01  0.10316601852E+02  0.13550322571E+03  0.00000000000E+00 0. -1.
          3    1    5    5  503    0 -0.27868760666E+02 -0.22207322603E+02  0.12241721945E+03  0.12749826907E+03  0.00000000000E+00 0. -1.
         -4    1    5    5    0  503 -0.18686785224E+03 -0.20590342923E+03  0.41323636402E+03  0.49807640871E+03  0.00000000000E+00 0.  1.
         -1    1    6    6    0  502  0.37542771369E+03  0.92804943403E+02  0.10345155928E+03  0.40032605566E+03  0.00000000000E+00 0.  1.
<mgrwt>
<rscale>  0 0.13093878E+04</rscale>
<asrwt>0</asrwt>
<pdfrwt beam="1">  1        2 0.17812017E+00 0.13093878E+04</pdfrwt>
<pdfrwt beam="2">  1       -2 0.56955648E-01 0.13093878E+04</pdfrwt>
<totfact> 0.56852273E+01</totfact>
</mgrwt>
</event>
<event>
12    1  0.1397649E-007  0.1456561E+04  0.7818608E-02  0.8913864E-01
         -2   -1    0    0    0  501 -0.00000000000E+00  0.00000000000E+00  0.22646471366E+03  0.22646471366E+03  0.00000000000E+00 0. -1.
          2   -1    0    0  501    0  0.00000000000E+00 -0.00000000000E+00 -0.23420541582E+04  0.23420541582E+04  0.00000000000E+00 0.  1.
         23    2    1    2    0    0  0.26241396296E+03  0.31324247746E+03 -0.34527470761E+03  0.54257634799E+03  0.90512607082E+02 0.  0.
        254    2    1    2    0    0 -0.26241396296E+03 -0.31324247746E+03 -0.17703147369E+04  0.20259425239E+04  0.89635199816E+03 0.  0.
        -24    2    4    4    0    0 -0.52352170329E+03 -0.85769988584E+02 -0.60983412141E+03  0.81226042379E+03  0.80236373668E+02 0.  0.
         24    2    4    4    0    0  0.26110774033E+03 -0.22747248888E+03 -0.11604806155E+04  0.12136821001E+04  0.79924938576E+02 0.  0.
         11    1    3    3    0    0 -0.69673551571E+01  0.13571051972E+02 -0.87743020828E+01  0.17598462051E+02  0.00000000000E+00 0.  1.
        -11    1    3    3    0    0  0.26938131812E+03  0.29967142549E+03 -0.33650040553E+03  0.52497788594E+03  0.00000000000E+00 0. -1.
          4    1    6    6  502    0  0.19851054476E+03 -0.17851152781E+03 -0.76361858112E+03  0.80894136955E+03  0.00000000000E+00 0. -1.
          3    1    5    5  503    0 -0.21280082642E+03 -0.26728692338E+02 -0.30606120533E+03  0.37372727507E+03  0.00000000000E+00 0. -1.
         -4    1    5    5    0  503 -0.31072087687E+03 -0.59041296247E+02 -0.30377291608E+03  0.43853314872E+03  0.00000000000E+00 0.  1.
         -3    1    6    6    0  502  0.62597195572E+02 -0.48960961073E+02 -0.39686203442E+03  0.40474073055E+03  0.00000000000E+00 0.  1.
<mgrwt>
<rscale>  0 0.14565612E+04</rscale>
<asrwt>0</asrwt>
<pdfrwt beam="1">  1        2 0.36031600E+00 0.14565612E+04</pdfrwt>
<pdfrwt beam="2">  1       -2 0.34840727E-01 0.14565612E+04</pdfrwt>
<totfact> 0.32206789E+01</totfact>
</mgrwt>
</event>
<event>
12    1  0.1397649E-007  0.1627578E+04  0.7818608E-02  0.8803782E-01
         -1   -1    0    0    0  501 -0.00000000000E+00  0.00000000000E+00  0.18296361997E+04  0.18296361997E+04  0.00000000000E+00 0.  1.
          1   -1    0    0  501    0  0.00000000000E+00 -0.00000000000E+00 -0.36195877015E+03  0.36195877015E+03  0.00000000000E+00 0. -1.
         23    2    1    2    0    0  0.14342317213E+03  0.34663621419E+03  0.10546766486E+04  0.11231182790E+04  0.91241242941E+02 0.  0.
        254    2    1    2    0    0 -0.14342317213E+03 -0.34663621419E+03  0.41300078103E+03  0.10684766908E+04  0.91123318774E+03 0.  0.
        -24    2    4    4    0    0  0.95553191258E+02  0.28174641451E+03  0.15345175551E+03  0.34373929716E+03  0.78088467114E+02 0.  0.
         24    2    4    4    0    0 -0.23897636339E+03 -0.62838262871E+03  0.25954902552E+03  0.72473739367E+03  0.76838550328E+02 0.  0.
         11    1    3    3    0    0  0.70996631491E+02  0.12121854330E+03  0.28321121729E+03  0.31613770816E+03  0.00000000000E+00 0. -1.
        -11    1    3    3    0    0  0.72426540643E+02  0.22541767090E+03  0.77146543127E+03  0.80698057089E+03  0.00000000000E+00 0.  1.
          2    1    6    6  502    0 -0.28287796982E+02 -0.41637155135E+02  0.25054341331E+01  0.50399695892E+02  0.00000000000E+00 0. -1.
          3    1    5    5  503    0 -0.56519462548E+01  0.49711732266E+02  0.48560958560E+02  0.69723507640E+02  0.00000000000E+00 0. -1.
         -4    1    5    5    0  503  0.10120513751E+03  0.23203468225E+03  0.10489079695E+03  0.27401578952E+03  0.00000000000E+00 0.  1.
         -1    1    6    6    0  502 -0.21068856641E+03 -0.58674547357E+03  0.25704359139E+03  0.67433769778E+03  0.00000000000E+00 0.  1.
<mgrwt>
<rscale>  0 0.16275784E+04</rscale>
<asrwt>0</asrwt>
<pdfrwt beam="1">  1        1 0.55685966E-01 0.16275784E+04</pdfrwt>
<pdfrwt beam="2">  1       -1 0.28148249E+00 0.16275784E+04</pdfrwt>
<totfact> 0.28588474E+00</totfact>
</mgrwt>
</event>
<event>
12    1  0.1397649E-007  0.1349246E+04  0.7818608E-02  0.8991399E-01
         -2   -1    0    0    0  501 -0.00000000000E+00  0.00000000000E+00  0.26482558287E+03  0.26482558287E+03  0.00000000000E+00 0.  1.
          2   -1    0    0  501    0  0.00000000000E+00 -0.00000000000E+00 -0.17185507630E+04  0.17185507630E+04  0.00000000000E+00 0. -1.
         23    2    1    2    0    0 -0.15342094048E+03  0.30212166502E+03 -0.33493335028E+03  0.48508631888E+03  0.91175118258E+02 0.  0.
        254    2    1    2    0    0  0.15342094048E+03 -0.30212166502E+03 -0.11187918299E+04  0.14982900270E+04  0.93720988096E+03 0.  0.
        -24    2    4    4    0    0 -0.11590782540E+03 -0.57487689141E+03 -0.54708894584E+03  0.80513496027E+03  0.70837315901E+02 0.  0.
         24    2    4    4    0    0  0.26932876588E+03  0.27275522639E+03 -0.57170288403E+03  0.69315506673E+03  0.81770173533E+02 0.  0.
         11    1    3    3    0    0 -0.14718745199E+03  0.30438069429E+03 -0.33773568678E+03  0.47788821622E+03  0.00000000000E+00 0. -1.
        -11    1    3    3    0    0 -0.62334884922E+01 -0.22590292749E+01  0.28023365016E+01  0.71981026608E+01  0.00000000000E+00 0.  1.
          4    1    6    6  502    0  0.21305235257E+03  0.22069290383E+03 -0.39180103722E+03  0.49759895047E+03  0.00000000000E+00 0. -1.
          1    1    5    5  503    0 -0.61852408836E+02 -0.18613772451E+03 -0.21480642791E+03  0.29088618812E+03  0.00000000000E+00 0. -1.
         -2    1    5    5    0  503 -0.54055416561E+02 -0.38873916689E+03 -0.33228251792E+03  0.51424877214E+03  0.00000000000E+00 0.  1.
         -3    1    6    6    0  502  0.56276413310E+02  0.52062322554E+02 -0.17990184681E+03  0.19555611627E+03  0.00000000000E+00 0.  1.
<mgrwt>
<rscale>  0 0.13492460E+04</rscale>
<asrwt>0</asrwt>
<pdfrwt beam="1">  1        2 0.26439241E+00 0.13492460E+04</pdfrwt>
<pdfrwt beam="2">  1       -2 0.40742399E-01 0.13492460E+04</pdfrwt>
<totfact> 0.53357561E+01</totfact>
</mgrwt>
</event>
<event>
12    1  0.1711595E-007  0.2032126E+04  0.7818608E-02  0.8591746E-01
          2   -1    0    0  501    0  0.00000000000E+00  0.00000000000E+00  0.11032382188E+04  0.11032382188E+04  0.00000000000E+00 0. -1.
         -2   -1    0    0    0  501 -0.00000000000E+00 -0.00000000000E+00 -0.93577627247E+03  0.93577627247E+03  0.00000000000E+00 0.  1.
         23    2    1    2    0    0 -0.42040466561E+03 -0.69863432497E+02  0.74589510041E+03  0.86401215840E+03  0.92393327611E+02 0.  0.
        254    2    1    2    0    0  0.42040466561E+03  0.69863432497E+02 -0.57843315410E+03  0.11750023328E+04  0.92974436614E+03 0.  0.
        -24    2    4    4    0    0  0.39488678612E+03 -0.19626407931E+03 -0.73055769610E+03  0.85699134571E+03  0.79148320361E+02 0.  0.
         24    2    4    4    0    0  0.25517879495E+02  0.26612751181E+03  0.15212454200E+03  0.31801098713E+03  0.80709955630E+02 0.  0.
         13    1    3    3    0    0 -0.32170729701E+02  0.15717453777E+02  0.92343364962E+02  0.99041866174E+02  0.00000000000E+00 0.  1.
        -13    1    3    3    0    0 -0.38823393591E+03 -0.85580886274E+02  0.65355173544E+03  0.76497029223E+03  0.00000000000E+00 0. -1.
          2    1    6    6  502    0 -0.66205518628E+01  0.40602164324E+02 -0.47578871391E+01  0.41412618183E+02  0.00000000000E+00 0. -1.
          3    1    5    5  503    0  0.16812683455E+03 -0.84519997504E+02 -0.23852958433E+03  0.30382005377E+03  0.00000000000E+00 0. -1.
         -4    1    5    5    0  503  0.22675995157E+03 -0.11174408181E+03 -0.49202811177E+03  0.55317129194E+03  0.00000000000E+00 0.  1.
         -1    1    6    6    0  502  0.32138431358E+02  0.22552534749E+03  0.15688242914E+03  0.27659836895E+03  0.00000000000E+00 0.  1.
<mgrwt>
<rscale>  0 0.20321261E+04</rscale>
<asrwt>0</asrwt>
<pdfrwt beam="1">  1        2 0.16972896E+00 0.20321261E+04</pdfrwt>
<pdfrwt beam="2">  1       -2 0.14396558E+00 0.20321261E+04</pdfrwt>
<totfact> 0.67098828E+00</totfact>
</mgrwt>
</event>
<event>
12    1  0.1397649E-007  0.2033112E+04  0.7818608E-02  0.8591294E-01
          1   -1    0    0  501    0  0.00000000000E+00  0.00000000000E+00  0.91493897827E+03  0.91493897827E+03  0.00000000000E+00 0. -1.
         -1   -1    0    0    0  501 -0.00000000000E+00 -0.00000000000E+00 -0.11294590309E+04  0.11294590309E+04  0.00000000000E+00 0.  1.
         23    2    1    2    0    0 -0.16677630115E+03 -0.80013738749E+02  0.71349287416E+03  0.74254610711E+03  0.89922781837E+02 0.  0.
        254    2    1    2    0    0  0.16677630115E+03  0.80013738749E+02 -0.92801292682E+03  0.13018519021E+04  0.89408827840E+03 0.  0.
        -24    2    4    4    0    0  0.12370063325E+03  0.48062506120E+03 -0.51336083707E+03  0.71847267176E+03  0.79757977092E+02 0.  0.
         24    2    4    4    0    0  0.43075667899E+02 -0.40061132245E+03 -0.41465208976E+03  0.58337923032E+03  0.77781912975E+02 0.  0.
         13    1    3    3    0    0 -0.58303985899E+02 -0.60376146959E+02  0.43512043920E+03  0.44314154680E+03  0.00000000000E+00 0. -1.
        -13    1    3    3    0    0 -0.10847231525E+03 -0.19637591790E+02  0.27837243497E+03  0.29940456031E+03  0.00000000000E+00 0.  1.
          4    1    6    6  502    0  0.18119033093E+02 -0.26821561820E+02 -0.15248466236E+02  0.35780039983E+02  0.00000000000E+00 0. -1.
          1    1    5    5  503    0  0.55935199442E+02  0.99632249247E+02 -0.14051520044E+03  0.18110729742E+03  0.00000000000E+00 0. -1.
         -2    1    5    5    0  503  0.67765433810E+02  0.38099281195E+03 -0.37284563663E+03  0.53736537433E+03  0.00000000000E+00 0.  1.
         -3    1    6    6    0  502  0.24956634806E+02 -0.37378976063E+03 -0.39940362352E+03  0.54759919033E+03  0.00000000000E+00 0.  1.
<mgrwt>
<rscale>  0 0.20331120E+04</rscale>
<asrwt>0</asrwt>
<pdfrwt beam="1">  1        1 0.14075984E+00 0.20331120E+04</pdfrwt>
<pdfrwt beam="2">  1       -1 0.17376293E+00 0.20331120E+04</pdfrwt>
<totfact> 0.37792283E+00</totfact>
</mgrwt>
</event>
<event>
12    1  0.1397649E-007  0.2280095E+04  0.7818608E-02  0.8485811E-01
          2   -1    0    0  501    0  0.00000000000E+00  0.00000000000E+00  0.10470252387E+04  0.10470252387E+04  0.00000000000E+00 0. -1.
         -2   -1    0    0    0  501 -0.00000000000E+00 -0.00000000000E+00 -0.12413341255E+04  0.12413341255E+04  0.00000000000E+00 0.  1.
         23    2    1    2    0    0 -0.79955483068E+01  0.87934952352E+03 -0.46591749046E+03  0.99938560649E+03  0.91503930148E+02 0.  0.
        254    2    1    2    0    0  0.79955483068E+01 -0.87934952352E+03  0.27160860365E+03  0.12889737577E+04  0.90242041268E+03 0.  0.
        -24    2    4    4    0    0 -0.71235625516E+02  0.10175573215E+03 -0.15506535190E+03  0.21345489860E+03  0.78031961457E+02 0.  0.
         24    2    4    4    0    0  0.79231173823E+02 -0.98110525567E+03  0.42667395555E+03  0.10755188591E+04  0.76452929303E+02 0.  0.
         11    1    3    3    0    0 -0.33037249371E+02  0.13448634208E+03 -0.62699205180E+02  0.15201719107E+03  0.00000000000E+00 0. -1.
        -11    1    3    3    0    0  0.25041701064E+02  0.74486318144E+03 -0.40321828528E+03  0.84736841542E+03  0.00000000000E+00 0.  1.
          4    1    6    6  502    0  0.32435361540E+02 -0.60095176806E+03  0.29715549535E+03  0.67119033711E+03  0.00000000000E+00 0. -1.
          3    1    5    5  503    0 -0.74185826107E+02  0.71096115967E+02 -0.15062523511E+03  0.18233528445E+03  0.00000000000E+00 0. -1.
         -4    1    5    5    0  503  0.29502005909E+01  0.30659616181E+02 -0.44401167816E+01  0.31119614151E+02  0.00000000000E+00 0.  1.
         -3    1    6    6    0  502  0.46795812283E+02 -0.38015348761E+03  0.12951846020E+03  0.40432852202E+03  0.00000000000E+00 0.  1.
<mgrwt>
<rscale>  0 0.22800949E+04</rscale>
<asrwt>0</asrwt>
<pdfrwt beam="1">  1        2 0.16108081E+00 0.22800949E+04</pdfrwt>
<pdfrwt beam="2">  1       -2 0.19097448E+00 0.22800949E+04</pdfrwt>
<totfact> 0.32591005E+00</totfact>
</mgrwt>
</event>
<event>
12    1  0.1397649E-007  0.2757764E+04  0.7818608E-02  0.8316502E-01
          2   -1    0    0  501    0  0.00000000000E+00  0.00000000000E+00  0.27323950486E+04  0.27323950486E+04  0.00000000000E+00 0. -1.
         -2   -1    0    0    0  501 -0.00000000000E+00 -0.00000000000E+00 -0.69584204259E+03  0.69584204259E+03  0.00000000000E+00 0.  1.
         23    2    1    2    0    0 -0.39933913739E+03  0.82233122133E+03  0.19447709087E+04  0.21509892347E+04  0.94447955923E+02 0.  0.
        254    2    1    2    0    0  0.39933913739E+03 -0.82233122133E+03  0.91782097330E+02  0.12772478565E+04  0.88726419362E+03 0.  0.
        -24    2    4    4    0    0  0.17608546176E+03  0.50338309016E+02  0.28821310997E+03  0.35177335432E+03  0.84484678212E+02 0.  0.
         24    2    4    4    0    0  0.22325367563E+03 -0.87266953035E+03 -0.19643101264E+03  0.92547450217E+03  0.80768796950E+02 0.  0.
         11    1    3    3    0    0 -0.97759427002E+02  0.14002902383E+03  0.30631965261E+03  0.35070894293E+03  0.00000000000E+00 0.  1.
        -11    1    3    3    0    0 -0.30157971039E+03  0.68230219751E+03  0.16384512561E+04  0.18002802918E+04  0.00000000000E+00 0. -1.
          4    1    6    6  502    0  0.40262294026E+02 -0.20105603669E+03 -0.12197347735E+02  0.20541021762E+03  0.00000000000E+00 0. -1.
          3    1    5    5  503    0  0.16990612122E+03  0.49266047768E+02  0.21559210093E+03  0.27888203147E+03  0.00000000000E+00 0. -1.
         -4    1    5    5    0  503  0.61793405407E+01  0.10722612482E+01  0.72621009034E+02  0.72891322850E+02  0.00000000000E+00 0.  1.
         -3    1    6    6    0  502  0.18299138161E+03 -0.67161349365E+03 -0.18423366490E+03  0.72006428455E+03  0.00000000000E+00 0.  1.
<mgrwt>
<rscale>  0 0.27577638E+04</rscale>
<asrwt>0</asrwt>
<pdfrwt beam="1">  1        2 0.42036846E+00 0.27577638E+04</pdfrwt>
<pdfrwt beam="2">  1       -2 0.10705262E+00 0.27577638E+04</pdfrwt>
<totfact> 0.15553696E+00</totfact>
</mgrwt>
</event>
<event>
12    1  0.1397649E-007  0.1316895E+04  0.7818608E-02  0.9016273E-01
         -2   -1    0    0    0  501 -0.00000000000E+00  0.00000000000E+00  0.19904847339E+03  0.19904847339E+03  0.00000000000E+00 0.  1.
          2   -1    0    0  501    0  0.00000000000E+00 -0.00000000000E+00 -0.21781286409E+04  0.21781286409E+04  0.00000000000E+00 0. -1.
         23    2    1    2    0    0  0.20228814568E+03  0.24748407663E+03 -0.72068280978E+03  0.79370989953E+03  0.91775978458E+02 0.  0.
        254    2    1    2    0    0 -0.20228814568E+03 -0.24748407663E+03 -0.12583973577E+04  0.15834672147E+04  0.90644119954E+03 0.  0.
        -24    2    4    4    0    0 -0.10492693893E+03 -0.10830564599E+03  0.10922211402E+03  0.20288038788E+03  0.80568021750E+02 0.  0.
         24    2    4    4    0    0 -0.97361206743E+02 -0.13917843064E+03 -0.13676194717E+04  0.13805868269E+04  0.82384020992E+02 0.  0.
         11    1    3    3    0    0  0.10909871060E+03  0.14167317609E+03 -0.50784934309E+03  0.53840948427E+03  0.00000000000E+00 0. -1.
        -11    1    3    3    0    0  0.93189435082E+02  0.10581090054E+03 -0.21283346669E+03  0.25530041525E+03  0.00000000000E+00 0.  1.
          2    1    6    6  502    0  0.10680234353E+02 -0.35061628555E+02 -0.35932042566E+03  0.36118492977E+03  0.00000000000E+00 0. -1.
          3    1    5    5  503    0 -0.49564310436E+01 -0.14358541219E+02 -0.12350454665E+02  0.19577222608E+02  0.00000000000E+00 0. -1.
         -4    1    5    5    0  503 -0.99970507891E+02 -0.93947104774E+02  0.12157256869E+03  0.18330316528E+03  0.00000000000E+00 0.  1.
         -1    1    6    6    0  502 -0.10804144110E+03 -0.10411680208E+03 -0.10082990461E+04  0.10194018971E+04  0.00000000000E+00 0.  1.
<mgrwt>
<rscale>  0 0.13168951E+04</rscale>
<asrwt>0</asrwt>
<pdfrwt beam="1">  1        2 0.33509672E+00 0.13168951E+04</pdfrwt>
<pdfrwt beam="2">  1       -2 0.30622842E-01 0.13168951E+04</pdfrwt>
<totfact> 0.51415274E+01</totfact>
</mgrwt>
</event>
<event>
12    1  0.1397649E-007  0.2330565E+04  0.7818608E-02  0.8465966E-01
          1   -1    0    0  501    0  0.00000000000E+00  0.00000000000E+00  0.42999332180E+04  0.42999332180E+04  0.00000000000E+00 0. -1.
         -1   -1    0    0    0  501 -0.00000000000E+00 -0.00000000000E+00 -0.31579181166E+03  0.31579181166E+03  0.00000000000E+00 0.  1.
         23    2    1    2    0    0  0.83871722971E+03  0.14869024324E+03  0.26862555896E+04  0.28195820504E+04  0.92295538454E+02 0.  0.
        254    2    1    2    0    0 -0.83871722971E+03 -0.14869024324E+03  0.12978858168E+04  0.17961429793E+04  0.90336406216E+03 0.  0.
        -24    2    4    4    0    0 -0.74322534843E+03 -0.46962248013E+03  0.10475057598E+04  0.13703204808E+04  0.87067277309E+02 0.  0.
         24    2    4    4    0    0 -0.95491881280E+02  0.32093223689E+03  0.25038005693E+03  0.42582249849E+03  0.80736777526E+02 0.  0.
         11    1    3    3    0    0  0.23743917993E+03  0.20162402780E+02  0.87167976025E+03  0.90366447926E+03  0.00000000000E+00 0.  1.
        -11    1    3    3    0    0  0.60127804978E+03  0.12852784046E+03  0.18145758293E+04  0.19159175711E+04  0.00000000000E+00 0. -1.
          4    1    6    6  502    0 -0.79518964734E+02  0.26297044154E+03  0.16201757521E+03  0.31894578466E+03  0.00000000000E+00 0. -1.
          3    1    5    5  503    0 -0.66209512169E+03 -0.44699866630E+03  0.93543913807E+03  0.12301317567E+04  0.00000000000E+00 0. -1.
         -4    1    5    5    0  503 -0.81130226748E+02 -0.22623813831E+02  0.11206662176E+03  0.14018872408E+03  0.00000000000E+00 0.  1.
         -3    1    6    6    0  502 -0.15972916546E+02  0.57961795353E+02  0.88362481717E+02  0.10687671383E+03  0.00000000000E+00 0.  1.
<mgrwt>
<rscale>  0 0.23305653E+04</rscale>
<asrwt>0</asrwt>
<pdfrwt beam="1">  1        1 0.66152815E+00 0.23305653E+04</pdfrwt>
<pdfrwt beam="2">  1       -1 0.48583359E-01 0.23305653E+04</pdfrwt>
<totfact> 0.19565878E-01</totfact>
</mgrwt>
</event>
<event>
12    1  0.1397649E-007  0.3085737E+04  0.7818608E-02  0.8219663E-01
          2   -1    0    0  501    0  0.00000000000E+00  0.00000000000E+00  0.13745933324E+04  0.13745933324E+04  0.00000000000E+00 0. -1.
         -2   -1    0    0    0  501 -0.00000000000E+00 -0.00000000000E+00 -0.17317441606E+04  0.17317441606E+04  0.00000000000E+00 0.  1.
         23    2    1    2    0    0  0.13859877936E+04 -0.23777565806E+03 -0.10152213858E+03  0.14130200965E+04  0.93912836651E+02 0.  0.
        254    2    1    2    0    0 -0.13859877936E+04  0.23777565806E+03 -0.25562868963E+03  0.16933173965E+04  0.90800790228E+03 0.  0.
        -24    2    4    4    0    0 -0.10501699678E+04  0.33257643585E+03  0.19086613877E+03  0.11208628659E+04  0.80247332456E+02 0.  0.
         24    2    4    4    0    0 -0.33581782586E+03 -0.94800777791E+02 -0.44649482839E+03  0.57245453057E+03  0.81152684189E+02 0.  0.
         11    1    3    3    0    0  0.18540708791E+03 -0.43306423431E+02  0.16320181198E+02  0.19109574268E+03  0.00000000000E+00 0.  1.
        -11    1    3    3    0    0  0.12005807057E+04 -0.19446923463E+03 -0.11784231978E+03  0.12219243538E+04  0.00000000000E+00 0. -1.
          4    1    6    6  502    0 -0.27315382625E+03 -0.46008712079E+02 -0.36986911021E+03  0.46209628117E+03  0.00000000000E+00 0. -1.
          3    1    5    5  503    0 -0.10233164197E+04  0.31147939717E+03  0.19165103324E+03  0.10867042046E+04  0.00000000000E+00 0. -1.
         -4    1    5    5    0  503 -0.26853548027E+02  0.21097038674E+02 -0.78489447776E+00  0.34158661300E+02  0.00000000000E+00 0.  1.
         -3    1    6    6    0  502 -0.62663999610E+02 -0.48792065712E+02 -0.76625718186E+02  0.11035824940E+03  0.00000000000E+00 0.  1.
<mgrwt>
<rscale>  0 0.30857375E+04</rscale>
<asrwt>0</asrwt>
<pdfrwt beam="1">  1        2 0.21147590E+00 0.30857375E+04</pdfrwt>
<pdfrwt beam="2">  1       -2 0.26642218E+00 0.30857375E+04</pdfrwt>
<totfact> 0.64834831E-01</totfact>
</mgrwt>
</event>
<event>
12    1  0.1397649E-007  0.1373564E+04  0.7818608E-02  0.8973180E-01
          2   -1    0    0  501    0  0.00000000000E+00  0.00000000000E+00  0.17187492235E+04  0.17187492235E+04  0.00000000000E+00 0. -1.
         -2   -1    0    0    0  501 -0.00000000000E+00 -0.00000000000E+00 -0.27442602084E+03  0.27442602084E+03  0.00000000000E+00 0.  1.
         23    2    1    2    0    0 -0.33741761153E+03 -0.15772891729E+03  0.60015099605E+03  0.71091601555E+03  0.80568648925E+02 0.  0.
        254    2    1    2    0    0  0.33741761153E+03  0.15772891729E+03  0.84417220662E+03  0.12822592288E+04  0.89041167977E+03 0.  0.
        -24    2    4    4    0    0  0.41302201336E+02  0.49322460627E+03  0.35134991743E+03  0.61158370687E+03  0.74909825506E+02 0.  0.
         24    2    4    4    0    0  0.29611541019E+03 -0.33549568899E+03  0.49282228919E+03  0.67067552193E+03  0.81793358554E+02 0.  0.
         13    1    3    3    0    0 -0.98044793186E+02 -0.70947688925E+02  0.14034093781E+03  0.18531577067E+03  0.00000000000E+00 0. -1.
        -13    1    3    3    0    0 -0.23937281834E+03 -0.86781228360E+02  0.45981005825E+03  0.52560024488E+03  0.00000000000E+00 0.  1.
          2    1    6    6  502    0  0.81584902441E+02 -0.14856737690E+03  0.20413385922E+03  0.26532808797E+03  0.00000000000E+00 0. -1.
          1    1    5    5  503    0  0.31300486082E+02  0.69544158353E+02  0.43756974585E+02  0.87924872561E+02  0.00000000000E+00 0. -1.
         -2    1    5    5    0  503  0.10001715254E+02  0.42368044792E+03  0.30759294284E+03  0.52365883430E+03  0.00000000000E+00 0.  1.
         -1    1    6    6    0  502  0.21453050775E+03 -0.18692831209E+03  0.28868842998E+03  0.40534743396E+03  0.00000000000E+00 0.  1.
<mgrwt>
<rscale>  0 0.13735640E+04</rscale>
<asrwt>0</asrwt>
<pdfrwt beam="1">  1        2 0.26442295E+00 0.13735640E+04</pdfrwt>
<pdfrwt beam="2">  1       -2 0.42219389E-01 0.13735640E+04</pdfrwt>
<totfact> 0.49638933E+01</totfact>
</mgrwt>
</event>
<event>
12    1  0.1397649E-007  0.3207122E+04  0.7818608E-02  0.8186939E-01
         -2   -1    0    0    0  501 -0.00000000000E+00  0.00000000000E+00  0.11363138256E+04  0.11363138256E+04  0.00000000000E+00 0.  1.
          2   -1    0    0  501    0  0.00000000000E+00 -0.00000000000E+00 -0.22629374676E+04  0.22629374676E+04  0.00000000000E+00 0. -1.
         23    2    1    2    0    0  0.13087967364E+04  0.34559172897E+03 -0.11040501322E+04  0.17492118965E+04  0.91831497589E+02 0.  0.
        254    2    1    2    0    0 -0.13087967364E+04 -0.34559172897E+03 -0.22573509724E+02  0.16500393967E+04  0.94325919396E+03 0.  0.
        -24    2    4    4    0    0 -0.32685208386E+03 -0.17375871963E+03  0.41210543341E+03  0.55955938333E+03  0.79066034796E+02 0.  0.
         24    2    4    4    0    0 -0.98194465252E+03 -0.17183300934E+03 -0.43467894313E+03  0.10904800134E+04  0.80367855599E+02 0.  0.
         11    1    3    3    0    0  0.35124119719E+03  0.13050103308E+03 -0.32950054246E+03  0.49897044574E+03  0.00000000000E+00 0. -1.
        -11    1    3    3    0    0  0.95755553918E+03  0.21509069589E+03 -0.77454958979E+03  0.12502414507E+04  0.00000000000E+00 0.  1.
          2    1    6    6  502    0 -0.69330532838E+03 -0.14367050084E+03 -0.33973794601E+03  0.78532500478E+03  0.00000000000E+00 0. -1.
          1    1    5    5  503    0 -0.25447213713E+03 -0.10326902135E+03  0.26935011499E+03  0.38466874553E+03  0.00000000000E+00 0. -1.
         -2    1    5    5    0  503 -0.72379946729E+02 -0.70489698280E+02  0.14275531842E+03  0.17489063779E+03  0.00000000000E+00 0.  1.
         -1    1    6    6    0  502 -0.28863932413E+03 -0.28162508503E+02 -0.94940997120E+02  0.30515500857E+03  0.00000000000E+00 0.  1.
<mgrwt>
<rscale>  0 0.32071215E+04</rscale>
<asrwt>0</asrwt>
<pdfrwt beam="1">  1        2 0.34814422E+00 0.32071215E+04</pdfrwt>
<pdfrwt beam="2">  1       -2 0.17481751E+00 0.32071215E+04</pdfrwt>
<totfact> 0.78908807E-01</totfact>
</mgrwt>
</event>
<event>
12    1  0.1397649E-007  0.1433463E+04  0.7818608E-02  0.8929946E-01
         -2   -1    0    0    0  501 -0.00000000000E+00  0.00000000000E+00  0.53843335460E+03  0.53843335460E+03  0.00000000000E+00 0.  1.
          2   -1    0    0  501    0  0.00000000000E+00 -0.00000000000E+00 -0.95407131937E+03  0.95407131937E+03  0.00000000000E+00 0. -1.
         23    2    1    2    0    0  0.31785794019E+03  0.11300645328E+03  0.13519659789E+03  0.37469351528E+03  0.91175554215E+02 0.  0.
        254    2    1    2    0    0 -0.31785794019E+03 -0.11300645328E+03 -0.55083456266E+03  0.11178111587E+04  0.91229323270E+03 0.  0.
        -24    2    4    4    0    0 -0.50616174569E+03  0.13840720136E+03 -0.58644097742E+03  0.79112249576E+03  0.81274332377E+02 0.  0.
         24    2    4    4    0    0  0.18830380550E+03 -0.25141365464E+03  0.35606414755E+02  0.32668866293E+03  0.82404592174E+02 0.  0.
         13    1    3    3    0    0  0.13439086514E+03  0.60228747520E+02  0.10626609993E+03  0.18160641689E+03  0.00000000000E+00 0.  1.
        -13    1    3    3    0    0  0.18346707505E+03  0.52777705759E+02  0.28930497962E+02  0.19308709839E+03  0.00000000000E+00 0. -1.
          4    1    6    6  502    0  0.16947191842E+03 -0.17152718042E+03  0.12632365369E+02  0.24145782532E+03  0.00000000000E+00 0. -1.
          1    1    5    5  503    0 -0.27990306514E+02 -0.19436048780E+01 -0.11653747773E+02  0.30381650643E+02  0.00000000000E+00 0. -1.
         -2    1    5    5    0  503 -0.47817143918E+03  0.14035080624E+03 -0.57478722965E+03  0.76074084511E+03  0.00000000000E+00 0.  1.
         -3    1    6    6    0  502  0.18831887084E+02 -0.79886474221E+02  0.22974049385E+02  0.85230837610E+02  0.00000000000E+00 0.  1.
<mgrwt>
<rscale>  0 0.14334627E+04</rscale>
<asrwt>0</asrwt>
<pdfrwt beam="1">  1        2 0.14678020E+00 0.14334627E+04</pdfrwt>
<pdfrwt beam="2">  1       -2 0.82835902E-01 0.14334627E+04</pdfrwt>
<totfact> 0.33482715E+01</totfact>
</mgrwt>
</event>
<event>
12    1  0.1397649E-007  0.1869700E+04  0.7818608E-02  0.8670087E-01
          2   -1    0    0  501    0  0.00000000000E+00  0.00000000000E+00  0.12238170023E+04  0.12238170023E+04  0.00000000000E+00 0. -1.
         -2   -1    0    0    0  501 -0.00000000000E+00 -0.00000000000E+00 -0.71411366696E+03  0.71411366696E+03  0.00000000000E+00 0.  1.
         23    2    1    2    0    0  0.17031223266E+03  0.13034547049E+03 -0.50832289260E+03  0.55931357956E+03  0.91887533804E+02 0.  0.
        254    2    1    2    0    0 -0.17031223266E+03 -0.13034547049E+03  0.10180262279E+04  0.13786170897E+04  0.90455043031E+03 0.  0.
        -24    2    4    4    0    0 -0.93167290570E+02 -0.51474055544E+03  0.55213976920E+03  0.76471315262E+03  0.79308874724E+02 0.  0.
         24    2    4    4    0    0 -0.77144942086E+02  0.38439508495E+03  0.46588645872E+03  0.61390393707E+03  0.78210792768E+02 0.  0.
         13    1    3    3    0    0  0.94595426162E+02  0.36630228123E+02 -0.32050007845E+03  0.33617014821E+03  0.00000000000E+00 0. -1.
        -13    1    3    3    0    0  0.75716806494E+02  0.93715242368E+02 -0.18782281415E+03  0.22314343134E+03  0.00000000000E+00 0.  1.
          4    1    6    6  502    0 -0.38919298681E+02  0.51057835768E+02  0.70871550993E+02  0.95626309890E+02  0.00000000000E+00 0. -1.
          1    1    5    5  503    0  0.89773412065E+01 -0.13096328829E+02  0.27044044150E+02  0.31360593233E+02  0.00000000000E+00 0. -1.
         -2    1    5    5    0  503 -0.10214463178E+03 -0.50164422661E+03  0.52509572505E+03  0.73335255938E+03  0.00000000000E+00 0.  1.
         -3    1    6    6    0  502 -0.38225643406E+02  0.33333724918E+03  0.39501490773E+03  0.51827762718E+03  0.00000000000E+00 0.  1.
<mgrwt>
<rscale>  0 0.18696999E+04</rscale>
<asrwt>0</asrwt>
<pdfrwt beam="1">  1        2 0.18827954E+00 0.18696999E+04</pdfrwt>
<pdfrwt beam="2">  1       -2 0.10986364E+00 0.18696999E+04</pdfrwt>
<totfact> 0.11343273E+01</totfact>
</mgrwt>
</event>
<event>
12    1  0.1397649E-007  0.3266945E+04  0.7818608E-02  0.8171357E-01
          2   -1    0    0  501    0  0.00000000000E+00  0.00000000000E+00  0.22029927127E+04  0.22029927127E+04  0.00000000000E+00 0. -1.
         -2   -1    0    0    0  501 -0.00000000000E+00 -0.00000000000E+00 -0.12111854840E+04  0.12111854840E+04  0.00000000000E+00 0.  1.
         23    2    1    2    0    0 -0.40553711199E+03 -0.24148971038E+03 -0.10400062270E+04  0.11458103543E+04  0.92145463932E+02 0.  0.
        254    2    1    2    0    0  0.40553711199E+03  0.24148971038E+03  0.20318134557E+04  0.22683678424E+04  0.89131875354E+03 0.  0.
        -24    2    4    4    0    0  0.38383320902E+03 -0.27684394868E+03  0.89420143498E+03  0.10154715952E+04  0.87268838171E+02 0.  0.
         24    2    4    4    0    0  0.21703902968E+02  0.51833365906E+03  0.11376120207E+04  0.12528962472E+04  0.80293555646E+02 0.  0.
         11    1    3    3    0    0 -0.63723514748E+02 -0.16249083544E+02 -0.90945092517E+02  0.11223069500E+03  0.00000000000E+00 0. -1.
        -11    1    3    3    0    0 -0.34181359724E+03 -0.22524062684E+03 -0.94906113447E+03  0.10335796593E+04  0.00000000000E+00 0.  1.
          4    1    6    6  502    0  0.42500547339E+02  0.43937745069E+03  0.99587833197E+03  0.10893266236E+04  0.00000000000E+00 0. -1.
          1    1    5    5  503    0  0.28481942855E+03 -0.23601522367E+03  0.63281375885E+03  0.73299286904E+03  0.00000000000E+00 0. -1.
         -2    1    5    5    0  503  0.99013780472E+02 -0.40828725010E+02  0.26138767614E+03  0.28247872618E+03  0.00000000000E+00 0.  1.
         -3    1    6    6    0  502 -0.20796644371E+02  0.78956208373E+02  0.14173368875E+03  0.16356962366E+03  0.00000000000E+00 0.  1.
<mgrwt>
<rscale>  0 0.32669452E+04</rscale>
<asrwt>0</asrwt>
<pdfrwt beam="1">  1        2 0.33892196E+00 0.32669452E+04</pdfrwt>
<pdfrwt beam="2">  1       -2 0.18633623E+00 0.32669452E+04</pdfrwt>
<totfact> 0.70683275E-01</totfact>
</mgrwt>
</event>
<event>
12    1  0.1397649E-007  0.3103737E+04  0.7818608E-02  0.8214713E-01
          2   -1    0    0  501    0  0.00000000000E+00  0.00000000000E+00  0.42027562546E+04  0.42027562546E+04  0.00000000000E+00 0. -1.
         -2   -1    0    0    0  501 -0.00000000000E+00 -0.00000000000E+00 -0.57302770992E+03  0.57302770992E+03  0.00000000000E+00 0.  1.
         23    2    1    2    0    0  0.26289399525E+02  0.29143022366E+03  0.38172537250E+04  0.38294781942E+04  0.88625791289E+02 0.  0.
        254    2    1    2    0    0 -0.26289399525E+02 -0.29143022366E+03 -0.18752518032E+03  0.94630577033E+03  0.88017396571E+03 0.  0.
        -24    2    4    4    0    0 -0.10646038861E+03  0.45450325365E+02 -0.47163746224E+03  0.49172798575E+03  0.77168450604E+02 0.  0.
         24    2    4    4    0    0  0.80170989081E+02 -0.33688054902E+03  0.28411228192E+03  0.45457778458E+03  0.77493752620E+02 0.  0.
         13    1    3    3    0    0  0.42146670783E+01  0.22624536240E+02  0.76065847730E+03  0.76100653883E+03  0.00000000000E+00 0. -1.
        -13    1    3    3    0    0  0.22074732447E+02  0.26880568742E+03  0.30565952477E+04  0.30684716553E+04  0.00000000000E+00 0.  1.
          4    1    6    6  502    0  0.56691112550E+02 -0.27117719169E+03  0.26220203645E+03  0.38144574903E+03  0.00000000000E+00 0. -1.
          3    1    5    5  503    0 -0.90961218386E+02  0.66678115865E+02 -0.37701763360E+03  0.39352536186E+03  0.00000000000E+00 0. -1.
         -4    1    5    5    0  503 -0.15499170220E+02 -0.21227790500E+02 -0.94619828642E+02  0.98202623892E+02  0.00000000000E+00 0.  1.
         -3    1    6    6    0  502  0.23479876531E+02 -0.65703357338E+02  0.21910245468E+02  0.73132035551E+02  0.00000000000E+00 0.  1.
<mgrwt>
<rscale>  0 0.31037370E+04</rscale>
<asrwt>0</asrwt>
<pdfrwt beam="1">  1        2 0.64657787E+00 0.31037370E+04</pdfrwt>
<pdfrwt beam="2">  1       -2 0.88158112E-01 0.31037370E+04</pdfrwt>
<totfact> 0.21725590E-01</totfact>
</mgrwt>
</event>
<event>
12    1  0.1397649E-007  0.2653531E+04  0.7818608E-02  0.8350242E-01
         -1   -1    0    0    0  501 -0.00000000000E+00  0.00000000000E+00  0.15275218614E+04  0.15275218614E+04  0.00000000000E+00 0.  1.
          1   -1    0    0  501    0  0.00000000000E+00 -0.00000000000E+00 -0.11523936042E+04  0.11523936042E+04  0.00000000000E+00 0. -1.
         23    2    1    2    0    0 -0.76779239878E+03 -0.21423496386E+03  0.10466714307E+04  0.13187090467E+04  0.89836955225E+02 0.  0.
        254    2    1    2    0    0  0.76779239878E+03  0.21423496386E+03 -0.67154317355E+03  0.13612064190E+04  0.87550607866E+03 0.  0.
        -24    2    4    4    0    0 -0.66687931912E+02  0.89766718403E+02  0.13435483705E+03  0.19135193966E+03  0.77839569493E+02 0.  0.
         24    2    4    4    0    0  0.83448033069E+03  0.12446824546E+03 -0.80589801060E+03  0.11698544793E+04  0.85077216925E+02 0.  0.
         11    1    3    3    0    0 -0.39062981562E+03 -0.10165575945E+03  0.60275854328E+03  0.72542636275E+03  0.00000000000E+00 0.  1.
        -11    1    3    3    0    0 -0.37716258316E+03 -0.11257920441E+03  0.44391288744E+03  0.59328268392E+03  0.00000000000E+00 0. -1.
          2    1    6    6  502    0  0.46550845372E+03  0.11086577938E+03 -0.46866430100E+03  0.66980263403E+03  0.00000000000E+00 0. -1.
          3    1    5    5  503    0 -0.74803990725E+01  0.20351880827E+02  0.84797295854E+02  0.87525635145E+02  0.00000000000E+00 0. -1.
         -4    1    5    5    0  503 -0.59207532840E+02  0.69414837576E+02  0.49557541197E+02  0.10382630452E+03  0.00000000000E+00 0.  1.
         -1    1    6    6    0  502  0.36897187697E+03  0.13602466078E+02 -0.33723370960E+03  0.50005184528E+03  0.00000000000E+00 0.  1.
<mgrwt>
<rscale>  0 0.26535308E+04</rscale>
<asrwt>0</asrwt>
<pdfrwt beam="1">  1        1 0.17729132E+00 0.26535308E+04</pdfrwt>
<pdfrwt beam="2">  1       -1 0.23500336E+00 0.26535308E+04</pdfrwt>
<totfact> 0.88821906E-01</totfact>
</mgrwt>
</event>
<event>
12    1  0.1397649E-007  0.1755479E+04  0.7818608E-02  0.8730340E-01
          4   -1    0    0  501    0  0.00000000000E+00  0.00000000000E+00  0.13510906085E+04  0.13510906085E+04  0.00000000000E+00 0. -1.
         -4   -1    0    0    0  501 -0.00000000000E+00 -0.00000000000E+00 -0.57022597091E+03  0.57022597091E+03  0.00000000000E+00 0.  1.
         23    2    1    2    0    0 -0.12183949569E+03 -0.43794164770E+03 -0.25836141684E+03  0.53054378609E+03  0.89935186378E+02 0.  0.
        254    2    1    2    0    0  0.12183949569E+03  0.43794164770E+03  0.10392260544E+04  0.13907727933E+04  0.80474866941E+03 0.  0.
        -24    2    4    4    0    0 -0.31960318526E+03  0.26045616516E+03  0.33390895895E+03  0.53632917754E+03  0.78550517645E+02 0.  0.
         24    2    4    4    0    0  0.44144268095E+03  0.17748548255E+03  0.70531709548E+03  0.85444361578E+03  0.78923699144E+02 0.  0.
         11    1    3    3    0    0 -0.35857587370E+02 -0.28043869996E+03 -0.17664807380E+03  0.33337092402E+03  0.00000000000E+00 0.  1.
        -11    1    3    3    0    0 -0.85981908322E+02 -0.15750294775E+03 -0.81713343038E+02  0.19717286207E+03  0.00000000000E+00 0. -1.
          2    1    6    6  502    0  0.15147393650E+03  0.79519165901E+02  0.31471747802E+03  0.35821047187E+03  0.00000000000E+00 0. -1.
          3    1    5    5  503    0 -0.31865537077E+03  0.23923767727E+03  0.31689714333E+03  0.50911659863E+03  0.00000000000E+00 0. -1.
         -4    1    5    5    0  503 -0.94781448165E+00  0.21218487883E+02  0.17011815626E+02  0.27212578915E+02  0.00000000000E+00 0.  1.
         -1    1    6    6    0  502  0.28996874444E+03  0.97966316647E+02  0.39059961746E+03  0.49623314391E+03  0.00000000000E+00 0.  1.
<mgrwt>
<rscale>  0 0.17554794E+04</rscale>
<asrwt>0</asrwt>
<pdfrwt beam="1">  1        4 0.20786009E+00 0.17554794E+04</pdfrwt>
<pdfrwt beam="2">  1       -4 0.87727073E-01 0.17554794E+04</pdfrwt>
<totfact> 0.24874868E-01</totfact>
</mgrwt>
</event>
<event>
12    1  0.1397649E-007  0.2467985E+04  0.7818608E-02  0.8414481E-01
          2   -1    0    0  501    0  0.00000000000E+00  0.00000000000E+00  0.18562003649E+04  0.18562003649E+04  0.00000000000E+00 0. -1.
         -2   -1    0    0    0  501 -0.00000000000E+00 -0.00000000000E+00 -0.82035167839E+03  0.82035167839E+03  0.00000000000E+00 0.  1.
         23    2    1    2    0    0  0.58282636535E+03 -0.14849197413E+03  0.13918618791E+04  0.15193235595E+04  0.96582345087E+02 0.  0.
        254    2    1    2    0    0 -0.58282636535E+03  0.14849197413E+03 -0.35601319261E+03  0.11572284838E+04  0.92233179054E+03 0.  0.
        -24    2    4    4    0    0 -0.47724964107E+02  0.45749503824E+03 -0.23479142002E+03  0.52261274991E+03  0.80110506442E+02 0.  0.
         24    2    4    4    0    0 -0.53510140124E+03 -0.30900306411E+03 -0.12122177259E+03  0.63461573387E+03  0.78905058754E+02 0.  0.
         13    1    3    3    0    0  0.51169740366E+02 -0.38480818498E+02  0.11086481493E+03  0.12802391538E+03  0.00000000000E+00 0.  1.
        -13    1    3    3    0    0  0.53165662498E+03 -0.11001115563E+03  0.12809970642E+04  0.13912996441E+04  0.00000000000E+00 0. -1.
          2    1    6    6  502    0 -0.14477435504E+03 -0.50724005226E+02 -0.48970237305E+02  0.16102988146E+03  0.00000000000E+00 0. -1.
          1    1    5    5  503    0 -0.57800665124E+02  0.22128648991E+03 -0.13817570479E+03  0.26720994162E+03  0.00000000000E+00 0. -1.
         -2    1    5    5    0  503  0.10075701017E+02  0.23620854832E+03 -0.96615715230E+02  0.25540280829E+03  0.00000000000E+00 0.  1.
         -1    1    6    6    0  502 -0.39032704620E+03 -0.25827905888E+03 -0.72251535282E+02  0.47358585241E+03  0.00000000000E+00 0.  1.
<mgrwt>
<rscale>  0 0.24679847E+04</rscale>
<asrwt>0</asrwt>
<pdfrwt beam="1">  1        2 0.28556929E+00 0.24679847E+04</pdfrwt>
<pdfrwt beam="2">  1       -2 0.12620795E+00 0.24679847E+04</pdfrwt>
<totfact> 0.33612696E+00</totfact>
</mgrwt>
</event>
<event>
12    1  0.1397649E-007  0.1603562E+04  0.7818608E-02  0.8818363E-01
          2   -1    0    0  501    0  0.00000000000E+00  0.00000000000E+00  0.51102539614E+03  0.51102539614E+03  0.00000000000E+00 0. -1.
         -2   -1    0    0    0  501 -0.00000000000E+00 -0.00000000000E+00 -0.12579663623E+04  0.12579663623E+04  0.00000000000E+00 0.  1.
         23    2    1    2    0    0  0.36573396374E+03 -0.18542474726E+03 -0.65493142608E+03  0.77791416736E+03  0.89842138116E+02 0.  0.
        254    2    1    2    0    0 -0.36573396374E+03  0.18542474726E+03 -0.92009540080E+02  0.99107759109E+03  0.89756635797E+03 0.  0.
        -24    2    4    4    0    0 -0.80223495552E+02 -0.17402852863E+03 -0.38636544042E+03  0.43936594286E+03  0.83919247964E+02 0.  0.
         24    2    4    4    0    0 -0.28551046819E+03  0.35945327589E+03  0.29435590033E+03  0.55171164823E+03  0.83770291486E+02 0.  0.
         11    1    3    3    0    0  0.16480954691E+01 -0.19165803612E+02 -0.36545643686E+02  0.41299253252E+02  0.00000000000E+00 0. -1.
        -11    1    3    3    0    0  0.36408586827E+03 -0.16625894365E+03 -0.61838578240E+03  0.73661491411E+03  0.00000000000E+00 0.  1.
          2    1    6    6  502    0 -0.26198673077E+03  0.27978605190E+03  0.23475783126E+03  0.44947582947E+03  0.00000000000E+00 0. -1.
          3    1    5    5  503    0 -0.95943530389E+02 -0.16283725516E+03 -0.36113343430E+03  0.40760089556E+03  0.00000000000E+00 0. -1.
         -4    1    5    5    0  503  0.15720034837E+02 -0.11191273474E+02 -0.25232006113E+02  0.31765047296E+02  0.00000000000E+00 0.  1.
         -1    1    6    6    0  502 -0.23523737418E+02  0.79667223987E+02  0.59598069075E+02  0.10223581876E+03  0.00000000000E+00 0.  1.
<mgrwt>
<rscale>  0 0.16035620E+04</rscale>
<asrwt>0</asrwt>
<pdfrwt beam="1">  1        2 0.78619293E-01 0.16035620E+04</pdfrwt>
<pdfrwt beam="2">  1       -2 0.19353328E+00 0.16035620E+04</pdfrwt>
<totfact> 0.84388944E+00</totfact>
</mgrwt>
</event>
<event>
12    1  0.1397649E-007  0.2483438E+04  0.7818608E-02  0.8408910E-01
          1   -1    0    0  501    0  0.00000000000E+00  0.00000000000E+00  0.18475221609E+04  0.18475221609E+04  0.00000000000E+00 0. -1.
         -1   -1    0    0    0  501 -0.00000000000E+00 -0.00000000000E+00 -0.83455907978E+03  0.83455907978E+03  0.00000000000E+00 0.  1.
         23    2    1    2    0    0  0.73646613975E+03 -0.39624611345E+03  0.11681698363E+04  0.14395355960E+04  0.90821848296E+02 0.  0.
        254    2    1    2    0    0 -0.73646613975E+03  0.39624611345E+03 -0.15520675522E+03  0.12425456447E+04  0.90577987660E+03 0.  0.
        -24    2    4    4    0    0 -0.38641640399E+03 -0.34648798424E+02  0.31879359473E+03  0.50874530827E+03  0.81696120763E+02 0.  0.
         24    2    4    4    0    0 -0.35004973576E+03  0.43089491188E+03 -0.47400034994E+03  0.73380033642E+03  0.74708496132E+02 0.  0.
         13    1    3    3    0    0  0.28387884140E+02 -0.35939257657E+02  0.49337782234E+02  0.67318043366E+02  0.00000000000E+00 0.  1.
        -13    1    3    3    0    0  0.70807825561E+03 -0.36030685580E+03  0.11188320541E+04  0.13722175526E+04  0.00000000000E+00 0. -1.
          2    1    6    6  502    0 -0.34637212498E+03  0.40646485582E+03 -0.46285233127E+03  0.70669626329E+03  0.00000000000E+00 0. -1.
          1    1    5    5  503    0 -0.32633905430E+03 -0.42255041554E+02  0.23082734507E+03  0.40195015876E+03  0.00000000000E+00 0. -1.
         -4    1    5    5    0  503 -0.60077349692E+02  0.76062431303E+01  0.87966249659E+02  0.10679514951E+03  0.00000000000E+00 0.  1.
         -1    1    6    6    0  502 -0.36776107853E+01  0.24430056061E+02 -0.11148018668E+02  0.27104073134E+02  0.00000000000E+00 0.  1.
<mgrwt>
<rscale>  0 0.24834383E+04</rscale>
<asrwt>0</asrwt>
<pdfrwt beam="1">  1        1 0.28423418E+00 0.24834383E+04</pdfrwt>
<pdfrwt beam="2">  1       -1 0.12839370E+00 0.24834383E+04</pdfrwt>
<totfact> 0.17606430E+00</totfact>
</mgrwt>
</event>
<event>
12    1  0.1397649E-007  0.2040396E+04  0.7818608E-02  0.8587964E-01
         -2   -1    0    0    0  501 -0.00000000000E+00  0.00000000000E+00  0.64393381708E+03  0.64393381708E+03  0.00000000000E+00 0. -1.
          2   -1    0    0  501    0  0.00000000000E+00 -0.00000000000E+00 -0.16163213510E+04  0.16163213510E+04  0.00000000000E+00 0.  1.
         23    2    1    2    0    0  0.13836972852E+03 -0.52767185469E+03  0.28010436580E+03  0.61974555261E+03  0.89679017808E+02 0.  0.
        254    2    1    2    0    0 -0.13836972852E+03  0.52767185469E+03 -0.12524918997E+04  0.16405096154E+04  0.90826872210E+03 0.  0.
        -24    2    4    4    0    0 -0.30839391855E+03  0.61146449121E+03 -0.12586239040E+04  0.14351816392E+04  0.81342318453E+02 0.  0.
         24    2    4    4    0    0  0.17002419003E+03 -0.83792636522E+02  0.61320043055E+01  0.20532797624E+03  0.78692726596E+02 0.  0.
         11    1    3    3    0    0  0.68757729959E+02 -0.27964517103E+03  0.19758860450E+03  0.34924247127E+03  0.00000000000E+00 0. -1.
        -11    1    3    3    0    0  0.69611998560E+02 -0.24802668366E+03  0.82515761296E+02  0.27050308133E+03  0.00000000000E+00 0.  1.
          4    1    6    6  502    0  0.85834955006E+02 -0.85127692921E+02  0.74320588840E+01  0.12111812045E+03  0.00000000000E+00 0. -1.
          1    1    5    5  503    0 -0.21703864559E+03  0.49976985584E+03 -0.10165237095E+04  0.11533412914E+04  0.00000000000E+00 0. -1.
         -2    1    5    5    0  503 -0.91355272965E+02  0.11169463537E+03 -0.24210019448E+03  0.28184034778E+03  0.00000000000E+00 0.  1.
         -3    1    6    6    0  502  0.84189235025E+02  0.13350563990E+01 -0.13000545785E+01  0.84209855787E+02  0.00000000000E+00 0.  1.
<mgrwt>
<rscale>  0 0.20403960E+04</rscale>
<asrwt>0</asrwt>
<pdfrwt beam="1">  1        2 0.24866482E+00 0.20403960E+04</pdfrwt>
<pdfrwt beam="2">  1       -2 0.99066742E-01 0.20403960E+04</pdfrwt>
<totfact> 0.85406442E+00</totfact>
</mgrwt>
</event>
<event>
12    1  0.1397649E-007  0.2552436E+04  0.7818608E-02  0.8384540E-01
          1   -1    0    0  501    0  0.00000000000E+00  0.00000000000E+00  0.11426175988E+04  0.11426175988E+04  0.00000000000E+00 0. -1.
         -1   -1    0    0    0  501 -0.00000000000E+00 -0.00000000000E+00 -0.14254395271E+04  0.14254395271E+04  0.00000000000E+00 0.  1.
         23    2    1    2    0    0  0.33489444328E+03 -0.75293479490E+03  0.63333614332E+03  0.10432099278E+04  0.90039933105E+02 0.  0.
        254    2    1    2    0    0 -0.33489444328E+03  0.75293479490E+03 -0.91615807158E+03  0.15248471980E+04  0.89819166759E+03 0.  0.
        -24    2    4    4    0    0 -0.14905604862E+03  0.13079543122E+03  0.15879778567E+03  0.26649745708E+03  0.80492281846E+02 0.  0.
         24    2    4    4    0    0 -0.18583839466E+03  0.62213936368E+03 -0.10749558572E+04  0.12583497410E+04  0.79502696553E+02 0.  0.
         13    1    3    3    0    0  0.65378663644E+01 -0.27629979873E+01 -0.12664317335E+01  0.72098338270E+01  0.00000000000E+00 0.  1.
        -13    1    3    3    0    0  0.32835657692E+03 -0.75017179691E+03  0.63460257505E+03  0.10360000940E+04  0.00000000000E+00 0. -1.
          4    1    6    6  502    0 -0.17872126027E+03  0.49299710433E+03 -0.87984391227E+03  0.10242620484E+04  0.00000000000E+00 0. -1.
          1    1    5    5  503    0 -0.49864914035E+02  0.22022453348E+02  0.87112401830E+02  0.10276219468E+03  0.00000000000E+00 0. -1.
         -4    1    5    5    0  503 -0.99191134587E+02  0.10877297787E+03  0.71685383842E+02  0.16373526240E+03  0.00000000000E+00 0.  1.
         -3    1    6    6    0  502 -0.71171343959E+01  0.12914225935E+03 -0.19511194498E+03  0.23408769260E+03  0.00000000000E+00 0.  1.
<mgrwt>
<rscale>  0 0.25524359E+04</rscale>
<asrwt>0</asrwt>
<pdfrwt beam="1">  1        1 0.17578732E+00 0.25524359E+04</pdfrwt>
<pdfrwt beam="2">  1       -1 0.21929839E+00 0.25524359E+04</pdfrwt>
<totfact> 0.11590079E+00</totfact>
</mgrwt>
</event>
<event>
12    1  0.1397649E-007  0.1918928E+04  0.7818608E-02  0.8645492E-01
          2   -1    0    0  501    0  0.00000000000E+00  0.00000000000E+00  0.62716110643E+03  0.62716110643E+03  0.00000000000E+00 0. -1.
         -2   -1    0    0    0  501 -0.00000000000E+00 -0.00000000000E+00 -0.14678383359E+04  0.14678383359E+04  0.00000000000E+00 0.  1.
         23    2    1    2    0    0  0.60734253229E+03 -0.33906093349E+03 -0.20552729757E+02  0.70185255015E+03  0.91363665105E+02 0.  0.
        254    2    1    2    0    0 -0.60734253229E+03  0.33906093349E+03 -0.82012449970E+03  0.13931468922E+04  0.88567872280E+03 0.  0.
        -24    2    4    4    0    0 -0.22112198978E+03 -0.29427312618E+03 -0.23075718755E+03  0.44209660898E+03  0.81908027144E+02 0.  0.
         24    2    4    4    0    0 -0.38622054250E+03  0.63333405967E+03 -0.58936731215E+03  0.95105028319E+03  0.82852120957E+02 0.  0.
         13    1    3    3    0    0 -0.11652188962E+00 -0.71638820142E+01 -0.62211511793E+01  0.94888094543E+01  0.00000000000E+00 0.  1.
        -13    1    3    3    0    0  0.60745905418E+03 -0.33189705148E+03 -0.14331578578E+02  0.69236374069E+03  0.00000000000E+00 0. -1.
          4    1    6    6  502    0 -0.18599517955E+03  0.22812502142E+03 -0.24017296523E+03  0.37989246563E+03  0.00000000000E+00 0. -1.
          3    1    5    5  503    0 -0.15610822127E+03 -0.14618684338E+03 -0.15074788137E+03  0.26165873512E+03  0.00000000000E+00 0. -1.
         -4    1    5    5    0  503 -0.65013768513E+02 -0.14808628280E+03 -0.80009306178E+02  0.18043787386E+03  0.00000000000E+00 0.  1.
         -3    1    6    6    0  502 -0.20022536296E+03  0.40520903825E+03 -0.34919434692E+03  0.57115781757E+03  0.00000000000E+00 0.  1.
<mgrwt>
<rscale>  0 0.19189279E+04</rscale>
<asrwt>0</asrwt>
<pdfrwt beam="1">  1        2 0.96486325E-01 0.19189279E+04</pdfrwt>
<pdfrwt beam="2">  1       -2 0.22582128E+00 0.19189279E+04</pdfrwt>
<totfact> 0.39885337E+00</totfact>
</mgrwt>
</event>
<event>
12    1  0.1397649E-007  0.1650132E+04  0.7818608E-02  0.8790328E-01
         -2   -1    0    0    0  501 -0.00000000000E+00  0.00000000000E+00  0.71243852414E+03  0.71243852414E+03  0.00000000000E+00 0.  1.
          2   -1    0    0  501    0  0.00000000000E+00 -0.00000000000E+00 -0.95549890866E+03  0.95549890866E+03  0.00000000000E+00 0. -1.
         23    2    1    2    0    0  0.48961428606E+03 -0.25548223615E+03 -0.21454470195E+03  0.60039277278E+03  0.97204580018E+02 0.  0.
        254    2    1    2    0    0 -0.48961428606E+03  0.25548223615E+03 -0.28515682567E+02  0.10675446600E+04  0.91315121140E+03 0.  0.
        -24    2    4    4    0    0 -0.67729162594E+03  0.42295134862E+03 -0.29786066589E+02  0.80309664502E+03  0.80406601760E+02 0.  0.
         24    2    4    4    0    0  0.18767733989E+03 -0.16746911248E+03  0.12703840222E+01  0.26444801500E+03  0.81623839772E+02 0.  0.
         11    1    3    3    0    0  0.32390632630E+03 -0.18152375726E+03 -0.95573889516E+02  0.38340650884E+03  0.00000000000E+00 0. -1.
        -11    1    3    3    0    0  0.16570795976E+03 -0.73958478883E+02 -0.11897081244E+03  0.21698626394E+03  0.00000000000E+00 0.  1.
          2    1    6    6  502    0  0.65027456172E+02 -0.87605622070E+02 -0.33280549286E+02  0.11406537615E+03  0.00000000000E+00 0. -1.
          3    1    5    5  503    0 -0.10731724599E+02  0.15285245181E+02 -0.10696188940E+02  0.21522478736E+02  0.00000000000E+00 0. -1.
         -4    1    5    5    0  503 -0.66655990135E+03  0.40766610344E+03 -0.19089877649E+02  0.78157416629E+03  0.00000000000E+00 0.  1.
         -1    1    6    6    0  502  0.12264988371E+03 -0.79863490406E+02  0.34550933308E+02  0.15038263885E+03  0.00000000000E+00 0.  1.
<mgrwt>
<rscale>  0 0.16501324E+04</rscale>
<asrwt>0</asrwt>
<pdfrwt beam="1">  1        2 0.14699983E+00 0.16501324E+04</pdfrwt>
<pdfrwt beam="2">  1       -2 0.10960593E+00 0.16501324E+04</pdfrwt>
<totfact> 0.17047948E+01</totfact>
</mgrwt>
</event>
<event>
12    1  0.1397649E-007  0.1548215E+04  0.7818608E-02  0.8853009E-01
         -2   -1    0    0    0  501 -0.00000000000E+00  0.00000000000E+00  0.31744270729E+03  0.31744270729E+03  0.00000000000E+00 0.  1.
          2   -1    0    0  501    0  0.00000000000E+00 -0.00000000000E+00 -0.18877188593E+04  0.18877188593E+04  0.00000000000E+00 0. -1.
         23    2    1    2    0    0 -0.14924773634E+03 -0.18399692268E+03  0.99184821387E+02  0.27234397648E+03  0.90575153175E+02 0.  0.
        254    2    1    2    0    0  0.14924773634E+03  0.18399692268E+03 -0.16694609734E+04  0.19328175902E+04  0.94475083522E+03 0.  0.
        -24    2    4    4    0    0 -0.80349852141E+02  0.29187834778E+02  0.91616052553E+02  0.14830188208E+03  0.79321615618E+02 0.  0.
         24    2    4    4    0    0  0.22959758848E+03  0.15480908790E+03 -0.17610770260E+04  0.17845157081E+04  0.80144336044E+02 0.  0.
         11    1    3    3    0    0 -0.11925338913E+02 -0.45350245034E+01 -0.14559116215E+02  0.19358409553E+02  0.00000000000E+00 0.  1.
        -11    1    3    3    0    0 -0.13732239742E+03 -0.17946189818E+03  0.11374393760E+03  0.25298556692E+03  0.00000000000E+00 0. -1.
          4    1    6    6  502    0  0.20646311581E+03  0.10131397974E+03 -0.14117394915E+04  0.14303495841E+04  0.00000000000E+00 0. -1.
          3    1    5    5  503    0 -0.84322886117E+02  0.47847498911E+02  0.81781534539E+02  0.12683828944E+03  0.00000000000E+00 0. -1.
         -4    1    5    5    0  503  0.39730339765E+01 -0.18659664134E+02  0.98345180138E+01  0.21463592643E+02  0.00000000000E+00 0.  1.
         -3    1    6    6    0  502  0.23134472671E+02  0.53495108165E+02 -0.34933753445E+03  0.35416612401E+03  0.00000000000E+00 0.  1.
<mgrwt>
<rscale>  0 0.15482152E+04</rscale>
<asrwt>0</asrwt>
<pdfrwt beam="1">  1        2 0.29041829E+00 0.15482152E+04</pdfrwt>
<pdfrwt beam="2">  1       -2 0.48837340E-01 0.15482152E+04</pdfrwt>
<totfact> 0.29484300E+01</totfact>
</mgrwt>
</event>
<event>
12    1  0.1397649E-007  0.2296600E+04  0.7818608E-02  0.8479263E-01
         -2   -1    0    0    0  501 -0.00000000000E+00  0.00000000000E+00  0.56641651452E+03  0.56641651452E+03  0.00000000000E+00 0.  1.
          2   -1    0    0  501    0  0.00000000000E+00 -0.00000000000E+00 -0.23279559364E+04  0.23279559364E+04  0.00000000000E+00 0. -1.
         23    2    1    2    0    0  0.28044735154E+03 -0.92569819242E+03 -0.64084883442E+03  0.11639514146E+04  0.92346123426E+02 0.  0.
        254    2    1    2    0    0 -0.28044735154E+03  0.92569819242E+03 -0.11206905875E+04  0.17304210364E+04  0.89601434684E+03 0.  0.
        -24    2    4    4    0    0 -0.51658278845E+03  0.38087753477E+03 -0.29636423922E+03  0.71144601454E+03  0.79988721075E+02 0.  0.
         24    2    4    4    0    0  0.23613543691E+03  0.54482065766E+03 -0.82432634828E+03  0.10189750218E+04  0.78782441403E+02 0.  0.
         11    1    3    3    0    0  0.14136540830E+03 -0.61372759529E+03 -0.40213966719E+03  0.74723627576E+03  0.00000000000E+00 0. -1.
        -11    1    3    3    0    0  0.13908194324E+03 -0.31197059713E+03 -0.23870916724E+03  0.41671513883E+03  0.00000000000E+00 0.  1.
          2    1    6    6  502    0  0.14947018597E+03  0.24693982709E+03 -0.40711595175E+03  0.49906313515E+03  0.00000000000E+00 0. -1.
          1    1    5    5  503    0 -0.94302721090E+01  0.22893730524E+02 -0.20476687433E+02  0.32130167407E+02  0.00000000000E+00 0. -1.
         -2    1    5    5    0  503 -0.50715251634E+03  0.35798380424E+03 -0.27588755179E+03  0.67931584713E+03  0.00000000000E+00 0.  1.
         -1    1    6    6    0  502  0.86665250943E+02  0.29788083057E+03 -0.41721039653E+03  0.51991188668E+03  0.00000000000E+00 0.  1.
<mgrwt>
<rscale>  0 0.22965998E+04</rscale>
<asrwt>0</asrwt>
<pdfrwt beam="1">  1        2 0.35814707E+00 0.22965998E+04</pdfrwt>
<pdfrwt beam="2">  1       -2 0.87141002E-01 0.22965998E+04</pdfrwt>
<totfact> 0.45112721E+00</totfact>
</mgrwt>
</event>
<event>
12    1  0.1397649E-007  0.3180969E+04  0.7818608E-02  0.8193861E-01
         -4   -1    0    0    0  501 -0.00000000000E+00  0.00000000000E+00  0.82625163972E+03  0.82625163972E+03  0.00000000000E+00 0.  1.
          4   -1    0    0  501    0  0.00000000000E+00 -0.00000000000E+00 -0.30615861545E+04  0.30615861545E+04  0.00000000000E+00 0. -1.
         23    2    1    2    0    0  0.27486285448E+03  0.12638660277E+04 -0.19803231970E+03  0.13118614982E+04  0.94110924295E+02 0.  0.
        254    2    1    2    0    0 -0.27486285448E+03 -0.12638660277E+04 -0.20373021951E+04  0.25759762960E+04  0.90119183228E+03 0.  0.
        -24    2    4    4    0    0  0.17816658283E+03  0.31744361107E+02 -0.20315368578E+03  0.28374056804E+03  0.80537284562E+02 0.  0.
         24    2    4    4    0    0 -0.45302943731E+03 -0.12956103888E+04 -0.18341485093E+04  0.22922357280E+04  0.80012046406E+02 0.  0.
         11    1    3    3    0    0  0.83164233561E+02  0.25337093978E+03 -0.67609262130E+02  0.27510749753E+03  0.00000000000E+00 0. -1.
        -11    1    3    3    0    0  0.19169862092E+03  0.10104950880E+04 -0.13042305757E+03  0.10367540007E+04  0.00000000000E+00 0.  1.
          4    1    6    6  502    0 -0.20986905895E+03 -0.68521601808E+03 -0.90933618576E+03  0.11577816340E+04  0.00000000000E+00 0. -1.
          3    1    5    5  503    0  0.18119839342E+03  0.43142605201E+02 -0.18994721137E+03  0.26603399269E+03  0.00000000000E+00 0. -1.
         -4    1    5    5    0  503 -0.30318105952E+01 -0.11398244094E+02 -0.13206474412E+02  0.17706575341E+02  0.00000000000E+00 0.  1.
         -1    1    6    6    0  502 -0.24316037836E+03 -0.61039437077E+03 -0.92481232358E+03  0.11344540940E+04  0.00000000000E+00 0.  1.
<mgrwt>
<rscale>  0 0.31809688E+04</rscale>
<asrwt>0</asrwt>
<pdfrwt beam="1">  1        4 0.47101325E+00 0.31809688E+04</pdfrwt>
<pdfrwt beam="2">  1       -4 0.12711564E+00 0.31809688E+04</pdfrwt>
<totfact> 0.15628118E-03</totfact>
</mgrwt>
</event>
<event>
12    1  0.1397649E-007  0.1650950E+04  0.7818608E-02  0.8789844E-01
         -2   -1    0    0    0  501 -0.00000000000E+00  0.00000000000E+00  0.38966035551E+03  0.38966035551E+03  0.00000000000E+00 0. -1.
          2   -1    0    0  501    0  0.00000000000E+00 -0.00000000000E+00 -0.17487260916E+04  0.17487260916E+04  0.00000000000E+00 0.  1.
         23    2    1    2    0    0 -0.17104248911E+03  0.80113235974E+02 -0.11833735592E+04  0.12018473976E+04  0.91599796136E+02 0.  0.
        254    2    1    2    0    0  0.17104248911E+03 -0.80113235974E+02 -0.17569217680E+03  0.93653904950E+03  0.90031327136E+03 0.  0.
        -24    2    4    4    0    0  0.31212155783E+02 -0.10478155440E+03 -0.52985324954E+03  0.54684441575E+03  0.79630246651E+02 0.  0.
         24    2    4    4    0    0  0.13983033333E+03  0.24668318429E+02  0.35416107274E+03  0.38969463374E+03  0.79188345553E+02 0.  0.
         11    1    3    3    0    0 -0.29996033255E+01  0.30118132425E+02 -0.27896624850E+03  0.28060339863E+03  0.00000000000E+00 0. -1.
        -11    1    3    3    0    0 -0.16804288579E+03  0.49995103548E+02 -0.90440731075E+03  0.92124399894E+03  0.00000000000E+00 0.  1.
          2    1    6    6  502    0  0.34750121700E+02 -0.16734540726E+02  0.38756099439E+02  0.54677701627E+02  0.00000000000E+00 0. -1.
          3    1    5    5  503    0  0.63214275213E+01  0.11559722289E+02 -0.98762733224E+02  0.99637669078E+02  0.00000000000E+00 0. -1.
         -4    1    5    5    0  503  0.24890728262E+02 -0.11634127669E+03 -0.43109051632E+03  0.44720674668E+03  0.00000000000E+00 0.  1.
         -1    1    6    6    0  502  0.10508021163E+03  0.41402859155E+02  0.31540497330E+03  0.33501693211E+03  0.00000000000E+00 0.  1.
<mgrwt>
<rscale>  0 0.16509503E+04</rscale>
<asrwt>0</asrwt>
<pdfrwt beam="1">  1        2 0.26903479E+00 0.16509503E+04</pdfrwt>
<pdfrwt beam="2">  1       -2 0.59947746E-01 0.16509503E+04</pdfrwt>
<totfact> 0.22833154E+01</totfact>
</mgrwt>
</event>
<event>
12    1  0.1397649E-007  0.1292744E+04  0.7818608E-02  0.9035339E-01
          1   -1    0    0  501    0  0.00000000000E+00  0.00000000000E+00  0.56275265353E+03  0.56275265353E+03  0.00000000000E+00 0. -1.
         -1   -1    0    0    0  501 -0.00000000000E+00 -0.00000000000E+00 -0.74241667581E+03  0.74241667581E+03  0.00000000000E+00 0.  1.
         23    2    1    2    0    0 -0.15282448185E+03 -0.24502186665E+03 -0.22001568112E+03  0.37438103980E+03  0.91450673230E+02 0.  0.
        254    2    1    2    0    0  0.15282448185E+03  0.24502186665E+03  0.40351658845E+02  0.93078828953E+03  0.88393865521E+03 0.  0.
        -24    2    4    4    0    0  0.12432210237E+03  0.51152499418E+03  0.24307746449E+03  0.58527827746E+03  0.79688164193E+02 0.  0.
         24    2    4    4    0    0  0.28502379484E+02 -0.26650312753E+03 -0.20272580565E+03  0.34551001208E+03  0.80269007417E+02 0.  0.
         13    1    3    3    0    0 -0.15550607905E+03 -0.20145688014E+03 -0.16162188686E+03  0.30147744441E+03  0.00000000000E+00 0.  1.
        -13    1    3    3    0    0  0.26815971915E+01 -0.43564986507E+02 -0.58393794258E+02  0.72903595390E+02  0.00000000000E+00 0. -1.
          4    1    6    6  502    0 -0.21871431735E+02 -0.79463907558E+02 -0.87133189778E+02  0.11993775424E+03  0.00000000000E+00 0. -1.
          1    1    5    5  503    0 -0.89318790788E+00 -0.28421870723E+01  0.80859852459E+00  0.30870120775E+01  0.00000000000E+00 0. -1.
         -2    1    5    5    0  503  0.12521529028E+03  0.51436718125E+03  0.24226886597E+03  0.58219126538E+03  0.00000000000E+00 0.  1.
         -3    1    6    6    0  502  0.50373811219E+02 -0.18703921997E+03 -0.11559261587E+03  0.22557225784E+03  0.00000000000E+00 0.  1.
<mgrwt>
<rscale>  0 0.12927443E+04</rscale>
<asrwt>0</asrwt>
<pdfrwt beam="1">  1        1 0.86577332E-01 0.12927443E+04</pdfrwt>
<pdfrwt beam="2">  1       -1 0.11421795E+00 0.12927443E+04</pdfrwt>
<totfact> 0.25767025E+01</totfact>
</mgrwt>
</event>
<event>
12    1  0.1939921E-007  0.2589617E+04  0.7818608E-02  0.8371737E-01
         -2   -1    0    0    0  501 -0.00000000000E+00  0.00000000000E+00  0.12379423726E+04  0.12379423726E+04  0.00000000000E+00 0.  1.
          2   -1    0    0  501    0  0.00000000000E+00 -0.00000000000E+00 -0.13542870879E+04  0.13542870879E+04  0.00000000000E+00 0. -1.
         23    2    1    2    0    0  0.39557647408E+03  0.18998580247E+02  0.10191914135E+04  0.10972708617E+04  0.91708853626E+02 0.  0.
        254    2    1    2    0    0 -0.39557647408E+03 -0.18998580247E+02 -0.11355361287E+04  0.14949585988E+04  0.88804122628E+03 0.  0.
        -24    2    4    4    0    0  0.14158504186E+03  0.22616744788E+03 -0.93009555515E+02  0.29434411401E+03  0.82399280801E+02 0.  0.
         24    2    4    4    0    0 -0.53716151594E+03 -0.24516602813E+03 -0.10425265732E+04  0.12006144847E+04  0.77230885525E+02 0.  0.
         11    1    3    3    0    0 -0.51425257289E+01 -0.11711627232E+01  0.14197233734E+02  0.15145251358E+02  0.00000000000E+00 0. -1.
        -11    1    3    3    0    0  0.40071899981E+03  0.20169742970E+02  0.10049941797E+04  0.10821256104E+04  0.00000000000E+00 0.  1.
          4    1    6    6  502    0 -0.14911033530E+01 -0.74157659943E+01 -0.51948482800E+01  0.91762423216E+01  0.00000000000E+00 0. -1.
          1    1    5    5  503    0  0.18148712136E+02 -0.53537152569E-01  0.46816306101E+01  0.18742899552E+02  0.00000000000E+00 0. -1.
         -2    1    5    5    0  503  0.12343632973E+03  0.22622098503E+03 -0.97691186125E+02  0.27560121446E+03  0.00000000000E+00 0.  1.
         -3    1    6    6    0  502 -0.53567041259E+03 -0.23775026213E+03 -0.10373317249E+04  0.11914382424E+04  0.00000000000E+00 0.  1.
<mgrwt>
<rscale>  0 0.25896172E+04</rscale>
<asrwt>0</asrwt>
<pdfrwt beam="1">  1        2 0.20835186E+00 0.25896172E+04</pdfrwt>
<pdfrwt beam="2">  1       -2 0.19045267E+00 0.25896172E+04</pdfrwt>
<totfact> 0.20951481E+00</totfact>
</mgrwt>
</event>
<event>
12    1  0.1397649E-007  0.3141460E+04  0.7818608E-02  0.8204451E-01
          2   -1    0    0  501    0  0.00000000000E+00  0.00000000000E+00  0.98599306165E+03  0.98599306165E+03  0.00000000000E+00 0. -1.
         -2   -1    0    0    0  501 -0.00000000000E+00 -0.00000000000E+00 -0.25022411319E+04  0.25022411319E+04  0.00000000000E+00 0.  1.
         23    2    1    2    0    0  0.13526288021E+04  0.41951128957E+03 -0.32464622754E+03  0.14557525376E+04  0.90696634282E+02 0.  0.
        254    2    1    2    0    0 -0.13526288021E+04 -0.41951128957E+03 -0.11916018428E+04  0.20324816560E+04  0.83992400364E+03 0.  0.
        -24    2    4    4    0    0 -0.14317331981E+04 -0.47434547920E+03 -0.10369734208E+04  0.18320882490E+04  0.79811606666E+02 0.  0.
         24    2    4    4    0    0  0.79104395974E+02  0.54834189631E+02 -0.15462842197E+03  0.20039340700E+03  0.83565991121E+02 0.  0.
         11    1    3    3    0    0  0.45492301312E+03  0.12961396490E+03 -0.66202933878E+02  0.47763747363E+03  0.00000000000E+00 0. -1.
        -11    1    3    3    0    0  0.89770578896E+03  0.28989732468E+03 -0.25844329366E+03  0.97811506400E+03  0.00000000000E+00 0.  1.
          4    1    6    6  502    0  0.72637215132E+02  0.19907947857E+02 -0.14531417432E+03  0.16367254097E+03  0.00000000000E+00 0. -1.
          3    1    5    5  503    0 -0.29455576725E+03 -0.11952222829E+03 -0.18857484541E+03  0.36960673073E+03  0.00000000000E+00 0. -1.
         -4    1    5    5    0  503 -0.11371774308E+04 -0.35482325092E+03 -0.84839857538E+03  0.14624815182E+04  0.00000000000E+00 0.  1.
         -3    1    6    6    0  502  0.64671808416E+01  0.34926241774E+02 -0.93142476535E+01  0.36720866028E+02  0.00000000000E+00 0.  1.
<mgrwt>
<rscale>  0 0.31414598E+04</rscale>
<asrwt>0</asrwt>
<pdfrwt beam="1">  1        2 0.15169124E+00 0.31414598E+04</pdfrwt>
<pdfrwt beam="2">  1       -2 0.38496017E+00 0.31414598E+04</pdfrwt>
<totfact> 0.20222871E-01</totfact>
</mgrwt>
</event>
<event>
12    1  0.1397649E-007  0.3852179E+04  0.7818608E-02  0.8035049E-01
          1   -1    0    0  501    0  0.00000000000E+00  0.00000000000E+00  0.20213890334E+04  0.20213890334E+04  0.00000000000E+00 0. -1.
         -1   -1    0    0    0  501 -0.00000000000E+00 -0.00000000000E+00 -0.18352826142E+04  0.18352826142E+04  0.00000000000E+00 0.  1.
         23    2    1    2    0    0 -0.17462334337E+04  0.35200306601E+03  0.46047140273E+03  0.18421466113E+04  0.90735116488E+02 0.  0.
        254    2    1    2    0    0  0.17462334337E+04 -0.35200306601E+03 -0.27436498352E+03  0.20145250363E+04  0.89988755630E+03 0.  0.
        -24    2    4    4    0    0  0.43938748801E+03  0.98525548460E+02 -0.42150764401E+03  0.62201567578E+03  0.80412428358E+02 0.  0.
         24    2    4    4    0    0  0.13068459457E+04 -0.45052861447E+03  0.14714266048E+03  0.13925093605E+04  0.81295745338E+02 0.  0.
         13    1    3    3    0    0 -0.13665490070E+04  0.24007095253E+03  0.34300730294E+03  0.14292460462E+04  0.00000000000E+00 0. -1.
        -13    1    3    3    0    0 -0.37968442676E+03  0.11193211348E+03  0.11746409979E+03  0.41290056514E+03  0.00000000000E+00 0.  1.
          2    1    6    6  502    0  0.12371066279E+04 -0.44513452945E+03  0.14098054382E+03  0.13222908423E+04  0.00000000000E+00 0. -1.
          3    1    5    5  503    0  0.33191097873E+03  0.98999305640E+02 -0.28682047708E+03  0.44970184166E+03  0.00000000000E+00 0. -1.
         -4    1    5    5    0  503  0.10747650928E+03 -0.47375718010E+00 -0.13468716693E+03  0.17231383412E+03  0.00000000000E+00 0.  1.
         -1    1    6    6    0  502  0.69739317860E+02 -0.53940850170E+01  0.61621166669E+01  0.70218518145E+02  0.00000000000E+00 0.  1.
<mgrwt>
<rscale>  0 0.38521787E+04</rscale>
<asrwt>0</asrwt>
<pdfrwt beam="1">  1        1 0.31098293E+00 0.38521787E+04</pdfrwt>
<pdfrwt beam="2">  1       -1 0.28235117E+00 0.38521787E+04</pdfrwt>
<totfact> 0.98120621E-02</totfact>
</mgrwt>
</event>
<event>
12    1  0.1397649E-007  0.5224137E+04  0.7818608E-02  0.7794832E-01
          2   -1    0    0  501    0  0.00000000000E+00  0.00000000000E+00  0.40363893603E+04  0.40363893603E+04  0.00000000000E+00 0. -1.
         -2   -1    0    0    0  501 -0.00000000000E+00 -0.00000000000E+00 -0.16903478236E+04  0.16903478236E+04  0.00000000000E+00 0.  1.
         23    2    1    2    0    0  0.11613617490E+04  0.65811311735E+03  0.35005093484E+04  0.37475207780E+04  0.92045075268E+02 0.  0.
        254    2    1    2    0    0 -0.11613617490E+04 -0.65811311735E+03 -0.11544678117E+04  0.19792164059E+04  0.89589489663E+03 0.  0.
        -24    2    4    4    0    0 -0.63068072479E+02 -0.47497594679E+03 -0.28014342538E+03  0.56112417511E+03  0.82463745435E+02 0.  0.
         24    2    4    4    0    0 -0.10982936765E+04 -0.18313717057E+03 -0.87432438635E+03  0.14180922308E+04  0.82184057770E+02 0.  0.
         11    1    3    3    0    0  0.53739963705E+02  0.24478927821E+02  0.21331636467E+03  0.22133927135E+03  0.00000000000E+00 0.  1.
        -11    1    3    3    0    0  0.11076217853E+04  0.63363418953E+03  0.32871929837E+04  0.35261815066E+04  0.00000000000E+00 0. -1.
          2    1    6    6  502    0 -0.29908978062E+03 -0.85780829777E+02 -0.23097205249E+03  0.38750630532E+03  0.00000000000E+00 0. -1.
          1    1    5    5  503    0 -0.17083236255E+02 -0.38968080570E+02 -0.51033306623E+02  0.66443559877E+02  0.00000000000E+00 0. -1.
         -4    1    5    5    0  503 -0.45984836225E+02 -0.43600786622E+03 -0.22911011876E+03  0.49468061523E+03  0.00000000000E+00 0.  1.
         -1    1    6    6    0  502 -0.79920389592E+03 -0.97356340788E+02 -0.64335233386E+03  0.10305859255E+04  0.00000000000E+00 0.  1.
<mgrwt>
<rscale>  0 0.52241370E+04</rscale>
<asrwt>0</asrwt>
<pdfrwt beam="1">  1        2 0.62098297E+00 0.52241370E+04</pdfrwt>
<pdfrwt beam="2">  1       -2 0.26005351E+00 0.52241370E+04</pdfrwt>
<totfact> 0.12675887E-02</totfact>
</mgrwt>
</event>
<event>
12    1  0.1397649E-007  0.2696040E+04  0.7818608E-02  0.8336291E-01
          1   -1    0    0  501    0  0.00000000000E+00  0.00000000000E+00  0.19097994257E+04  0.19097994257E+04  0.00000000000E+00 0.  1.
         -1   -1    0    0    0  501 -0.00000000000E+00 -0.00000000000E+00 -0.95149178873E+03  0.95149178873E+03  0.00000000000E+00 0. -1.
         23    2    1    2    0    0 -0.33203311974E+03 -0.92765439815E+03 -0.29216654089E+03  0.10318735798E+04  0.92806907642E+02 0.  0.
        254    2    1    2    0    0  0.33203311974E+03  0.92765439815E+03  0.12504741778E+04  0.18294176346E+04  0.90127384148E+03 0.  0.
        -24    2    4    4    0    0 -0.17283267163E+03  0.77878287422E+03  0.72294913136E+03  0.10796355142E+04  0.81138766245E+02 0.  0.
         24    2    4    4    0    0  0.50486579137E+03  0.14887152393E+03  0.52752504647E+03  0.74978212041E+03  0.82694349920E+02 0.  0.
         13    1    3    3    0    0 -0.26554650172E+03 -0.74819132325E+03 -0.27295188565E+03  0.83952839895E+03  0.00000000000E+00 0. -1.
        -13    1    3    3    0    0 -0.66486618020E+02 -0.17946307490E+03 -0.19214655235E+02  0.19234518087E+03  0.00000000000E+00 0.  1.
          2    1    6    6  502    0  0.18080524747E+03  0.92214877718E+02  0.18062353762E+03  0.27169649156E+03  0.00000000000E+00 0. -1.
          3    1    5    5  503    0 -0.17790821816E+03  0.68468066828E+03  0.63025633511E+03  0.94745026231E+03  0.00000000000E+00 0. -1.
         -4    1    5    5    0  503  0.50755465371E+01  0.94102205939E+02  0.92692796254E+02  0.13218525187E+03  0.00000000000E+00 0.  1.
         -1    1    6    6    0  502  0.32406054389E+03  0.56656646212E+02  0.34690150885E+03  0.47808562885E+03  0.00000000000E+00 0.  1.
<mgrwt>
<rscale>  0 0.26960404E+04</rscale>
<asrwt>0</asrwt>
<pdfrwt beam="1">  1        1 0.29381530E+00 0.26960404E+04</pdfrwt>
<pdfrwt beam="2">  1       -1 0.14638335E+00 0.26960404E+04</pdfrwt>
<totfact> 0.11163669E+00</totfact>
</mgrwt>
</event>
<event>
12    1  0.1397649E-007  0.1908832E+04  0.7818608E-02  0.8650472E-01
          2   -1    0    0  501    0  0.00000000000E+00  0.00000000000E+00  0.61920209265E+03  0.61920209265E+03  0.00000000000E+00 0. -1.
         -2   -1    0    0    0  501 -0.00000000000E+00 -0.00000000000E+00 -0.14711034323E+04  0.14711034323E+04  0.00000000000E+00 0.  1.
         23    2    1    2    0    0 -0.13201170775E+03 -0.42980001027E+03 -0.96346139338E+03  0.10672170925E+04  0.92408474337E+02 0.  0.
        254    2    1    2    0    0  0.13201170775E+03  0.42980001027E+03  0.11156005371E+03  0.10230884325E+04  0.91220017284E+03 0.  0.
        -24    2    4    4    0    0  0.29822733238E+03  0.57544167737E+03 -0.15069336492E+03  0.67125590270E+03  0.88336463830E+02 0.  0.
         24    2    4    4    0    0 -0.16621562463E+03 -0.14564166710E+03  0.26225341863E+03  0.35183252980E+03  0.78550266585E+02 0.  0.
         13    1    3    3    0    0  0.25580572486E+01 -0.10041917952E+03 -0.16685221831E+03  0.19475681767E+03  0.00000000000E+00 0. -1.
        -13    1    3    3    0    0 -0.13456976499E+03 -0.32938083075E+03 -0.79660917507E+03  0.87246027481E+03  0.00000000000E+00 0.  1.
          4    1    6    6  502    0 -0.15077621632E+02 -0.57152653576E+02  0.74009929702E+02  0.94716578166E+02  0.00000000000E+00 0. -1.
          3    1    5    5  503    0  0.32578231875E+02  0.13458713952E+03 -0.46804711427E+02  0.14617017592E+03  0.00000000000E+00 0. -1.
         -4    1    5    5    0  503  0.26564910050E+03  0.44085453785E+03 -0.10388865349E+03  0.52508572678E+03  0.00000000000E+00 0.  1.
         -3    1    6    6    0  502 -0.15113800300E+03 -0.88489013522E+02  0.18824348892E+03  0.25711595164E+03  0.00000000000E+00 0.  1.
<mgrwt>
<rscale>  0 0.19088324E+04</rscale>
<asrwt>0</asrwt>
<pdfrwt beam="1">  1        2 0.95261862E-01 0.19088324E+04</pdfrwt>
<pdfrwt beam="2">  1       -2 0.22632360E+00 0.19088324E+04</pdfrwt>
<totfact> 0.40253217E+00</totfact>
</mgrwt>
</event>
<event>
12    1  0.1397649E-007  0.1178118E+04  0.7818608E-02  0.9132228E-01
         -1   -1    0    0    0  501 -0.00000000000E+00  0.00000000000E+00  0.64905753595E+03  0.64905753595E+03  0.00000000000E+00 0.  1.
          1   -1    0    0  501    0  0.00000000000E+00 -0.00000000000E+00 -0.53460691850E+03  0.53460691850E+03  0.00000000000E+00 0. -1.
         23    2    1    2    0    0 -0.21583775963E+03  0.50559491120E+02 -0.65744553112E+02  0.24853839302E+03  0.91141570721E+02 0.  0.
        254    2    1    2    0    0  0.21583775963E+03 -0.50559491120E+02  0.18019517057E+03  0.93512606144E+03  0.89042026631E+03 0.  0.
        -24    2    4    4    0    0 -0.29733711628E+02 -0.28900637826E+03  0.41338538918E+03  0.51161811643E+03  0.80354444735E+02 0.  0.
         24    2    4    4    0    0  0.24557147126E+03  0.23844688714E+03 -0.23319021861E+03  0.42350794501E+03  0.88425312790E+02 0.  0.
         11    1    3    3    0    0 -0.89296292644E+02  0.99789824225E+01 -0.72534656348E+02  0.11547590373E+03  0.00000000000E+00 0. -1.
        -11    1    3    3    0    0 -0.12654146699E+03  0.40580508697E+02  0.67901032358E+01  0.13306248929E+03  0.00000000000E+00 0.  1.
          4    1    6    6  502    0  0.15928399369E+03  0.11540902776E+03 -0.17183772026E+03  0.26118735888E+03  0.00000000000E+00 0. -1.
          3    1    5    5  503    0 -0.24254282662E+02 -0.28357370523E+02  0.81042710227E+02  0.89220690265E+02  0.00000000000E+00 0. -1.
         -4    1    5    5    0  503 -0.54794289660E+01 -0.26064900774E+03  0.33234267895E+03  0.42239742617E+03  0.00000000000E+00 0.  1.
         -3    1    6    6    0  502  0.86287477573E+02  0.12303785938E+03 -0.61352498357E+02  0.16232058613E+03  0.00000000000E+00 0.  1.
<mgrwt>
<rscale>  0 0.11781182E+04</rscale>
<asrwt>0</asrwt>
<pdfrwt beam="1">  1        1 0.82247218E-01 0.11781182E+04</pdfrwt>
<pdfrwt beam="2">  1       -1 0.99855005E-01 0.11781182E+04</pdfrwt>
<totfact> 0.38293866E+01</totfact>
</mgrwt>
</event>
<event>
12    1  0.1397649E-007  0.1465051E+04  0.7818608E-02  0.8908032E-01
          2   -1    0    0  501    0  0.00000000000E+00  0.00000000000E+00  0.12866302248E+04  0.12866302248E+04  0.00000000000E+00 0. -1.
         -2   -1    0    0    0  501 -0.00000000000E+00 -0.00000000000E+00 -0.41705346361E+03  0.41705346361E+03  0.00000000000E+00 0.  1.
         23    2    1    2    0    0 -0.20627085292E+03 -0.11842405349E+03 -0.17050558577E+03  0.30730058237E+03  0.93752716960E+02 0.  0.
        254    2    1    2    0    0  0.20627085292E+03  0.11842405349E+03  0.10400823469E+04  0.13963831060E+04  0.90085657525E+03 0.  0.
        -24    2    4    4    0    0  0.39279614474E+03 -0.27643939526E+03  0.50671537956E+03  0.70252467850E+03  0.77928797246E+02 0.  0.
         24    2    4    4    0    0 -0.18652529182E+03  0.39486344875E+03  0.53336696739E+03  0.69385842753E+03  0.79059268307E+02 0.  0.
         13    1    3    3    0    0 -0.21101970474E+03 -0.10327902160E+03 -0.17227185618E+03  0.29133050737E+03  0.00000000000E+00 0.  1.
        -13    1    3    3    0    0  0.47488518187E+01 -0.15145031885E+02  0.17662704117E+01  0.15970075002E+02  0.00000000000E+00 0. -1.
          4    1    6    6  502    0 -0.40883861099E+02  0.35119104551E+02  0.46147380636E+02  0.70953663347E+02  0.00000000000E+00 0. -1.
          3    1    5    5  503    0  0.18183298382E+03 -0.12855678357E+03  0.29150282216E+03  0.36682962794E+03  0.00000000000E+00 0. -1.
         -2    1    5    5    0  503  0.21096316092E+03 -0.14788261169E+03  0.21521255739E+03  0.33569505055E+03  0.00000000000E+00 0.  1.
         -3    1    6    6    0  502 -0.14564143072E+03  0.35974434420E+03  0.48721958676E+03  0.62290476419E+03  0.00000000000E+00 0.  1.
<mgrwt>
<rscale>  0 0.14650510E+04</rscale>
<asrwt>0</asrwt>
<pdfrwt beam="1">  1        2 0.19794311E+00 0.14650510E+04</pdfrwt>
<pdfrwt beam="2">  1       -2 0.64162072E-01 0.14650510E+04</pdfrwt>
<totfact> 0.36602432E+01</totfact>
</mgrwt>
</event>
<event>
12    1  0.1397649E-007  0.1731868E+04  0.7818608E-02  0.8743395E-01
         -1   -1    0    0    0  501 -0.00000000000E+00  0.00000000000E+00  0.63134794792E+03  0.63134794792E+03  0.00000000000E+00 0.  1.
          1   -1    0    0  501    0  0.00000000000E+00 -0.00000000000E+00 -0.11876833607E+04  0.11876833607E+04  0.00000000000E+00 0. -1.
         23    2    1    2    0    0 -0.58240253504E+03 -0.20267930360E+03 -0.33030449666E+03  0.70539418485E+03  0.90599572656E+02 0.  0.
        254    2    1    2    0    0  0.58240253504E+03  0.20267930360E+03 -0.22603091608E+03  0.11136371237E+04  0.89934757209E+03 0.  0.
        -24    2    4    4    0    0  0.40175998503E+03 -0.23221983306E+03 -0.38681500812E+03  0.60955509938E+03  0.81206109622E+02 0.  0.
         24    2    4    4    0    0  0.18064255001E+03  0.43489913666E+03  0.16078409204E+03  0.50408202436E+03  0.80487098926E+02 0.  0.
         11    1    3    3    0    0 -0.48154514150E+02 -0.45776118878E+02 -0.33111907176E+02  0.74234147732E+02  0.00000000000E+00 0.  1.
        -11    1    3    3    0    0 -0.53424802089E+03 -0.15690318472E+03 -0.29719258949E+03  0.63116003711E+03  0.00000000000E+00 0. -1.
          2    1    6    6  502    0  0.11566761201E+03  0.19393946233E+03  0.10147326466E+03  0.24756480961E+03  0.00000000000E+00 0. -1.
          3    1    5    5  503    0  0.27000350324E+03 -0.15136806821E+03 -0.30541430017E+03  0.43484718992E+03  0.00000000000E+00 0. -1.
         -4    1    5    5    0  503  0.13175648179E+03 -0.80851764847E+02 -0.81400707946E+02  0.17470790946E+03  0.00000000000E+00 0.  1.
         -1    1    6    6    0  502  0.64974938003E+02  0.24095967432E+03  0.59310827374E+02  0.25651721475E+03  0.00000000000E+00 0.  1.
<mgrwt>
<rscale>  0 0.17318677E+04</rscale>
<asrwt>0</asrwt>
<pdfrwt beam="1">  1        1 0.18272052E+00 0.17318677E+04</pdfrwt>
<pdfrwt beam="2">  1       -1 0.97130455E-01 0.17318677E+04</pdfrwt>
<totfact> 0.10547051E+01</totfact>
</mgrwt>
</event>
<event>
12    1  0.1397649E-007  0.1520938E+04  0.7818608E-02  0.8870647E-01
          1   -1    0    0  501    0  0.00000000000E+00  0.00000000000E+00  0.26520542948E+04  0.26520542948E+04  0.00000000000E+00 0. -1.
         -1   -1    0    0    0  501 -0.00000000000E+00 -0.00000000000E+00 -0.21806235256E+03  0.21806235256E+03  0.00000000000E+00 0.  1.
         23    2    1    2    0    0  0.14024377914E+03  0.40895224622E+03  0.36743122559E+03  0.57464688171E+03  0.91121215128E+02 0.  0.
        254    2    1    2    0    0 -0.14024377914E+03 -0.40895224622E+03  0.20665607166E+04  0.22954697657E+04  0.90088733600E+03 0.  0.
        -24    2    4    4    0    0  0.11969182897E+03 -0.34085443286E+03  0.22547025699E+03  0.43314240481E+03  0.79168350573E+02 0.  0.
         24    2    4    4    0    0 -0.25993560811E+03 -0.68097813354E+02  0.18410904597E+04  0.18623273608E+04  0.80282537123E+02 0.  0.
         11    1    3    3    0    0  0.10465859983E+03  0.35959234022E+03  0.27773567466E+03  0.46625870355E+03  0.00000000000E+00 0.  1.
        -11    1    3    3    0    0  0.35585179307E+02  0.49359905998E+02  0.89695550935E+02  0.10838817816E+03  0.00000000000E+00 0. -1.
          2    1    6    6  502    0  0.53968441018E+01 -0.57286271352E+01  0.54322145849E+02  0.54889330700E+02  0.00000000000E+00 0. -1.
          1    1    5    5  503    0 -0.11194920358E+01 -0.40435886312E+02  0.51751450018E+02  0.65685057229E+02  0.00000000000E+00 0. -1.
         -2    1    5    5    0  503  0.12081132101E+03 -0.30041854655E+03  0.17371880698E+03  0.36745734758E+03  0.00000000000E+00 0.  1.
         -1    1    6    6    0  502 -0.26533245221E+03 -0.62369186219E+02  0.17867683138E+04  0.18074380301E+04  0.00000000000E+00 0.  1.
<mgrwt>
<rscale>  0 0.15209381E+04</rscale>
<asrwt>0</asrwt>
<pdfrwt beam="1">  1        1 0.40800833E+00 0.15209381E+04</pdfrwt>
<pdfrwt beam="2">  1       -1 0.33548056E-01 0.15209381E+04</pdfrwt>
<totfact> 0.86043868E+00</totfact>
</mgrwt>
</event>
<event>
12    1  0.1397649E-007  0.1625495E+04  0.7818608E-02  0.8805037E-01
          2   -1    0    0  501    0  0.00000000000E+00  0.00000000000E+00  0.70510367123E+03  0.70510367123E+03  0.00000000000E+00 0. -1.
         -2   -1    0    0    0  501 -0.00000000000E+00 -0.00000000000E+00 -0.93682505270E+03  0.93682505270E+03  0.00000000000E+00 0.  1.
         23    2    1    2    0    0 -0.55349279963E+03  0.66271180722E+02 -0.79755804976E+02  0.57051763021E+03  0.91559976595E+02 0.  0.
        254    2    1    2    0    0  0.55349279963E+03 -0.66271180722E+02 -0.15196557649E+03  0.10714110937E+04  0.90226495369E+03 0.  0.
        -24    2    4    4    0    0 -0.12144631427E+03 -0.92368514576E+02 -0.32531780303E+03  0.36861806682E+03  0.82258473635E+02 0.  0.
         24    2    4    4    0    0  0.67493911391E+03  0.26097333854E+02  0.17335222653E+03  0.70279302690E+03  0.87425201737E+02 0.  0.
         11    1    3    3    0    0 -0.55428318214E+03  0.72171764069E+02 -0.78906690233E+02  0.56450409679E+03  0.00000000000E+00 0.  1.
        -11    1    3    3    0    0  0.79038250526E+00 -0.59005833475E+01 -0.84911474306E+00  0.60135334199E+01  0.00000000000E+00 0. -1.
          2    1    6    6  502    0  0.28449809224E+03 -0.29159192668E+02  0.89262784239E+02  0.29959517295E+03  0.00000000000E+00 0. -1.
          1    1    5    5  503    0 -0.90673630642E+02 -0.27827375845E+02 -0.23503200993E+03  0.25344844808E+03  0.00000000000E+00 0. -1.
         -2    1    5    5    0  503 -0.30772683629E+02 -0.64541138731E+02 -0.90285793092E+02  0.11516961874E+03  0.00000000000E+00 0.  1.
         -1    1    6    6    0  502  0.39044102166E+03  0.55256526522E+02  0.84089442295E+02  0.40319785394E+03  0.00000000000E+00 0.  1.
<mgrwt>
<rscale>  0 0.16254954E+04</rscale>
<asrwt>0</asrwt>
<pdfrwt beam="1">  1        2 0.10847749E+00 0.16254954E+04</pdfrwt>
<pdfrwt beam="2">  1       -2 0.14412693E+00 0.16254954E+04</pdfrwt>
<totfact> 0.12928600E+01</totfact>
</mgrwt>
</event>
<event>
12    1  0.1397649E-007  0.2479469E+04  0.7818608E-02  0.8410337E-01
         -2   -1    0    0    0  501 -0.00000000000E+00  0.00000000000E+00  0.11943190178E+04  0.11943190178E+04  0.00000000000E+00 0.  1.
          2   -1    0    0  501    0  0.00000000000E+00 -0.00000000000E+00 -0.12868766285E+04  0.12868766285E+04  0.00000000000E+00 0. -1.
         23    2    1    2    0    0  0.10470076810E+03  0.99179312425E+03  0.36319625961E+03  0.10652398309E+04  0.90600895152E+02 0.  0.
        254    2    1    2    0    0 -0.10470076810E+03 -0.99179312425E+03 -0.45575387032E+03  0.14159558155E+04  0.89588136989E+03 0.  0.
        -24    2    4    4    0    0 -0.21948935235E+03  0.39988993592E+02  0.73756799455E+02  0.24788013491E+03  0.78929084733E+02 0.  0.
         24    2    4    4    0    0  0.11478858425E+03 -0.10317821178E+04 -0.52951066977E+03  0.11680756806E+04  0.79173785724E+02 0.  0.
         13    1    3    3    0    0 -0.10523660798E+02  0.28595793461E+03  0.97667970602E+02  0.30236024918E+03  0.00000000000E+00 0. -1.
        -13    1    3    3    0    0  0.11522442890E+03  0.70583518964E+03  0.26552828901E+03  0.76287958173E+03  0.00000000000E+00 0.  1.
          2    1    6    6  502    0  0.38338338912E+02 -0.56179840989E+03 -0.32193484504E+03  0.64863651303E+03  0.00000000000E+00 0. -1.
          1    1    5    5  503    0 -0.15179868054E+02  0.77527311319E+01  0.32890282120E+02  0.37044620285E+02  0.00000000000E+00 0. -1.
         -2    1    5    5    0  503 -0.20430948429E+03  0.32236262460E+02  0.40866517335E+02  0.21083551463E+03  0.00000000000E+00 0.  1.
         -1    1    6    6    0  502  0.76450245334E+02 -0.46998370795E+03 -0.20757582473E+03  0.51943916753E+03  0.00000000000E+00 0.  1.
<mgrwt>
<rscale>  0 0.24794687E+04</rscale>
<asrwt>0</asrwt>
<pdfrwt beam="1">  1        2 0.19798102E+00 0.24794687E+04</pdfrwt>
<pdfrwt beam="2">  1       -2 0.18374139E+00 0.24794687E+04</pdfrwt>
<totfact> 0.25691212E+00</totfact>
</mgrwt>
</event>
<event>
12    1  0.1397649E-007  0.2746181E+04  0.7818608E-02  0.8320175E-01
         -2   -1    0    0    0  501 -0.00000000000E+00  0.00000000000E+00  0.14919085648E+04  0.14919085648E+04  0.00000000000E+00 0.  1.
          2   -1    0    0  501    0  0.00000000000E+00 -0.00000000000E+00 -0.12637349765E+04  0.12637349765E+04  0.00000000000E+00 0. -1.
         23    2    1    2    0    0  0.69494962041E+03 -0.23387463759E+03 -0.88899763873E+03  0.11560293372E+04  0.91840653753E+02 0.  0.
        254    2    1    2    0    0 -0.69494962041E+03  0.23387463759E+03  0.11171712271E+04  0.15996142041E+04  0.87922791727E+03 0.  0.
        -24    2    4    4    0    0  0.20282671026E+03  0.67284579557E+02  0.22082772180E+03  0.31759732121E+03  0.80232703349E+02 0.  0.
         24    2    4    4    0    0 -0.89777633067E+03  0.16659005804E+03  0.89634350525E+03  0.12820168829E+04  0.79881295453E+02 0.  0.
         13    1    3    3    0    0  0.51723817498E+03 -0.16667450958E+03 -0.59337235983E+03  0.80461573388E+03  0.00000000000E+00 0. -1.
        -13    1    3    3    0    0  0.17771144543E+03 -0.67200128012E+02 -0.29562527890E+03  0.35141360327E+03  0.00000000000E+00 0.  1.
          4    1    6    6  502    0 -0.54522052908E+03  0.62441979027E+02  0.54944238118E+03  0.77656381342E+03  0.00000000000E+00 0. -1.
          1    1    5    5  503    0  0.11023954693E+03  0.75397966883E+02  0.14928569973E+03  0.20030933893E+03  0.00000000000E+00 0. -1.
         -2    1    5    5    0  503  0.92587163327E+02 -0.81133873265E+01  0.71542022068E+02  0.11728798228E+03  0.00000000000E+00 0.  1.
         -3    1    6    6    0  502 -0.35255580158E+03  0.10414807901E+03  0.34690112407E+03  0.50545306951E+03  0.00000000000E+00 0.  1.
<mgrwt>
<rscale>  0 0.27461806E+04</rscale>
<asrwt>0</asrwt>
<pdfrwt beam="1">  1        2 0.19442077E+00 0.27461806E+04</pdfrwt>
<pdfrwt beam="2">  1       -2 0.22952439E+00 0.27461806E+04</pdfrwt>
<totfact> 0.13062351E+00</totfact>
</mgrwt>
</event>
<event>
12    1  0.1590137E-007  0.1213512E+04  0.7818608E-02  0.9101111E-01
         -2   -1    0    0    0  501 -0.00000000000E+00  0.00000000000E+00  0.19121491126E+03  0.19121491126E+03  0.00000000000E+00 0.  1.
          2   -1    0    0  501    0  0.00000000000E+00 -0.00000000000E+00 -0.19253362454E+04  0.19253362454E+04  0.00000000000E+00 0. -1.
         23    2    1    2    0    0  0.41036084525E+02  0.13900398992E+03 -0.68080051554E+03  0.70674743210E+03  0.12246028489E+03 0.  0.
        254    2    1    2    0    0 -0.41036084525E+02 -0.13900398992E+03 -0.10533208186E+04  0.14098037246E+04  0.92577304209E+03 0.  0.
        -24    2    4    4    0    0  0.24054854122E+03  0.16353939176E+03 -0.91956274905E+03  0.96812703890E+03  0.84057008474E+02 0.  0.
         24    2    4    4    0    0 -0.28158462575E+03 -0.30254338169E+03 -0.13375806960E+03  0.44167668570E+03  0.79778908568E+02 0.  0.
         13    1    3    3    0    0  0.12154497944E+02 -0.20249701267E+02 -0.46902804311E+02  0.52513381856E+02  0.00000000000E+00 0.  1.
        -13    1    3    3    0    0  0.28881586581E+02  0.15925369119E+03 -0.63389771123E+03  0.65423405024E+03  0.00000000000E+00 0. -1.
          2    1    6    6  502    0 -0.26696171395E+03 -0.30233191118E+03 -0.13827263893E+03  0.42637127472E+03  0.00000000000E+00 0. -1.
          3    1    5    5  503    0  0.22106399855E+03  0.15704092791E+03 -0.89922754552E+03  0.93922378756E+03  0.00000000000E+00 0. -1.
         -4    1    5    5    0  503  0.19484542674E+02  0.64984638572E+01 -0.20335203526E+02  0.28903251342E+02  0.00000000000E+00 0.  1.
         -1    1    6    6    0  502 -0.14622911794E+02 -0.21147050629E+00  0.45145693234E+01  0.15305410981E+02  0.00000000000E+00 0.  1.
<mgrwt>
<rscale>  0 0.12135123E+04</rscale>
<asrwt>0</asrwt>
<pdfrwt beam="1">  1        2 0.29620557E+00 0.12135123E+04</pdfrwt>
<pdfrwt beam="2">  1       -2 0.29417680E-01 0.12135123E+04</pdfrwt>
<totfact> 0.77150930E+01</totfact>
</mgrwt>
</event>
<event>
12    1  0.1397649E-007  0.1259670E+04  0.7818608E-02  0.9062174E-01
         -1   -1    0    0    0  501 -0.00000000000E+00  0.00000000000E+00  0.24111223064E+03  0.24111223064E+03  0.00000000000E+00 0.  1.
          1   -1    0    0  501    0  0.00000000000E+00 -0.00000000000E+00 -0.16452580268E+04  0.16452580268E+04  0.00000000000E+00 0. -1.
         23    2    1    2    0    0  0.29428170432E+03  0.63189932973E+02 -0.31687172619E+03  0.44551722950E+03  0.86505617110E+02 0.  0.
        254    2    1    2    0    0 -0.29428170432E+03 -0.63189932973E+02 -0.10872740699E+04  0.14408530279E+04  0.89626885237E+03 0.  0.
        -24    2    4    4    0    0  0.20614862898E+03  0.20994011251E+03 -0.64682726948E+03  0.71522137741E+03  0.81141814676E+02 0.  0.
         24    2    4    4    0    0 -0.50043033330E+03 -0.27313004548E+03 -0.44044680045E+03  0.72563165048E+03  0.86702756174E+02 0.  0.
         11    1    3    3    0    0  0.18181143566E+03  0.62212041065E+02 -0.24761198905E+03  0.31342851388E+03  0.00000000000E+00 0. -1.
        -11    1    3    3    0    0  0.11247026866E+03  0.97789190780E+00 -0.69259737146E+02  0.13208871562E+03  0.00000000000E+00 0.  1.
          4    1    6    6  502    0 -0.16642109423E+03 -0.13302984823E+03 -0.13889862574E+03  0.25433393277E+03  0.00000000000E+00 0. -1.
          1    1    5    5  503    0  0.14357024698E+01 -0.68510027721E+01 -0.13098853952E+02  0.14851850236E+02  0.00000000000E+00 0. -1.
         -2    1    5    5    0  503  0.20471292651E+03  0.21679111528E+03 -0.63372841553E+03  0.70036952717E+03  0.00000000000E+00 0.  1.
         -3    1    6    6    0  502 -0.33400923907E+03 -0.14010019725E+03 -0.30154817471E+03  0.47129771772E+03  0.00000000000E+00 0.  1.
<mgrwt>
<rscale>  0 0.12596695E+04</rscale>
<asrwt>0</asrwt>
<pdfrwt beam="1">  1        1 0.25311661E+00 0.12596695E+04</pdfrwt>
<pdfrwt beam="2">  1       -1 0.37094190E-01 0.12596695E+04</pdfrwt>
<totfact> 0.35777617E+01</totfact>
</mgrwt>
</event>
<event>
12    1  0.1397649E-007  0.1751862E+04  0.7818608E-02  0.8732326E-01
         -2   -1    0    0    0  501 -0.00000000000E+00  0.00000000000E+00  0.47996716592E+03  0.47996716592E+03  0.00000000000E+00 0.  1.
          2   -1    0    0  501    0  0.00000000000E+00 -0.00000000000E+00 -0.15985570351E+04  0.15985570351E+04  0.00000000000E+00 0. -1.
         23    2    1    2    0    0 -0.14478876864E+03 -0.32776928184E+03 -0.10362338593E+04  0.11003096834E+04  0.92218753842E+02 0.  0.
        254    2    1    2    0    0  0.14478876864E+03  0.32776928184E+03 -0.82356009813E+02  0.97821451756E+03  0.90649028697E+03 0.  0.
        -24    2    4    4    0    0 -0.32026841434E+03  0.35894987794E+03 -0.12421923634E+03  0.50321901385E+03  0.79887953597E+02 0.  0.
         24    2    4    4    0    0  0.46505718297E+03 -0.31180596100E+02  0.41863226528E+02  0.47499550371E+03  0.81349774420E+02 0.  0.
         13    1    3    3    0    0 -0.24544062620E+02 -0.16576878733E+03 -0.43726650209E+03  0.46827737049E+03  0.00000000000E+00 0.  1.
        -13    1    3    3    0    0 -0.12024470602E+03 -0.16200049451E+03 -0.59896735726E+03  0.63203231294E+03  0.00000000000E+00 0. -1.
          2    1    6    6  502    0  0.34830441224E+03 -0.48431992573E+02  0.56162009513E+02  0.35611205091E+03  0.00000000000E+00 0. -1.
          3    1    5    5  503    0 -0.19097035084E+03  0.20159387756E+03 -0.11125046488E+03  0.29914282928E+03  0.00000000000E+00 0. -1.
         -4    1    5    5    0  503 -0.12929806349E+03  0.15735600038E+03 -0.12968771466E+02  0.20407618457E+03  0.00000000000E+00 0.  1.
         -1    1    6    6    0  502  0.11675277074E+03  0.17251396473E+02 -0.14298782985E+02  0.11888345280E+03  0.00000000000E+00 0.  1.
<mgrwt>
<rscale>  0 0.17518617E+04</rscale>
<asrwt>0</asrwt>
<pdfrwt beam="1">  1        2 0.24593185E+00 0.17518617E+04</pdfrwt>
<pdfrwt beam="2">  1       -2 0.73841103E-01 0.17518617E+04</pdfrwt>
<totfact> 0.17499466E+01</totfact>
</mgrwt>
</event>
<event>
12    1  0.1397649E-007  0.1649860E+04  0.7818608E-02  0.8790489E-01
          3   -1    0    0  501    0  0.00000000000E+00  0.00000000000E+00  0.85464405959E+03  0.85464405959E+03  0.00000000000E+00 0. -1.
         -3   -1    0    0    0  501 -0.00000000000E+00 -0.00000000000E+00 -0.79624949764E+03  0.79624949764E+03  0.00000000000E+00 0.  1.
         23    2    1    2    0    0  0.47684989641E+03 -0.30692870396E+03 -0.90610861632E+02  0.58154504701E+03  0.91614739169E+02 0.  0.
        254    2    1    2    0    0 -0.47684989641E+03  0.30692870396E+03  0.14900542358E+03  0.10693485102E+04  0.89426649666E+03 0.  0.
        -24    2    4    4    0    0 -0.63177438319E+03  0.12361568946E+03 -0.16187443294E+03  0.66865847038E+03  0.80505329247E+02 0.  0.
         24    2    4    4    0    0  0.15492448679E+03  0.18331301451E+03  0.31087985652E+03  0.40069003985E+03  0.79378617727E+02 0.  0.
         13    1    3    3    0    0  0.92833424326E+02 -0.37605350076E+02  0.13549722456E+02  0.10107325069E+03  0.00000000000E+00 0.  1.
        -13    1    3    3    0    0  0.38401647208E+03 -0.26932335389E+03 -0.10416058409E+03  0.48047179632E+03  0.00000000000E+00 0. -1.
          2    1    6    6  502    0  0.32570216285E+02  0.47472977640E+01  0.21524447100E+02  0.39327568548E+02  0.00000000000E+00 0. -1.
          3    1    5    5  503    0 -0.33537792111E+03  0.28228806832E+02 -0.10104787456E+03  0.35140558967E+03  0.00000000000E+00 0. -1.
         -4    1    5    5    0  503 -0.29639646208E+03  0.95386882627E+02 -0.60826558380E+02  0.31725288071E+03  0.00000000000E+00 0.  1.
         -1    1    6    6    0  502  0.12235427050E+03  0.17856571674E+03  0.28935540942E+03  0.36136247130E+03  0.00000000000E+00 0.  1.
<mgrwt>
<rscale>  0 0.16498605E+04</rscale>
<asrwt>0</asrwt>
<pdfrwt beam="1">  1        3 0.13148370E+00 0.16498605E+04</pdfrwt>
<pdfrwt beam="2">  1       -3 0.12249992E+00 0.16498605E+04</pdfrwt>
<totfact> 0.60780732E-01</totfact>
</mgrwt>
</event>
<event>
12    1  0.1397649E-007  0.2138262E+04  0.7818608E-02  0.8544574E-01
          2   -1    0    0  501    0  0.00000000000E+00  0.00000000000E+00  0.12126820518E+04  0.12126820518E+04  0.00000000000E+00 0. -1.
         -2   -1    0    0    0  501 -0.00000000000E+00 -0.00000000000E+00 -0.94257246767E+03  0.94257246767E+03  0.00000000000E+00 0.  1.
         23    2    1    2    0    0  0.61438298416E+03 -0.60870077126E+03 -0.35914462239E+02  0.87045151778E+03  0.91721949669E+02 0.  0.
        254    2    1    2    0    0 -0.61438298416E+03  0.60870077126E+03  0.30602404635E+03  0.12848030017E+04  0.89949149857E+03 0.  0.
        -24    2    4    4    0    0 -0.17330323103E+03  0.35147122624E+03 -0.29143040536E+03  0.49483122113E+03  0.79751009247E+02 0.  0.
         24    2    4    4    0    0 -0.44107975313E+03  0.25722954502E+03  0.59745445171E+03  0.78997178054E+03  0.79907476044E+02 0.  0.
         13    1    3    3    0    0  0.20019895471E+03 -0.18228388945E+03 -0.52348137569E+02  0.27576686771E+03  0.00000000000E+00 0.  1.
        -13    1    3    3    0    0  0.41418402945E+03 -0.42641688181E+03  0.16433675329E+02  0.59468465007E+03  0.00000000000E+00 0. -1.
          2    1    6    6  502    0 -0.32088749131E+03  0.21379150161E+03  0.48614384102E+03  0.62049288666E+03  0.00000000000E+00 0. -1.
          3    1    5    5  503    0 -0.18086556629E+03  0.33049085095E+03 -0.28210243860E+03  0.47065735041E+03  0.00000000000E+00 0. -1.
         -4    1    5    5    0  503  0.75623352540E+01  0.20980375292E+02 -0.93279667639E+01  0.24173870725E+02  0.00000000000E+00 0.  1.
         -1    1    6    6    0  502 -0.12019226182E+03  0.43438043408E+02  0.11131061070E+03  0.16947889388E+03  0.00000000000E+00 0.  1.
<mgrwt>
<rscale>  0 0.21382616E+04</rscale>
<asrwt>0</asrwt>
<pdfrwt beam="1">  1        2 0.18656647E+00 0.21382616E+04</pdfrwt>
<pdfrwt beam="2">  1       -2 0.14501115E+00 0.21382616E+04</pdfrwt>
<totfact> 0.56025702E+00</totfact>
</mgrwt>
</event>
<event>
12    1  0.1397649E-007  0.1371692E+04  0.7818608E-02  0.8974568E-01
          2   -1    0    0  501    0  0.00000000000E+00  0.00000000000E+00  0.46511305802E+03  0.46511305802E+03  0.00000000000E+00 0. -1.
         -2   -1    0    0    0  501 -0.00000000000E+00 -0.00000000000E+00 -0.10113338884E+04  0.10113338884E+04  0.00000000000E+00 0.  1.
         23    2    1    2    0    0 -0.66969266457E+02  0.37344173689E+03 -0.21065755914E+03  0.44297614451E+03  0.88924933965E+02 0.  0.
        254    2    1    2    0    0  0.66969266457E+02 -0.37344173689E+03 -0.33556327128E+03  0.10334708019E+04  0.90084159315E+03 0.  0.
        -24    2    4    4    0    0  0.23764156628E+03  0.23041391063E+03 -0.68081644999E+02  0.34697162642E+03  0.78677283363E+02 0.  0.
         24    2    4    4    0    0 -0.17067229983E+03 -0.60385564753E+03 -0.26748162628E+03  0.68649917552E+03  0.77227071802E+02 0.  0.
         13    1    3    3    0    0 -0.27312868774E+02  0.24505079513E+03 -0.17963736197E+03  0.30506633182E+03  0.00000000000E+00 0. -1.
        -13    1    3    3    0    0 -0.39656397683E+02  0.12839094176E+03 -0.31020197164E+02  0.13790981269E+03  0.00000000000E+00 0.  1.
          4    1    6    6  502    0 -0.16787911933E+03 -0.59669169290E+03 -0.27271442869E+03  0.67719829792E+03  0.00000000000E+00 0. -1.
          3    1    5    5  503    0  0.22410714433E+03  0.17855422419E+03 -0.60236593892E+02  0.29280380865E+03  0.00000000000E+00 0. -1.
         -2    1    5    5    0  503  0.13534421957E+02  0.51859686444E+02 -0.78450511075E+01  0.54167817776E+02  0.00000000000E+00 0.  1.
         -3    1    6    6    0  502 -0.27931804963E+01 -0.71639546276E+01  0.52328024131E+01  0.93008776083E+01  0.00000000000E+00 0.  1.
<mgrwt>
<rscale>  0 0.13716918E+04</rscale>
<asrwt>0</asrwt>
<pdfrwt beam="1">  1        2 0.71555856E-01 0.13716918E+04</pdfrwt>
<pdfrwt beam="2">  1       -2 0.15558983E+00 0.13716918E+04</pdfrwt>
<totfact> 0.17726865E+01</totfact>
</mgrwt>
</event>
<event>
12    1  0.1397649E-007  0.1425553E+04  0.7818608E-02  0.8935527E-01
         -1   -1    0    0    0  501 -0.00000000000E+00  0.00000000000E+00  0.22971188966E+03  0.22971188966E+03  0.00000000000E+00 0.  1.
          1   -1    0    0  501    0  0.00000000000E+00 -0.00000000000E+00 -0.22116854779E+04  0.22116854779E+04  0.00000000000E+00 0. -1.
         23    2    1    2    0    0  0.25256069582E+03  0.37985340817E+02 -0.11995635601E+04  0.12299260004E+04  0.92387448012E+02 0.  0.
        254    2    1    2    0    0 -0.25256069582E+03 -0.37985340817E+02 -0.78241002811E+03  0.12114713671E+04  0.88896998267E+03 0.  0.
        -24    2    4    4    0    0  0.24014802241E+03  0.24412330139E+03 -0.31634246200E+03  0.47263287828E+03  0.77730466477E+02 0.  0.
         24    2    4    4    0    0 -0.49270871823E+03 -0.28210864220E+03 -0.46606756610E+03  0.73883848884E+03  0.79474331655E+02 0.  0.
         11    1    3    3    0    0  0.30557348479E+02  0.29449292048E+02 -0.10915439331E+03  0.11711402105E+03  0.00000000000E+00 0.  1.
        -11    1    3    3    0    0  0.22200334734E+03  0.85360487685E+01 -0.10904091668E+04  0.11128119794E+04  0.00000000000E+00 0. -1.
          2    1    6    6  502    0 -0.33484558754E+03 -0.23028753527E+03 -0.34770243634E+03  0.53483726557E+03  0.00000000000E+00 0. -1.
          3    1    5    5  503    0  0.72426212850E+02  0.11886769234E+03 -0.98536817656E+02  0.17054204474E+03  0.00000000000E+00 0. -1.
         -4    1    5    5    0  503  0.16772180956E+03  0.12525560904E+03 -0.21780564435E+03  0.30209083354E+03  0.00000000000E+00 0.  1.
         -1    1    6    6    0  502 -0.15786313069E+03 -0.51821106927E+02 -0.11836512976E+03  0.20400122328E+03  0.00000000000E+00 0.  1.
<mgrwt>
<rscale>  0 0.14255532E+04</rscale>
<asrwt>0</asrwt>
<pdfrwt beam="1">  1        1 0.34025930E+00 0.14255532E+04</pdfrwt>
<pdfrwt beam="2">  1       -1 0.35340291E-01 0.14255532E+04</pdfrwt>
<totfact> 0.15899430E+01</totfact>
</mgrwt>
</event>
<event>
12    1  0.1397649E-007  0.1573406E+04  0.7818608E-02  0.8837054E-01
          2   -1    0    0  501    0  0.00000000000E+00  0.00000000000E+00  0.43730860109E+03  0.43730860109E+03  0.00000000000E+00 0. -1.
         -2   -1    0    0    0  501 -0.00000000000E+00 -0.00000000000E+00 -0.14152516533E+04  0.14152516533E+04  0.00000000000E+00 0.  1.
         23    2    1    2    0    0 -0.19908944193E+03 -0.25784418650E+03 -0.81466724721E+03  0.88269453655E+03  0.96678285006E+02 0.  0.
        254    2    1    2    0    0  0.19908944193E+03  0.25784418650E+03 -0.16327580497E+03  0.96986571779E+03  0.89881048706E+03 0.  0.
        -24    2    4    4    0    0  0.50917578209E+03  0.34562123432E+03 -0.14383029562E+03  0.63706109696E+03  0.80284946528E+02 0.  0.
         24    2    4    4    0    0 -0.31008634016E+03 -0.87777047819E+02 -0.19445509346E+02  0.33280462083E+03  0.80761620419E+02 0.  0.
         11    1    3    3    0    0 -0.68774316238E+02 -0.30555377666E+02 -0.23026101146E+03  0.24224712811E+03  0.00000000000E+00 0. -1.
        -11    1    3    3    0    0 -0.13031512570E+03 -0.22728880884E+03 -0.58440623575E+03  0.64044740845E+03  0.00000000000E+00 0.  1.
          4    1    6    6  502    0 -0.25320075461E+03 -0.45514029628E+02  0.64901868042E+01  0.25734076932E+03  0.00000000000E+00 0. -1.
          1    1    5    5  503    0  0.29892934453E+03  0.15718298031E+03 -0.65063289994E+02  0.34394545210E+03  0.00000000000E+00 0. -1.
         -2    1    5    5    0  503  0.21024643757E+03  0.18843825401E+03 -0.78767005625E+02  0.29311564486E+03  0.00000000000E+00 0.  1.
         -3    1    6    6    0  502 -0.56885585552E+02 -0.42263018191E+02 -0.25935696150E+02  0.75463851512E+02  0.00000000000E+00 0.  1.
<mgrwt>
<rscale>  0 0.15734061E+04</rscale>
<asrwt>0</asrwt>
<pdfrwt beam="1">  1        2 0.67278247E-01 0.15734061E+04</pdfrwt>
<pdfrwt beam="2">  1       -2 0.21773102E+00 0.15734061E+04</pdfrwt>
<totfact> 0.70497113E+00</totfact>
</mgrwt>
</event>
<event>
12    1  0.1397649E-007  0.1541252E+04  0.7818608E-02  0.8857475E-01
         -1   -1    0    0    0  501 -0.00000000000E+00  0.00000000000E+00  0.93825862876E+03  0.93825862876E+03  0.00000000000E+00 0.  1.
          1   -1    0    0  501    0  0.00000000000E+00 -0.00000000000E+00 -0.63294358398E+03  0.63294358398E+03  0.00000000000E+00 0. -1.
         23    2    1    2    0    0  0.37892011715E+03 -0.24423917359E+03  0.32771464765E+03  0.56508500178E+03  0.93225210376E+02 0.  0.
        254    2    1    2    0    0 -0.37892011715E+03  0.24423917359E+03 -0.22399602870E+02  0.10061172110E+04  0.89918678309E+03 0.  0.
        -24    2    4    4    0    0 -0.34429130955E+03 -0.28940590947E+03 -0.75109511372E+02  0.46275173249E+03  0.78774621284E+02 0.  0.
         24    2    4    4    0    0 -0.34628807605E+02  0.53364508306E+03  0.52709908502E+02  0.54336547847E+03  0.80569719758E+02 0.  0.
         11    1    3    3    0    0  0.80278630677E+02 -0.28859003737E+02  0.10293539047E+03  0.13369067002E+03  0.00000000000E+00 0. -1.
        -11    1    3    3    0    0  0.29864148648E+03 -0.21538016986E+03  0.22477925718E+03  0.43139433176E+03  0.00000000000E+00 0.  1.
          2    1    6    6  502    0 -0.28104335248E+02  0.13947430945E+03  0.44430780033E+02  0.14905378516E+03  0.00000000000E+00 0. -1.
          1    1    5    5  503    0 -0.26190933946E+02 -0.56595978088E+02 -0.76930070413E+01  0.62835118477E+02  0.00000000000E+00 0. -1.
         -2    1    5    5    0  503 -0.31810037560E+03 -0.23280993138E+03 -0.67416504331E+02  0.39991661401E+03  0.00000000000E+00 0.  1.
         -1    1    6    6    0  502 -0.65244723577E+01  0.39417077362E+03  0.82791284694E+01  0.39431169331E+03  0.00000000000E+00 0.  1.
<mgrwt>
<rscale>  0 0.15412525E+04</rscale>
<asrwt>0</asrwt>
<pdfrwt beam="1">  1        1 0.97375936E-01 0.15412525E+04</pdfrwt>
<pdfrwt beam="2">  1       -1 0.14434748E+00 0.15412525E+04</pdfrwt>
<totfact> 0.11811313E+01</totfact>
</mgrwt>
</event>
<event>
12    1  0.1397649E-007  0.1249144E+04  0.7818608E-02  0.9070896E-01
         -1   -1    0    0    0  501 -0.00000000000E+00  0.00000000000E+00  0.89470518788E+03  0.89470518788E+03  0.00000000000E+00 0.  1.
          1   -1    0    0  501    0  0.00000000000E+00 -0.00000000000E+00 -0.43599857833E+03  0.43599857833E+03  0.00000000000E+00 0. -1.
         23    2    1    2    0    0 -0.11276903783E+03 -0.85191687451E+02 -0.16108665532E+03  0.23336607863E+03  0.92392297468E+02 0.  0.
        254    2    1    2    0    0  0.11276903783E+03  0.85191687451E+02  0.61979326488E+03  0.10973376876E+04  0.89444498426E+03 0.  0.
        -24    2    4    4    0    0  0.47711045638E+03 -0.83205987118E+02  0.27923830183E+03  0.56469128213E+03  0.79652941084E+02 0.  0.
         24    2    4    4    0    0 -0.36434141855E+03  0.16839767457E+03  0.34055496304E+03  0.53264640545E+03  0.81437487127E+02 0.  0.
         13    1    3    3    0    0 -0.10505315936E+03 -0.29662901042E+02 -0.82488389239E+02  0.13682247019E+03  0.00000000000E+00 0. -1.
        -13    1    3    3    0    0 -0.77158784691E+01 -0.55528786408E+02 -0.78598266083E+02  0.96543608446E+02  0.00000000000E+00 0.  1.
          4    1    6    6  502    0 -0.31448869049E+03  0.11244278635E+03  0.28922048539E+03  0.44180878875E+03  0.00000000000E+00 0. -1.
          1    1    5    5  503    0  0.27978581572E+03 -0.53900355597E+02  0.11885912641E+03  0.30872778129E+03  0.00000000000E+00 0. -1.
         -2    1    5    5    0  503  0.19732464065E+03 -0.29305631521E+02  0.16037917542E+03  0.25596350083E+03  0.00000000000E+00 0.  1.
         -3    1    6    6    0  502 -0.49852728058E+02  0.55954888223E+02  0.51334477657E+02  0.90837616696E+02  0.00000000000E+00 0.  1.
<mgrwt>
<rscale>  0 0.12491440E+04</rscale>
<asrwt>0</asrwt>
<pdfrwt beam="1">  1        1 0.67076705E-01 0.12491440E+04</pdfrwt>
<pdfrwt beam="2">  1       -1 0.13764695E+00 0.12491440E+04</pdfrwt>
<totfact> 0.23095868E+01</totfact>
</mgrwt>
</event>
<event>
12    1  0.1397649E-007  0.1314981E+04  0.7818608E-02  0.9017769E-01
         -1   -1    0    0    0  501 -0.00000000000E+00  0.00000000000E+00  0.40080411676E+03  0.40080411676E+03  0.00000000000E+00 0.  1.
          1   -1    0    0  501    0  0.00000000000E+00 -0.00000000000E+00 -0.10785654385E+04  0.10785654385E+04  0.00000000000E+00 0. -1.
         23    2    1    2    0    0 -0.15298983097E+03 -0.23508518106E+03 -0.45106481938E+03  0.53909768622E+03  0.92173278532E+02 0.  0.
        254    2    1    2    0    0  0.15298983097E+03  0.23508518106E+03 -0.22669650237E+03  0.94027186905E+03  0.86835992124E+03 0.  0.
        -24    2    4    4    0    0 -0.22989113765E+03  0.25418795201E+03  0.16338983119E+03  0.38757028748E+03  0.77801289748E+02 0.  0.
         24    2    4    4    0    0  0.38288096862E+03 -0.19102770945E+02 -0.39008633356E+03  0.55270158157E+03  0.79680227519E+02 0.  0.
         13    1    3    3    0    0 -0.13994025455E+03 -0.14324343357E+03 -0.33776426494E+03  0.39266608559E+03  0.00000000000E+00 0. -1.
        -13    1    3    3    0    0 -0.13049576422E+02 -0.91841747495E+02 -0.11330055444E+03  0.14643160063E+03  0.00000000000E+00 0.  1.
          2    1    6    6  502    0  0.25615176652E+03 -0.11315968815E+02 -0.20513549572E+03  0.32836313777E+03  0.00000000000E+00 0. -1.
          3    1    5    5  503    0 -0.17066923718E+03  0.18785882188E+03  0.81193926975E+02  0.26647960383E+03  0.00000000000E+00 0. -1.
         -4    1    5    5    0  503 -0.59221900469E+02  0.66329130130E+02  0.82195904210E+02  0.12109068365E+03  0.00000000000E+00 0.  1.
         -1    1    6    6    0  502  0.12672920210E+03 -0.77868021299E+01 -0.18495083784E+03  0.22433844380E+03  0.00000000000E+00 0.  1.
<mgrwt>
<rscale>  0 0.13149806E+04</rscale>
<asrwt>0</asrwt>
<pdfrwt beam="1">  1        1 0.16593314E+00 0.13149806E+04</pdfrwt>
<pdfrwt beam="2">  1       -1 0.61662173E-01 0.13149806E+04</pdfrwt>
<totfact> 0.34456808E+01</totfact>
</mgrwt>
</event>
<event>
12    1  0.1397649E-007  0.1491354E+04  0.7818608E-02  0.8890223E-01
         -1   -1    0    0    0  501 -0.00000000000E+00  0.00000000000E+00  0.43953568349E+03  0.43953568349E+03  0.00000000000E+00 0.  1.
          1   -1    0    0  501    0  0.00000000000E+00 -0.00000000000E+00 -0.12650490396E+04  0.12650490396E+04  0.00000000000E+00 0. -1.
         23    2    1    2    0    0  0.14773185337E+03  0.10603265713E+03 -0.76132873577E+03  0.78702415927E+03  0.81963153240E+02 0.  0.
        254    2    1    2    0    0 -0.14773185337E+03 -0.10603265713E+03 -0.64184620302E+02  0.91756056377E+03  0.89706749904E+03 0.  0.
        -24    2    4    4    0    0 -0.33828426826E+03  0.67279316254E+02 -0.36800881988E+03  0.51038877651E+03  0.78124638461E+02 0.  0.
         24    2    4    4    0    0  0.19055241489E+03 -0.17331197339E+03  0.30382419958E+03  0.40717178726E+03  0.84453875885E+02 0.  0.
         13    1    3    3    0    0  0.12566726017E+03  0.65725473163E+02 -0.66931624291E+03  0.68417565809E+03  0.00000000000E+00 0. -1.
        -13    1    3    3    0    0  0.22064593198E+02  0.40307183970E+02 -0.92012492853E+02  0.10284850117E+03  0.00000000000E+00 0.  1.
          4    1    6    6  502    0  0.90847984026E+02 -0.58570038568E+02  0.71721024317E+02  0.12972166723E+03  0.00000000000E+00 0. -1.
          3    1    5    5  503    0 -0.16592322822E+03  0.39893264559E+02 -0.12651736736E+03  0.21243501233E+03  0.00000000000E+00 0. -1.
         -4    1    5    5    0  503 -0.17236104004E+03  0.27386051695E+02 -0.24149145252E+03  0.29795376418E+03  0.00000000000E+00 0.  1.
         -3    1    6    6    0  502  0.99704430868E+02 -0.11474193482E+03  0.23210317526E+03  0.27745012003E+03  0.00000000000E+00 0.  1.
<mgrwt>
<rscale>  0 0.14913540E+04</rscale>
<asrwt>0</asrwt>
<pdfrwt beam="1">  1        1 0.19462293E+00 0.14913540E+04</pdfrwt>
<pdfrwt beam="2">  1       -1 0.67620874E-01 0.14913540E+04</pdfrwt>
<totfact> 0.20546815E+01</totfact>
</mgrwt>
</event>
<event>
12    1  0.1397649E-007  0.2379767E+04  0.7818608E-02  0.8447118E-01
          2   -1    0    0  501    0  0.00000000000E+00  0.00000000000E+00  0.12695165866E+04  0.12695165866E+04  0.00000000000E+00 0.  1.
         -2   -1    0    0    0  501 -0.00000000000E+00 -0.00000000000E+00 -0.11152455569E+04  0.11152455569E+04  0.00000000000E+00 0. -1.
         23    2    1    2    0    0  0.51890642165E+03 -0.14354475736E+03  0.93133495796E+03  0.10795631602E+04  0.90569538093E+02 0.  0.
        254    2    1    2    0    0 -0.51890642165E+03  0.14354475736E+03 -0.77706392828E+03  0.13051989832E+04  0.89991503233E+03 0.  0.
        -24    2    4    4    0    0  0.14425018352E+03  0.10295914037E+03 -0.57363875440E+03  0.60577749720E+03  0.80599351954E+02 0.  0.
         24    2    4    4    0    0 -0.66315660517E+03  0.40585616995E+02 -0.20342517388E+03  0.69942148603E+03  0.79904558521E+02 0.  0.
         11    1    3    3    0    0  0.14846361943E+03 -0.83811209812E+02  0.27613214574E+03  0.32452230600E+03  0.00000000000E+00 0. -1.
        -11    1    3    3    0    0  0.37044280222E+03 -0.59733547550E+02  0.65520281222E+03  0.75504085423E+03  0.00000000000E+00 0.  1.
          2    1    6    6  502    0 -0.32979641387E+03 -0.19791125892E+02 -0.98372261156E+02  0.34472375176E+03  0.00000000000E+00 0. -1.
          3    1    5    5  503    0  0.77712547747E+02  0.10167243950E+03 -0.38927111087E+03  0.40976642467E+03  0.00000000000E+00 0. -1.
         -4    1    5    5    0  503  0.66537635774E+02  0.12867008708E+01 -0.18436764353E+03  0.19601107253E+03  0.00000000000E+00 0.  1.
         -1    1    6    6    0  502 -0.33336019130E+03  0.60376742887E+02 -0.10505291273E+03  0.35469773427E+03  0.00000000000E+00 0.  1.
<mgrwt>
<rscale>  0 0.23797670E+04</rscale>
<asrwt>0</asrwt>
<pdfrwt beam="1">  1        2 0.19531024E+00 0.23797670E+04</pdfrwt>
<pdfrwt beam="2">  1       -2 0.17157624E+00 0.23797670E+04</pdfrwt>
<totfact> 0.32229138E+00</totfact>
</mgrwt>
</event>
<event>
12    1  0.1397649E-007  0.2991955E+04  0.7818608E-02  0.8246032E-01
         -2   -1    0    0    0  501 -0.00000000000E+00  0.00000000000E+00  0.68537842231E+03  0.68537842231E+03  0.00000000000E+00 0.  1.
          2   -1    0    0  501    0  0.00000000000E+00 -0.00000000000E+00 -0.32652735078E+04  0.32652735078E+04  0.00000000000E+00 0. -1.
         23    2    1    2    0    0 -0.74520845219E+03 -0.91283033804E+03 -0.20609013983E+04  0.23756703573E+04  0.88883124179E+02 0.  0.
        254    2    1    2    0    0  0.74520845219E+03  0.91283033804E+03 -0.51899368727E+03  0.15749815729E+04  0.90698271441E+03 0.  0.
        -24    2    4    4    0    0  0.63754884648E+03  0.10031529513E+03 -0.33374744142E+03  0.73090196958E+03  0.79363999378E+02 0.  0.
         24    2    4    4    0    0  0.10765960571E+03  0.81251504291E+03 -0.18524624585E+03  0.84407960330E+03  0.79893175206E+02 0.  0.
         13    1    3    3    0    0 -0.53531518852E+03 -0.66811752352E+03 -0.14164462955E+04  0.16550720481E+04  0.00000000000E+00 0. -1.
        -13    1    3    3    0    0 -0.20989326367E+03 -0.24471281452E+03 -0.64445510279E+03  0.72059830921E+03  0.00000000000E+00 0.  1.
          2    1    6    6  502    0  0.59523057159E+02  0.19675578677E+03 -0.56171174989E+02  0.21309865054E+03  0.00000000000E+00 0. -1.
          1    1    5    5  503    0  0.24607938916E+03  0.37441497823E+02 -0.17270113700E+03  0.30295645603E+03  0.00000000000E+00 0. -1.
         -2    1    5    5    0  503  0.39146945732E+03  0.62873797302E+02 -0.16104630443E+03  0.42794551356E+03  0.00000000000E+00 0.  1.
         -1    1    6    6    0  502  0.48136548551E+02  0.61575925614E+03 -0.12907507086E+03  0.63098095276E+03  0.00000000000E+00 0.  1.
<mgrwt>
<rscale>  0 0.29919545E+04</rscale>
<asrwt>0</asrwt>
<pdfrwt beam="1">  1        2 0.50234976E+00 0.29919545E+04</pdfrwt>
<pdfrwt beam="2">  1       -2 0.10544284E+00 0.29919545E+04</pdfrwt>
<totfact> 0.73167380E-01</totfact>
</mgrwt>
</event>
<event>
12    1  0.1397649E-007  0.1743408E+04  0.7818608E-02  0.8736987E-01
          2   -1    0    0  501    0  0.00000000000E+00  0.00000000000E+00  0.16836174618E+04  0.16836174618E+04  0.00000000000E+00 0. -1.
         -2   -1    0    0    0  501 -0.00000000000E+00 -0.00000000000E+00 -0.45133049891E+03  0.45133049891E+03  0.00000000000E+00 0.  1.
         23    2    1    2    0    0 -0.21489191930E+03 -0.51976897696E+03  0.95485088913E+02  0.58081613331E+03  0.10904885196E+03 0.  0.
        254    2    1    2    0    0  0.21489191930E+03  0.51976897696E+03  0.11368018740E+04  0.15541318274E+04  0.89814748783E+03 0.  0.
        -24    2    4    4    0    0 -0.20138417667E+03 -0.13471603290E+03  0.14746076371E+03  0.29439735825E+03  0.78874150253E+02 0.  0.
         24    2    4    4    0    0  0.41627609597E+03  0.65448500986E+03  0.98934111030E+03  0.12597344692E+04  0.80614416295E+02 0.  0.
         11    1    3    3    0    0 -0.91818642952E+01 -0.72246921191E+02 -0.18754988987E+02  0.75204214412E+02  0.00000000000E+00 0. -1.
        -11    1    3    3    0    0 -0.20571005500E+03 -0.44752205577E+03  0.11424007790E+03  0.50561191889E+03  0.00000000000E+00 0.  1.
          2    1    6    6  502    0  0.59989066053E+02  0.93542619019E+02  0.99640371109E+02  0.14925519480E+03  0.00000000000E+00 0. -1.
          1    1    5    5  503    0 -0.22090414214E+02 -0.53677733531E+02  0.33969961187E+02  0.67255064792E+02  0.00000000000E+00 0. -1.
         -2    1    5    5    0  503 -0.17929376246E+03 -0.81038299364E+02  0.11349080253E+03  0.22714229346E+03  0.00000000000E+00 0.  1.
         -1    1    6    6    0  502  0.35628702992E+03  0.56094239084E+03  0.88970073919E+03  0.11104792744E+04  0.00000000000E+00 0.  1.
<mgrwt>
<rscale>  0 0.17434081E+04</rscale>
<asrwt>0</asrwt>
<pdfrwt beam="1">  1        2 0.25901807E+00 0.17434081E+04</pdfrwt>
<pdfrwt beam="2">  1       -2 0.69435462E-01 0.17434081E+04</pdfrwt>
<totfact> 0.17968269E+01</totfact>
</mgrwt>
</event>
<event>
12    1  0.1397649E-007  0.1616386E+04  0.7818608E-02  0.8810544E-01
         -2   -1    0    0    0  501 -0.00000000000E+00  0.00000000000E+00  0.81492424985E+03  0.81492424985E+03  0.00000000000E+00 0.  1.
          2   -1    0    0  501    0  0.00000000000E+00 -0.00000000000E+00 -0.80151696151E+03  0.80151696151E+03  0.00000000000E+00 0. -1.
         23    2    1    2    0    0 -0.17149054055E+03 -0.13956516270E+03 -0.49707547643E+03  0.55225800326E+03  0.94960164045E+02 0.  0.
        254    2    1    2    0    0  0.17149054055E+03  0.13956516270E+03  0.51048276477E+03  0.10641832081E+04  0.90719667500E+03 0.  0.
        -24    2    4    4    0    0  0.16119987329E+02  0.64469512032E+02  0.75062913794E+03  0.75806553655E+03  0.82480803887E+02 0.  0.
         24    2    4    4    0    0  0.15537055322E+03  0.75095650665E+02 -0.24014637317E+03  0.30611767155E+03  0.79109940800E+02 0.  0.
         13    1    3    3    0    0 -0.28922982995E+02 -0.43210763011E+02 -0.45810790307E+02  0.69298899659E+02  0.00000000000E+00 0.  1.
        -13    1    3    3    0    0 -0.14256755756E+03 -0.96354399685E+02 -0.45126468612E+03  0.48295910360E+03  0.00000000000E+00 0. -1.
          2    1    6    6  502    0  0.41390130497E+02 -0.62825604496E+01 -0.98009239596E+02  0.10657590964E+03  0.00000000000E+00 0. -1.
          1    1    5    5  503    0 -0.16617292053E+02  0.33143614793E+02  0.11511971172E+03  0.12094288579E+03  0.00000000000E+00 0. -1.
         -2    1    5    5    0  503  0.32737279382E+02  0.31325897238E+02  0.63550942622E+03  0.63712265076E+03  0.00000000000E+00 0.  1.
         -1    1    6    6    0  502  0.11398042272E+03  0.81378211115E+02 -0.14213713357E+03  0.19954176191E+03  0.00000000000E+00 0.  1.
<mgrwt>
<rscale>  0 0.16163856E+04</rscale>
<asrwt>0</asrwt>
<pdfrwt beam="1">  1        2 0.12331030E+00 0.16163856E+04</pdfrwt>
<pdfrwt beam="2">  1       -2 0.12537296E+00 0.16163856E+04</pdfrwt>
<totfact> 0.15658557E+01</totfact>
</mgrwt>
</event>
<event>
12    1  0.1397649E-007  0.2626943E+04  0.7818608E-02  0.8359106E-01
          2   -1    0    0  501    0  0.00000000000E+00  0.00000000000E+00  0.23707729077E+04  0.23707729077E+04  0.00000000000E+00 0. -1.
         -2   -1    0    0    0  501 -0.00000000000E+00 -0.00000000000E+00 -0.72769828177E+03  0.72769828177E+03  0.00000000000E+00 0.  1.
         23    2    1    2    0    0  0.55121341009E+03  0.63033974171E+03 -0.21845002862E+03  0.87029566784E+03  0.92356488711E+02 0.  0.
        254    2    1    2    0    0 -0.55121341009E+03 -0.63033974171E+03  0.18615246546E+04  0.22281755217E+04  0.89349185909E+03 0.  0.
        -24    2    4    4    0    0 -0.18336049203E+03 -0.67881748720E+03  0.16459035891E+04  0.17916896675E+04  0.82091345649E+02 0.  0.
         24    2    4    4    0    0 -0.36785291806E+03  0.48477745486E+02  0.21562106553E+03  0.43648585421E+03  0.79759613149E+02 0.  0.
         11    1    3    3    0    0  0.53584408187E+03  0.62997028143E+03 -0.21361679642E+03  0.85418005788E+03  0.00000000000E+00 0.  1.
        -11    1    3    3    0    0  0.15369328218E+02  0.36946027718E+00 -0.48332321983E+01  0.16115609956E+02  0.00000000000E+00 0. -1.
          2    1    6    6  502    0 -0.24667543635E+03  0.65952912602E+02  0.16493769014E+03  0.30397861636E+03  0.00000000000E+00 0. -1.
          3    1    5    5  503    0 -0.10925971893E+02 -0.97486368336E+02  0.17341192954E+03  0.19923520317E+03  0.00000000000E+00 0. -1.
         -4    1    5    5    0  503 -0.17243452013E+03 -0.58133111886E+03  0.14724916595E+04  0.15924544643E+04  0.00000000000E+00 0.  1.
         -1    1    6    6    0  502 -0.12117748172E+03 -0.17475167115E+02  0.50683375395E+02  0.13250723785E+03  0.00000000000E+00 0.  1.
<mgrwt>
<rscale>  0 0.26269430E+04</rscale>
<asrwt>0</asrwt>
<pdfrwt beam="1">  1        2 0.36473429E+00 0.26269430E+04</pdfrwt>
<pdfrwt beam="2">  1       -2 0.11195358E+00 0.26269430E+04</pdfrwt>
<totfact> 0.22952223E+00</totfact>
</mgrwt>
</event>
<event>
12    1  0.1397649E-007  0.1321486E+04  0.7818608E-02  0.9012698E-01
         -1   -1    0    0    0  501 -0.00000000000E+00  0.00000000000E+00  0.26074260058E+03  0.26074260058E+03  0.00000000000E+00 0.  1.
          1   -1    0    0  501    0  0.00000000000E+00 -0.00000000000E+00 -0.16743773294E+04  0.16743773294E+04  0.00000000000E+00 0. -1.
         23    2    1    2    0    0 -0.79153350834E+02 -0.93483982018E+02 -0.85529992788E+03  0.86895644015E+03  0.92427379079E+02 0.  0.
        254    2    1    2    0    0  0.79153350834E+02  0.93483982018E+02 -0.55833480093E+03  0.10661634898E+04  0.89997907156E+03 0.  0.
        -24    2    4    4    0    0 -0.40173235697E+03 -0.58416112968E+01 -0.25362435508E+03  0.48187416298E+03  0.80339183455E+02 0.  0.
         24    2    4    4    0    0  0.48088570780E+03  0.99325593315E+02 -0.30471044585E+03  0.58428932684E+03  0.86191207133E+02 0.  0.
         13    1    3    3    0    0 -0.49039226782E+02 -0.96086600087E+02 -0.45904776780E+03  0.47155310794E+03  0.00000000000E+00 0.  1.
        -13    1    3    3    0    0 -0.30114124051E+02  0.26026180692E+01 -0.39625216007E+03  0.39740333221E+03  0.00000000000E+00 0. -1.
          2    1    6    6  502    0  0.29715875967E+01 -0.46914279095E+01  0.31284238589E+01  0.63739206550E+01  0.00000000000E+00 0. -1.
          3    1    5    5  503    0 -0.10190902410E+03  0.14704204770E+02 -0.29905933071E+02  0.10721953023E+03  0.00000000000E+00 0. -1.
         -4    1    5    5    0  503 -0.29982333287E+03 -0.20545816067E+02 -0.22371842201E+03  0.37465463274E+03  0.00000000000E+00 0.  1.
         -1    1    6    6    0  502  0.47791412021E+03  0.10401702122E+03 -0.30783886971E+03  0.57791540618E+03  0.00000000000E+00 0.  1.
<mgrwt>
<rscale>  0 0.13214863E+04</rscale>
<asrwt>0</asrwt>
<pdfrwt beam="1">  1        1 0.25759652E+00 0.13214863E+04</pdfrwt>
<pdfrwt beam="2">  1       -1 0.40114245E-01 0.13214863E+04</pdfrwt>
<totfact> 0.29496695E+01</totfact>
</mgrwt>
</event>
<event>
12    1  0.1397649E-007  0.1148155E+04  0.7818608E-02  0.9159487E-01
          1   -1    0    0  501    0  0.00000000000E+00  0.00000000000E+00  0.68821865540E+03  0.68821865540E+03  0.00000000000E+00 0. -1.
         -1   -1    0    0    0  501 -0.00000000000E+00 -0.00000000000E+00 -0.47886698387E+03  0.47886698387E+03  0.00000000000E+00 0.  1.
         23    2    1    2    0    0 -0.15512734213E+03  0.70942290937E+01  0.20208507686E+03  0.27012507223E+03  0.89522935580E+02 0.  0.
        254    2    1    2    0    0  0.15512734213E+03 -0.70942290937E+01  0.72665946710E+01  0.89696056704E+03  0.88338589250E+03 0.  0.
        -24    2    4    4    0    0  0.63545563654E+02  0.42731086143E+03 -0.47126710418E+02  0.44284120809E+03  0.85175100739E+02 0.  0.
         24    2    4    4    0    0  0.91581778472E+02 -0.43440509053E+03  0.54393305089E+02  0.45411935896E+03  0.78554157851E+02 0.  0.
         11    1    3    3    0    0 -0.46545547109E+02  0.35114989411E+02  0.32313510382E+02  0.66661183534E+02  0.00000000000E+00 0.  1.
        -11    1    3    3    0    0 -0.10858179502E+03 -0.28020760317E+02  0.16977156648E+03  0.20346388869E+03  0.00000000000E+00 0. -1.
          4    1    6    6  502    0  0.93935827841E+02 -0.42962883641E+03  0.43412701216E+02  0.44191576058E+03  0.00000000000E+00 0. -1.
          1    1    5    5  503    0  0.60468194332E+02  0.43104163384E+03 -0.48087113698E+02  0.43791056522E+03  0.00000000000E+00 0. -1.
         -2    1    5    5    0  503  0.30773693218E+01 -0.37307724013E+01  0.96040327920E+00  0.49306428700E+01  0.00000000000E+00 0.  1.
         -3    1    6    6    0  502 -0.23540493691E+01 -0.47762541226E+01  0.10980603873E+02  0.12203598375E+02  0.00000000000E+00 0.  1.
<mgrwt>
<rscale>  0 0.11481554E+04</rscale>
<asrwt>0</asrwt>
<pdfrwt beam="1">  1        1 0.10587979E+00 0.11481554E+04</pdfrwt>
<pdfrwt beam="2">  1       -1 0.73671844E-01 0.11481554E+04</pdfrwt>
<totfact> 0.51558197E+01</totfact>
</mgrwt>
</event>
<event>
12    1  0.1397649E-007  0.1678998E+04  0.7818608E-02  0.8773434E-01
         -2   -1    0    0    0  501 -0.00000000000E+00  0.00000000000E+00  0.17711207679E+03  0.17711207679E+03  0.00000000000E+00 0.  1.
          2   -1    0    0  501    0  0.00000000000E+00 -0.00000000000E+00 -0.39791668939E+04  0.39791668939E+04  0.00000000000E+00 0. -1.
         23    2    1    2    0    0 -0.22341244675E+03 -0.47765160233E+03 -0.67678465245E+03  0.86278187660E+03  0.91054523319E+02 0.  0.
        254    2    1    2    0    0  0.22341244675E+03  0.47765160233E+03 -0.31252701646E+04  0.32934970940E+04  0.89540232977E+03 0.  0.
        -24    2    4    4    0    0 -0.14561180221E+03 -0.13417767353E+03 -0.15131982930E+04  0.15282381689E+04  0.80847893767E+02 0.  0.
         24    2    4    4    0    0  0.36902424896E+03  0.61182927586E+03 -0.16120718716E+04  0.17652589251E+04  0.82761068485E+02 0.  0.
         13    1    3    3    0    0 -0.10740868631E+01 -0.16310570536E+02 -0.54299156741E+02  0.56706144258E+02  0.00000000000E+00 0. -1.
        -13    1    3    3    0    0 -0.22233835989E+03 -0.46134103180E+03 -0.62248549571E+03  0.80607573234E+03  0.00000000000E+00 0.  1.
          4    1    6    6  502    0  0.15649141387E+03  0.23473154296E+03 -0.54388920836E+03  0.61270215508E+03  0.00000000000E+00 0. -1.
          3    1    5    5  503    0 -0.12197841913E+02 -0.11284555108E+02 -0.32804000591E+02  0.36772693485E+02  0.00000000000E+00 0. -1.
         -4    1    5    5    0  503 -0.13341396029E+03 -0.12289311842E+03 -0.14803942925E+04  0.14914654755E+04  0.00000000000E+00 0.  1.
         -3    1    6    6    0  502  0.21253283508E+03  0.37709773291E+03 -0.10681826632E+04  0.11525567700E+04  0.00000000000E+00 0.  1.
<mgrwt>
<rscale>  0 0.16789979E+04</rscale>
<asrwt>0</asrwt>
<pdfrwt beam="1">  1        2 0.61217955E+00 0.16789979E+04</pdfrwt>
<pdfrwt beam="2">  1       -2 0.27248010E-01 0.16789979E+04</pdfrwt>
<totfact> 0.42280693E+00</totfact>
</mgrwt>
</event>
<event>
12    1  0.1397649E-007  0.1748026E+04  0.7818608E-02  0.8734438E-01
         -1   -1    0    0    0  501 -0.00000000000E+00  0.00000000000E+00  0.17375681903E+04  0.17375681903E+04  0.00000000000E+00 0.  1.
          1   -1    0    0  501    0  0.00000000000E+00 -0.00000000000E+00 -0.43963673384E+03  0.43963673384E+03  0.00000000000E+00 0. -1.
         23    2    1    2    0    0 -0.26970939287E+03 -0.22949451572E+03  0.11483737748E+04  0.12051952771E+04  0.91227407262E+02 0.  0.
        254    2    1    2    0    0  0.26970939287E+03  0.22949451572E+03  0.14955768159E+03  0.97200964701E+03  0.89276221046E+03 0.  0.
        -24    2    4    4    0    0  0.47305460806E+02  0.33401644036E+03 -0.29621414920E+03  0.45604701756E+03  0.80195205513E+02 0.  0.
         24    2    4    4    0    0  0.22240393207E+03 -0.10452192465E+03  0.44577183079E+03  0.51596262945E+03  0.84359754204E+02 0.  0.
         13    1    3    3    0    0 -0.24653529080E+03 -0.17002563720E+03  0.88917017894E+03  0.93824941995E+03  0.00000000000E+00 0.  1.
        -13    1    3    3    0    0 -0.23174102072E+02 -0.59468878520E+02  0.25920359590E+03  0.26694585714E+03  0.00000000000E+00 0. -1.
          4    1    6    6  502    0  0.15732941529E+03 -0.90888614188E+02  0.24887301290E+03  0.30814130144E+03  0.00000000000E+00 0. -1.
          3    1    5    5  503    0  0.21393252261E+02  0.29500141679E+03 -0.27761841659E+03  0.40565440017E+03  0.00000000000E+00 0. -1.
         -4    1    5    5    0  503  0.25912208545E+02  0.39015023575E+02 -0.18595732610E+02  0.50392617391E+02  0.00000000000E+00 0.  1.
         -3    1    6    6    0  502  0.65074516782E+02 -0.13633310460E+02  0.19689881789E+03  0.20782132801E+03  0.00000000000E+00 0.  1.
<mgrwt>
<rscale>  0 0.17480261E+04</rscale>
<asrwt>0</asrwt>
<pdfrwt beam="1">  1        1 0.67636422E-01 0.17480261E+04</pdfrwt>
<pdfrwt beam="2">  1       -1 0.26731818E+00 0.17480261E+04</pdfrwt>
<totfact> 0.26950335E+00</totfact>
</mgrwt>
</event>
<event>
12    1  0.1397649E-007  0.2697050E+04  0.7818608E-02  0.8335963E-01
          1   -1    0    0  501    0  0.00000000000E+00  0.00000000000E+00  0.24625768776E+04  0.24625768776E+04  0.00000000000E+00 0. -1.
         -1   -1    0    0    0  501 -0.00000000000E+00 -0.00000000000E+00 -0.73846217226E+03  0.73846217226E+03  0.00000000000E+00 0.  1.
         23    2    1    2    0    0 -0.43912634950E+03 -0.43404535605E+02  0.20830368371E+04  0.21312458963E+04  0.91927695331E+02 0.  0.
        254    2    1    2    0    0  0.43912634950E+03  0.43404535605E+02 -0.35892213183E+03  0.10697931535E+04  0.90604436428E+03 0.  0.
        -24    2    4    4    0    0  0.67424357947E+02 -0.39467911137E+03 -0.25270273900E+03  0.47998002067E+03  0.78768654571E+02 0.  0.
         24    2    4    4    0    0  0.37170199155E+03  0.43808364698E+03 -0.10621939283E+03  0.58981313285E+03  0.80729920066E+02 0.  0.
         11    1    3    3    0    0 -0.39808997020E+03 -0.55959712418E+02  0.19637317611E+04  0.20044574187E+04  0.00000000000E+00 0. -1.
        -11    1    3    3    0    0 -0.41036379301E+02  0.12555176814E+02  0.11930507600E+03  0.12678847760E+03  0.00000000000E+00 0.  1.
          2    1    6    6  502    0  0.31611151033E+03  0.39426579567E+03 -0.69586676966E+02  0.51011205653E+03  0.00000000000E+00 0. -1.
          1    1    5    5  503    0  0.49384193828E+01 -0.20062960749E+03 -0.93929851712E+02  0.22158394444E+03  0.00000000000E+00 0. -1.
         -2    1    5    5    0  503  0.62485938565E+02 -0.19404950388E+03 -0.15877288729E+03  0.25839607623E+03  0.00000000000E+00 0.  1.
         -1    1    6    6    0  502  0.55590481217E+02  0.43817851303E+02 -0.36632715865E+02  0.79701076318E+02  0.00000000000E+00 0.  1.
<mgrwt>
<rscale>  0 0.26970501E+04</rscale>
<asrwt>0</asrwt>
<pdfrwt beam="1">  1        1 0.37885798E+00 0.26970501E+04</pdfrwt>
<pdfrwt beam="2">  1       -1 0.11360957E+00 0.26970501E+04</pdfrwt>
<totfact> 0.88729903E-01</totfact>
</mgrwt>
</event>
<event>
12    1  0.1397649E-007  0.1294435E+04  0.7818608E-02  0.9033990E-01
          1   -1    0    0  501    0  0.00000000000E+00  0.00000000000E+00  0.35708187458E+04  0.35708187458E+04  0.00000000000E+00 0. -1.
         -1   -1    0    0    0  501 -0.00000000000E+00 -0.00000000000E+00 -0.11730927826E+03  0.11730927826E+03  0.00000000000E+00 0.  1.
         23    2    1    2    0    0 -0.40339773202E+02  0.32826455290E+03  0.10538772239E+04  0.11080944374E+04  0.88493870860E+02 0.  0.
        254    2    1    2    0    0  0.40339773202E+02 -0.32826455290E+03  0.23996322437E+04  0.25800335867E+04  0.88823053851E+03 0.  0.
        -24    2    4    4    0    0  0.16831334495E+03  0.16863162412E+03  0.20457189827E+03  0.32427740749E+03  0.80871309520E+02 0.  0.
         24    2    4    4    0    0 -0.12797357175E+03 -0.49689617702E+03  0.21950603454E+04  0.22557561792E+04  0.82843069646E+02 0.  0.
         13    1    3    3    0    0  0.14842359235E+02  0.12160380398E+03  0.28952043998E+03  0.31437217742E+03  0.00000000000E+00 0.  1.
        -13    1    3    3    0    0 -0.55182132437E+02  0.20666074892E+03  0.76435678392E+03  0.79372225999E+03  0.00000000000E+00 0. -1.
          2    1    6    6  502    0  0.34987275866E+01 -0.22437649945E+02  0.49926243461E+02  0.54848145054E+02  0.00000000000E+00 0. -1.
          1    1    5    5  503    0  0.98627328535E+01  0.37199367538E+02  0.73399162657E+01  0.39178320732E+02  0.00000000000E+00 0. -1.
         -2    1    5    5    0  503  0.15845061210E+03  0.13143225659E+03  0.19723198200E+03  0.28509908676E+03  0.00000000000E+00 0.  1.
         -1    1    6    6    0  502 -0.13147229934E+03 -0.47445852708E+03  0.21451341020E+04  0.22009080342E+04  0.00000000000E+00 0.  1.
<mgrwt>
<rscale>  0 0.12944345E+04</rscale>
<asrwt>0</asrwt>
<pdfrwt beam="1">  1        1 0.54935665E+00 0.12944345E+04</pdfrwt>
<pdfrwt beam="2">  1       -1 0.18047584E-01 0.12944345E+04</pdfrwt>
<totfact> 0.53413892E+00</totfact>
</mgrwt>
</event>
<event>
12    1  0.1397649E-007  0.1498760E+04  0.7818608E-02  0.8885278E-01
         -2   -1    0    0    0  501 -0.00000000000E+00  0.00000000000E+00  0.42097333388E+03  0.42097333388E+03  0.00000000000E+00 0.  1.
          2   -1    0    0  501    0  0.00000000000E+00 -0.00000000000E+00 -0.13339805652E+04  0.13339805652E+04  0.00000000000E+00 0. -1.
         23    2    1    2    0    0  0.13304250316E+03  0.13411283251E+03  0.21380703780E+03  0.29790334205E+03  0.85711097893E+02 0.  0.
        254    2    1    2    0    0 -0.13304250316E+03 -0.13411283251E+03 -0.11268142691E+04  0.14570505571E+04  0.90421201561E+03 0.  0.
        -24    2    4    4    0    0  0.12650752748E+03 -0.36806819784E+03 -0.10009861058E+04  0.10768871995E+04  0.78958874175E+02 0.  0.
         24    2    4    4    0    0 -0.25955003065E+03  0.23395536534E+03 -0.12582816337E+03  0.38016335751E+03  0.81179556044E+02 0.  0.
         13    1    3    3    0    0  0.93597606221E+02  0.35218548382E+02  0.11796001015E+03  0.15464611872E+03  0.00000000000E+00 0.  1.
        -13    1    3    3    0    0  0.39444896942E+02  0.98894284126E+02  0.95847027645E+02  0.14325722333E+03  0.00000000000E+00 0. -1.
          2    1    6    6  502    0 -0.20690901150E+03  0.21174003238E+03 -0.12901102633E+03  0.32293811368E+03  0.00000000000E+00 0. -1.
          1    1    5    5  503    0 -0.10622798334E+02 -0.35427006402E+02 -0.80908155580E+02  0.88960925503E+02  0.00000000000E+00 0. -1.
         -2    1    5    5    0  503  0.13713032582E+03 -0.33264119144E+03 -0.92007795019E+03  0.98792627404E+03  0.00000000000E+00 0.  1.
         -1    1    6    6    0  502 -0.52641019145E+02  0.22215332959E+02  0.31828629613E+01  0.57225243833E+02  0.00000000000E+00 0.  1.
<mgrwt>
<rscale>  0 0.14987598E+04</rscale>
<asrwt>0</asrwt>
<pdfrwt beam="1">  1        2 0.20522778E+00 0.14987598E+04</pdfrwt>
<pdfrwt beam="2">  1       -2 0.64765129E-01 0.14987598E+04</pdfrwt>
<totfact> 0.33580969E+01</totfact>
</mgrwt>
</event>
<event>
12    1  0.1397649E-007  0.1118780E+04  0.7818608E-02  0.9187078E-01
         -2   -1    0    0    0  501 -0.00000000000E+00  0.00000000000E+00  0.22430426707E+03  0.22430426707E+03  0.00000000000E+00 0.  1.
          2   -1    0    0  501    0  0.00000000000E+00 -0.00000000000E+00 -0.13950567428E+04  0.13950567428E+04  0.00000000000E+00 0. -1.
         23    2    1    2    0    0  0.40564853476E+02 -0.87970812236E+02  0.83446061148E+01  0.13354913585E+03  0.91549812086E+02 0.  0.
        254    2    1    2    0    0 -0.40564853476E+02  0.87970812236E+02 -0.11790970818E+04  0.14858118740E+04  0.89887853763E+03 0.  0.
        -24    2    4    4    0    0 -0.14606313038E+03 -0.19592198560E+03 -0.11418100263E+04  0.11703736149E+04  0.79526094737E+02 0.  0.
         24    2    4    4    0    0  0.10549827690E+03  0.28389279784E+03 -0.37287055530E+02  0.31543825913E+03  0.79912225080E+02 0.  0.
         11    1    3    3    0    0 -0.11077744807E+02 -0.30243135955E+02 -0.32693077460E+02  0.45893365710E+02  0.00000000000E+00 0. -1.
        -11    1    3    3    0    0  0.51642598283E+02 -0.57727676281E+02  0.41037683575E+02  0.87655770143E+02  0.00000000000E+00 0.  1.
          4    1    6    6  502    0  0.28941782747E+02  0.14120746111E+03  0.15861559919E+02  0.14501297510E+03  0.00000000000E+00 0. -1.
          1    1    5    5  503    0 -0.26607905010E+02  0.75378780978E+00 -0.13542807858E+03  0.13801924964E+03  0.00000000000E+00 0. -1.
         -2    1    5    5    0  503 -0.11945522537E+03 -0.19667577341E+03 -0.10063819477E+04  0.10323543652E+04  0.00000000000E+00 0.  1.
         -3    1    6    6    0  502  0.76556494154E+02  0.14268533673E+03 -0.53148615449E+02  0.17042528403E+03  0.00000000000E+00 0.  1.
<mgrwt>
<rscale>  0 0.11187800E+04</rscale>
<asrwt>0</asrwt>
<pdfrwt beam="1">  1        2 0.21462412E+00 0.11187800E+04</pdfrwt>
<pdfrwt beam="2">  1       -2 0.34508348E-01 0.11187800E+04</pdfrwt>
<totfact> 0.11360089E+02</totfact>
</mgrwt>
</event>
<event>
12    1  0.1397649E-007  0.1295152E+04  0.7818608E-02  0.9033419E-01
          2   -1    0    0  501    0  0.00000000000E+00  0.00000000000E+00  0.10914450302E+04  0.10914450302E+04  0.00000000000E+00 0. -1.
         -2   -1    0    0    0  501 -0.00000000000E+00 -0.00000000000E+00 -0.38421951377E+03  0.38421951377E+03  0.00000000000E+00 0.  1.
         23    2    1    2    0    0 -0.12831848064E+03  0.91703125144E+02 -0.14061465201E+03  0.22887415213E+03  0.87953405385E+02 0.  0.
        254    2    1    2    0    0  0.12831848064E+03 -0.91703125144E+02  0.84784016841E+03  0.12467903918E+04  0.90043224858E+03 0.  0.
        -24    2    4    4    0    0  0.18021919645E+03  0.37797115584E+03  0.32216860967E+03  0.53457797990E+03  0.81485275458E+02 0.  0.
         24    2    4    4    0    0 -0.51900715814E+02 -0.46967428099E+03  0.52567155874E+03  0.71221241190E+03  0.87340239702E+02 0.  0.
         11    1    3    3    0    0 -0.12829919745E+03  0.48862825507E+02 -0.10006221460E+03  0.16988439179E+03  0.00000000000E+00 0.  1.
        -11    1    3    3    0    0 -0.19283184919E-01  0.42840299637E+02 -0.40552437416E+02  0.58989760342E+02  0.00000000000E+00 0. -1.
          2    1    6    6  502    0 -0.49899678534E+01 -0.35753400920E+03  0.36778842079E+03  0.51295593376E+03  0.00000000000E+00 0. -1.
          1    1    5    5  503    0  0.13897145964E+03  0.35043658384E+03  0.28599855253E+03  0.47319555993E+03  0.00000000000E+00 0. -1.
         -4    1    5    5    0  503  0.41247736814E+02  0.27534572000E+02  0.36170057141E+02  0.61382419968E+02  0.00000000000E+00 0.  1.
         -3    1    6    6    0  502 -0.46910747961E+02 -0.11214027179E+03  0.15788313795E+03  0.19925647813E+03  0.00000000000E+00 0.  1.
<mgrwt>
<rscale>  0 0.12951517E+04</rscale>
<asrwt>0</asrwt>
<pdfrwt beam="1">  1        2 0.16791462E+00 0.12951517E+04</pdfrwt>
<pdfrwt beam="2">  1       -2 0.59110695E-01 0.12951517E+04</pdfrwt>
<totfact> 0.57801420E+01</totfact>
</mgrwt>
</event>
<event>
12    1  0.1397649E-007  0.1275544E+04  0.7818608E-02  0.9049187E-01
         -1   -1    0    0    0  501 -0.00000000000E+00  0.00000000000E+00  0.76874116883E+03  0.76874116883E+03  0.00000000000E+00 0.  1.
          1   -1    0    0  501    0  0.00000000000E+00 -0.00000000000E+00 -0.52911612064E+03  0.52911612064E+03  0.00000000000E+00 0. -1.
         23    2    1    2    0    0 -0.25369771274E+03 -0.17038874646E+03  0.61199929753E+02  0.32545792748E+03  0.93715403138E+02 0.  0.
        254    2    1    2    0    0  0.25369771274E+03  0.17038874646E+03  0.17842511844E+03  0.97239936199E+03  0.90572078586E+03 0.  0.
        -24    2    4    4    0    0 -0.29686959124E+03  0.24548106882E+03  0.64489957595E+02  0.39967614345E+03  0.84791247536E+02 0.  0.
         24    2    4    4    0    0  0.55056730398E+03 -0.75092322359E+02  0.11393516084E+03  0.57272321854E+03  0.79167234939E+02 0.  0.
         13    1    3    3    0    0 -0.79011589729E+02 -0.70963566808E+02 -0.21074910235E+02  0.10827193065E+03  0.00000000000E+00 0. -1.
        -13    1    3    3    0    0 -0.17468612301E+03 -0.99425179657E+02  0.82274839988E+02  0.21718599683E+03  0.00000000000E+00 0.  1.
          4    1    6    6  502    0  0.22987693100E+03 -0.65219323882E+02  0.69264313872E+02  0.24878607032E+03  0.00000000000E+00 0. -1.
          1    1    5    5  503    0 -0.32116735757E+02  0.51523287510E+02 -0.13816972670E+02  0.62265902429E+02  0.00000000000E+00 0. -1.
         -2    1    5    5    0  503 -0.26475285548E+03  0.19395778131E+03  0.78306930265E+02  0.33741024102E+03  0.00000000000E+00 0.  1.
         -3    1    6    6    0  502  0.32069037299E+03 -0.98729984773E+01  0.44670846973E+02  0.32393714822E+03  0.00000000000E+00 0.  1.
<mgrwt>
<rscale>  0 0.12755443E+04</rscale>
<asrwt>0</asrwt>
<pdfrwt beam="1">  1        1 0.81402480E-01 0.12755443E+04</pdfrwt>
<pdfrwt beam="2">  1       -1 0.11826787E+00 0.12755443E+04</pdfrwt>
<totfact> 0.25876427E+01</totfact>
</mgrwt>
</event>
<event>
12    1  0.1397649E-007  0.1726957E+04  0.7818608E-02  0.8746137E-01
          1   -1    0    0  501    0  0.00000000000E+00  0.00000000000E+00  0.26589926213E+04  0.26589926213E+04  0.00000000000E+00 0. -1.
         -1   -1    0    0    0  501 -0.00000000000E+00 -0.00000000000E+00 -0.28040509253E+03  0.28040509253E+03  0.00000000000E+00 0.  1.
         23    2    1    2    0    0 -0.18014994050E+03  0.57472513333E+03  0.11402354330E+04  0.12928061389E+04  0.91912405812E+02 0.  0.
        254    2    1    2    0    0  0.18014994050E+03 -0.57472513333E+03  0.12383520958E+04  0.16465915749E+04  0.90276515294E+03 0.  0.
        -24    2    4    4    0    0  0.49749529734E+03 -0.25522592029E+03  0.95018371163E+03  0.11058779192E+04  0.86458342901E+02 0.  0.
         24    2    4    4    0    0 -0.31734535684E+03 -0.31949921304E+03  0.28816838418E+03  0.54071365569E+03  0.80885209856E+02 0.  0.
         11    1    3    3    0    0  0.68489807029E+01  0.80041742338E+01  0.92036208421E+01  0.13988637476E+02  0.00000000000E+00 0.  1.
        -11    1    3    3    0    0 -0.18699892120E+03  0.56672095909E+03  0.11310318121E+04  0.12788175014E+04  0.00000000000E+00 0. -1.
          4    1    6    6  502    0 -0.30647516419E+03 -0.32156340468E+03  0.27121338761E+03  0.52046781948E+03  0.00000000000E+00 0. -1.
          1    1    5    5  503    0  0.27910502655E+03 -0.17765394951E+03  0.61549064920E+03  0.69877698937E+03  0.00000000000E+00 0. -1.
         -2    1    5    5    0  503  0.21839027079E+03 -0.77571970783E+02  0.33469306243E+03  0.40710092983E+03  0.00000000000E+00 0.  1.
         -1    1    6    6    0  502 -0.10870192645E+02  0.20641916387E+01  0.16954996574E+02  0.20245836216E+02  0.00000000000E+00 0.  1.
<mgrwt>
<rscale>  0 0.17269569E+04</rscale>
<asrwt>0</asrwt>
<pdfrwt beam="1">  1        1 0.40907577E+00 0.17269569E+04</pdfrwt>
<pdfrwt beam="2">  1       -1 0.43139247E-01 0.17269569E+04</pdfrwt>
<totfact> 0.52874636E+00</totfact>
</mgrwt>
</event>
<event>
12    1  0.1397649E-007  0.1586411E+04  0.7818608E-02  0.8828940E-01
          2   -1    0    0  501    0  0.00000000000E+00  0.00000000000E+00  0.14592026603E+04  0.14592026603E+04  0.00000000000E+00 0. -1.
         -2   -1    0    0    0  501 -0.00000000000E+00 -0.00000000000E+00 -0.43117719209E+03  0.43117719209E+03  0.00000000000E+00 0.  1.
         23    2    1    2    0    0 -0.16509952004E+03  0.24297997596E+03  0.86231799343E+03  0.91508303432E+03  0.86530443572E+02 0.  0.
        254    2    1    2    0    0  0.16509952004E+03 -0.24297997596E+03  0.16570747483E+03  0.97529681812E+03  0.91512173834E+03 0.  0.
        -24    2    4    4    0    0 -0.35609345434E+03 -0.80373573103E+02 -0.60993959048E+02  0.37861698049E+03  0.79800347137E+02 0.  0.
         24    2    4    4    0    0  0.52119297437E+03 -0.16260640286E+03  0.22670143388E+03  0.59667983763E+03  0.80934107281E+02 0.  0.
         13    1    3    3    0    0 -0.20401904979E+02  0.97853657457E+02  0.24372275308E+03  0.26342428964E+03  0.00000000000E+00 0.  1.
        -13    1    3    3    0    0 -0.14469761506E+03  0.14512631850E+03  0.61859524035E+03  0.65165874468E+03  0.00000000000E+00 0. -1.
          4    1    6    6  502    0  0.72864143228E+02 -0.21399389118E+02  0.26912364716E+01  0.75989209607E+02  0.00000000000E+00 0. -1.
          1    1    5    5  503    0 -0.23571565457E+03 -0.82899046974E+02 -0.17068403746E+02  0.25045049851E+03  0.00000000000E+00 0. -1.
         -2    1    5    5    0  503 -0.12037779977E+03  0.25254738717E+01 -0.43925555302E+02  0.12816648198E+03  0.00000000000E+00 0.  1.
         -3    1    6    6    0  502  0.44832883115E+03 -0.14120701374E+03  0.22401019740E+03  0.52069062802E+03  0.00000000000E+00 0.  1.
<mgrwt>
<rscale>  0 0.15864109E+04</rscale>
<asrwt>0</asrwt>
<pdfrwt beam="1">  1        2 0.22449271E+00 0.15864109E+04</pdfrwt>
<pdfrwt beam="2">  1       -2 0.66334953E-01 0.15864109E+04</pdfrwt>
<totfact> 0.26850591E+01</totfact>
</mgrwt>
</event>
<event>
12    1  0.1397649E-007  0.1369433E+04  0.7818608E-02  0.8976247E-01
         -1   -1    0    0    0  501 -0.00000000000E+00  0.00000000000E+00  0.33852001157E+03  0.33852001157E+03  0.00000000000E+00 0.  1.
          1   -1    0    0  501    0  0.00000000000E+00 -0.00000000000E+00 -0.13849595196E+04  0.13849595196E+04  0.00000000000E+00 0. -1.
         23    2    1    2    0    0  0.17843468939E+02 -0.34126557440E+03 -0.84693095056E+02  0.36355732205E+03  0.90666556160E+02 0.  0.
        254    2    1    2    0    0 -0.17843468939E+02  0.34126557440E+03 -0.96174641298E+03  0.13599222091E+04  0.89869442547E+03 0.  0.
        -24    2    4    4    0    0  0.25461151670E+02  0.59499014270E+03 -0.90282791701E+03  0.10844986514E+04  0.79859483053E+02 0.  0.
         24    2    4    4    0    0 -0.43304620609E+02 -0.25372456830E+03 -0.58918495970E+02  0.27542355772E+03  0.78328157485E+02 0.  0.
         11    1    3    3    0    0  0.36878037255E+02 -0.27630408518E+03 -0.96213067458E+02  0.29489132146E+03  0.00000000000E+00 0.  1.
        -11    1    3    3    0    0 -0.19034568317E+02 -0.64961489220E+02  0.11519972402E+02  0.68666000588E+02  0.00000000000E+00 0. -1.
          4    1    6    6  502    0  0.19984606422E+02 -0.26728465909E+02 -0.61945619483E+01  0.33943600007E+02  0.00000000000E+00 0. -1.
          3    1    5    5  503    0 -0.13167742147E+02  0.30321686699E+03 -0.40377779296E+03  0.50512410747E+03  0.00000000000E+00 0. -1.
         -4    1    5    5    0  503  0.38628893817E+02  0.29177327571E+03 -0.49905012405E+03  0.57937454395E+03  0.00000000000E+00 0.  1.
         -3    1    6    6    0  502 -0.63289227030E+02 -0.22699610239E+03 -0.52723934021E+02  0.24147995771E+03  0.00000000000E+00 0.  1.
<mgrwt>
<rscale>  0 0.13694327E+04</rscale>
<asrwt>0</asrwt>
<pdfrwt beam="1">  1        1 0.21307070E+00 0.13694327E+04</pdfrwt>
<pdfrwt beam="2">  1       -1 0.52080001E-01 0.13694327E+04</pdfrwt>
<totfact> 0.28562236E+01</totfact>
</mgrwt>
</event>
<event>
12    1  0.1397649E-007  0.3279497E+04  0.7818608E-02  0.8168132E-01
          2   -1    0    0  501    0  0.00000000000E+00  0.00000000000E+00  0.20357718386E+04  0.20357718386E+04  0.00000000000E+00 0. -1.
         -2   -1    0    0    0  501 -0.00000000000E+00 -0.00000000000E+00 -0.13207646670E+04  0.13207646670E+04  0.00000000000E+00 0.  1.
         23    2    1    2    0    0  0.68145073756E+03  0.13423609383E+04  0.34204491607E+03  0.15464868950E+04  0.91208527119E+02 0.  0.
        254    2    1    2    0    0 -0.68145073756E+03 -0.13423609383E+04  0.37296225559E+03  0.18100496106E+04  0.93320456078E+03 0.  0.
        -24    2    4    4    0    0 -0.71119735934E+03 -0.65419354161E+03 -0.93899226826E+02  0.97427177568E+03  0.81348351293E+02 0.  0.
         24    2    4    4    0    0  0.29746621788E+02 -0.68816739672E+03  0.46686148242E+03  0.83577783492E+03  0.78139094981E+02 0.  0.
         13    1    3    3    0    0  0.61391303173E+03  0.12203175519E+04  0.33658769748E+03  0.14068956664E+04  0.00000000000E+00 0. -1.
        -13    1    3    3    0    0  0.67537705822E+02  0.12204338640E+03  0.54572185928E+01  0.13959122861E+03  0.00000000000E+00 0.  1.
          4    1    6    6  502    0  0.10959296831E+02 -0.48602986179E+03  0.28696340625E+03  0.56452912172E+03  0.00000000000E+00 0. -1.
          1    1    5    5  503    0 -0.59215424849E+03 -0.50401262819E+03 -0.62988360235E+02  0.78015570043E+03  0.00000000000E+00 0. -1.
         -2    1    5    5    0  503 -0.11904311085E+03 -0.15018091342E+03 -0.30910866592E+02  0.19411607525E+03  0.00000000000E+00 0.  1.
         -3    1    6    6    0  502  0.18787324957E+02 -0.20213753492E+03  0.17989807617E+03  0.27124871320E+03  0.00000000000E+00 0.  1.
<mgrwt>
<rscale>  0 0.32794972E+04</rscale>
<asrwt>0</asrwt>
<pdfrwt beam="1">  1        2 0.31319567E+00 0.32794972E+04</pdfrwt>
<pdfrwt beam="2">  1       -2 0.20319456E+00 0.32794972E+04</pdfrwt>
<totfact> 0.67672133E-01</totfact>
</mgrwt>
</event>
<event>
12    1  0.1397649E-007  0.1515542E+04  0.7818608E-02  0.8874183E-01
          1   -1    0    0  501    0  0.00000000000E+00  0.00000000000E+00  0.16386256856E+04  0.16386256856E+04  0.00000000000E+00 0. -1.
         -1   -1    0    0    0  501 -0.00000000000E+00 -0.00000000000E+00 -0.35042577643E+03  0.35042577643E+03  0.00000000000E+00 0.  1.
         23    2    1    2    0    0  0.16444506680E+03  0.13366427808E+03  0.98797244848E+03  0.10146160392E+04  0.91912070594E+02 0.  0.
        254    2    1    2    0    0 -0.16444506680E+03 -0.13366427808E+03  0.30022746069E+03  0.97443542287E+03  0.90248520540E+03 0.  0.
        -24    2    4    4    0    0 -0.55590572528E+02 -0.50814287879E+03  0.24596071870E+03  0.57285764820E+03  0.79810481394E+02 0.  0.
         24    2    4    4    0    0 -0.10885449427E+03  0.37447860071E+03  0.54266741996E+02  0.40157777467E+03  0.78970288822E+02 0.  0.
         13    1    3    3    0    0  0.15751285050E+03  0.13097105230E+03  0.98581296989E+03  0.10068718519E+04  0.00000000000E+00 0. -1.
        -13    1    3    3    0    0  0.69322162969E+01  0.26932257771E+01  0.21594785887E+01  0.77441872168E+01  0.00000000000E+00 0.  1.
          2    1    6    6  502    0 -0.87676868611E+02  0.17984045357E+03  0.47693651994E+02  0.20568059333E+03  0.00000000000E+00 0. -1.
          3    1    5    5  503    0 -0.40683289012E+02 -0.45393541975E+03  0.19075549218E+03  0.49406492803E+03  0.00000000000E+00 0. -1.
         -4    1    5    5    0  503 -0.14907283515E+02 -0.54207459033E+02  0.55205226517E+02  0.78792720168E+02  0.00000000000E+00 0.  1.
         -1    1    6    6    0  502 -0.21177625658E+02  0.19463814713E+03  0.65730900019E+01  0.19589718135E+03  0.00000000000E+00 0.  1.
<mgrwt>
<rscale>  0 0.15155417E+04</rscale>
<asrwt>0</asrwt>
<pdfrwt beam="1">  1        1 0.25209625E+00 0.15155417E+04</pdfrwt>
<pdfrwt beam="2">  1       -1 0.53911659E-01 0.15155417E+04</pdfrwt>
<totfact> 0.17615484E+01</totfact>
</mgrwt>
</event>
<event>
12    1  0.1397649E-007  0.1070140E+04  0.7818608E-02  0.9234794E-01
          2   -1    0    0  501    0  0.00000000000E+00  0.00000000000E+00  0.16141333034E+04  0.16141333034E+04  0.00000000000E+00 0. -1.
         -2   -1    0    0    0  501 -0.00000000000E+00 -0.00000000000E+00 -0.17737080416E+03  0.17737080416E+03  0.00000000000E+00 0.  1.
         23    2    1    2    0    0 -0.84496839982E+02  0.10359790954E+03  0.18805598644E+03  0.24819212197E+03  0.91444149869E+02 0.  0.
        254    2    1    2    0    0  0.84496839982E+02 -0.10359790954E+03  0.12487065128E+04  0.15433119856E+04  0.89703494187E+03 0.  0.
        -24    2    4    4    0    0 -0.20573887441E+03  0.10088799822E+03  0.13697401118E+00  0.24281648773E+03  0.80330288964E+02 0.  0.
         24    2    4    4    0    0  0.29023571439E+03 -0.20448590776E+03  0.12485695388E+04  0.13004954979E+04  0.79444259679E+02 0.  0.
         13    1    3    3    0    0 -0.79815007936E+02  0.11585219133E+03  0.14037425853E+03  0.19873876870E+03  0.00000000000E+00 0.  1.
        -13    1    3    3    0    0 -0.46818320454E+01 -0.12254281785E+02  0.47681727910E+02  0.49453353272E+02  0.00000000000E+00 0. -1.
          4    1    6    6  502    0  0.24814891399E+03 -0.13495050922E+03  0.95911696174E+03  0.99984742324E+03  0.00000000000E+00 0. -1.
          3    1    5    5  503    0 -0.12720334541E+03  0.87677823602E+02 -0.30523584849E+02  0.15747946236E+03  0.00000000000E+00 0. -1.
         -4    1    5    5    0  503 -0.78535528999E+02  0.13210174614E+02  0.30660558860E+02  0.85337025365E+02  0.00000000000E+00 0.  1.
         -3    1    6    6    0  502  0.42086800396E+02 -0.69535398540E+02  0.28945257705E+03  0.30064807463E+03  0.00000000000E+00 0.  1.
<mgrwt>
<rscale>  0 0.10701404E+04</rscale>
<asrwt>0</asrwt>
<pdfrwt beam="1">  1        2 0.24832819E+00 0.10701404E+04</pdfrwt>
<pdfrwt beam="2">  1       -2 0.27287817E-01 0.10701404E+04</pdfrwt>
<totfact> 0.13308666E+02</totfact>
</mgrwt>
</event>
<event>
12    1  0.1397649E-007  0.1325893E+04  0.7818608E-02  0.9009280E-01
         -2   -1    0    0    0  501 -0.00000000000E+00  0.00000000000E+00  0.29288020249E+03  0.29288020249E+03  0.00000000000E+00 0. -1.
          2   -1    0    0  501    0  0.00000000000E+00 -0.00000000000E+00 -0.15006060415E+04  0.15006060415E+04  0.00000000000E+00 0.  1.
         23    2    1    2    0    0  0.13705810402E+03 -0.75642733901E+02 -0.74654381439E+03  0.76792185993E+03  0.88710591761E+02 0.  0.
        254    2    1    2    0    0 -0.13705810402E+03  0.75642733901E+02 -0.46118202467E+03  0.10255643841E+04  0.90254456898E+03 0.  0.
        -24    2    4    4    0    0 -0.13064112832E+03  0.47769138111E+03 -0.30249913551E+03  0.58588267705E+03  0.80601639489E+02 0.  0.
         24    2    4    4    0    0 -0.64169756988E+01 -0.40204864721E+03 -0.15868288916E+03  0.43968170706E+03  0.80345826952E+02 0.  0.
         13    1    3    3    0    0  0.94168151133E+00 -0.61847492670E+00 -0.19216427680E+03  0.19216757936E+03  0.00000000000E+00 0. -1.
        -13    1    3    3    0    0  0.13611642251E+03 -0.75024258975E+02 -0.55437953758E+03  0.57575428058E+03  0.00000000000E+00 0.  1.
          4    1    6    6  502    0 -0.39947398800E+02 -0.25240075628E+03 -0.83139865710E+02  0.26872695011E+03  0.00000000000E+00 0. -1.
          1    1    5    5  503    0 -0.10658211765E+03  0.42864956250E+03 -0.29400045808E+03  0.53060009855E+03  0.00000000000E+00 0. -1.
         -2    1    5    5    0  503 -0.24059010677E+02  0.49041818611E+02 -0.84986774291E+01  0.55282578498E+02  0.00000000000E+00 0.  1.
         -3    1    6    6    0  502  0.33530423102E+02 -0.14964789093E+03 -0.75543023453E+02  0.17095475695E+03  0.00000000000E+00 0.  1.
<mgrwt>
<rscale>  0 0.13258926E+04</rscale>
<asrwt>0</asrwt>
<pdfrwt beam="1">  1        2 0.23086247E+00 0.13258926E+04</pdfrwt>
<pdfrwt beam="2">  1       -2 0.45058493E-01 0.13258926E+04</pdfrwt>
<totfact> 0.57948893E+01</totfact>
</mgrwt>
</event>
<event>
12    1  0.1397649E-007  0.1183134E+04  0.7818608E-02  0.9127749E-01
          1   -1    0    0  501    0  0.00000000000E+00  0.00000000000E+00  0.15272936098E+04  0.15272936098E+04  0.00000000000E+00 0. -1.
         -1   -1    0    0    0  501 -0.00000000000E+00 -0.00000000000E+00 -0.22913167406E+03  0.22913167406E+03  0.00000000000E+00 0.  1.
         23    2    1    2    0    0 -0.17259972169E+03 -0.15149638609E+03  0.18263168352E+03  0.30727604932E+03  0.91227297103E+02 0.  0.
        254    2    1    2    0    0  0.17259972169E+03  0.15149638609E+03  0.11155302522E+04  0.14491492346E+04  0.89603791294E+03 0.  0.
        -24    2    4    4    0    0  0.27482333804E+03 -0.32282972607E+03  0.47077695277E+03  0.63843330062E+03  0.78862164070E+02 0.  0.
         24    2    4    4    0    0 -0.10222361634E+03  0.47432611216E+03  0.64475329948E+03  0.81071593394E+03  0.78221352195E+02 0.  0.
         11    1    3    3    0    0 -0.12384532943E+03 -0.15219478077E+03  0.16150964289E+03  0.25413831207E+03  0.00000000000E+00 0.  1.
        -11    1    3    3    0    0 -0.48754392260E+02  0.69839468377E+00  0.21122040628E+02  0.53137737250E+02  0.00000000000E+00 0. -1.
          4    1    6    6  502    0 -0.11279929495E+03  0.45948911348E+03  0.61717953260E+03  0.77766606060E+03  0.00000000000E+00 0. -1.
          1    1    5    5  503    0  0.14835633809E+03 -0.18855823777E+03  0.20894239930E+03  0.31815206790E+03  0.00000000000E+00 0. -1.
         -2    1    5    5    0  503  0.12646699994E+03 -0.13427148830E+03  0.26183455347E+03  0.32028123273E+03  0.00000000000E+00 0.  1.
         -3    1    6    6    0  502  0.10575678612E+02  0.14836998687E+02  0.27573766875E+02  0.33049873340E+02  0.00000000000E+00 0.  1.
<mgrwt>
<rscale>  0 0.11831337E+04</rscale>
<asrwt>0</asrwt>
<pdfrwt beam="1">  1        1 0.23496824E+00 0.11831337E+04</pdfrwt>
<pdfrwt beam="2">  1       -1 0.35251028E-01 0.11831337E+04</pdfrwt>
<totfact> 0.47534100E+01</totfact>
</mgrwt>
</event>
<event>
12    1  0.1397649E-007  0.1782666E+04  0.7818608E-02  0.8715572E-01
          1   -1    0    0  501    0  0.00000000000E+00  0.00000000000E+00  0.30630864772E+04  0.30630864772E+04  0.00000000000E+00 0. -1.
         -1   -1    0    0    0  501 -0.00000000000E+00 -0.00000000000E+00 -0.25937051325E+03  0.25937051325E+03  0.00000000000E+00 0.  1.
         23    2    1    2    0    0 -0.23932293845E+03  0.52924861264E+03  0.47679774726E+03  0.75700585943E+03  0.91335735415E+02 0.  0.
        254    2    1    2    0    0  0.23932293845E+03 -0.52924861264E+03  0.23269182167E+04  0.25654511311E+04  0.91083014642E+03 0.  0.
        -24    2    4    4    0    0  0.33419465048E+03 -0.73737987527E+03  0.15377237881E+04  0.17399148557E+04  0.85405572004E+02 0.  0.
         24    2    4    4    0    0 -0.94871712029E+02  0.20813126263E+03  0.78919442865E+03  0.82553627537E+03  0.79768612347E+02 0.  0.
         11    1    3    3    0    0 -0.81852934820E+01  0.59860188642E+01  0.28445840187E+02  0.30199292627E+02  0.00000000000E+00 0. -1.
        -11    1    3    3    0    0 -0.23113764497E+03  0.52326259378E+03  0.44835190708E+03  0.72680656680E+03  0.00000000000E+00 0.  1.
          2    1    6    6  502    0 -0.10301358007E+03  0.16936107797E+03  0.58909079376E+03  0.62154882005E+03  0.00000000000E+00 0. -1.
          3    1    5    5  503    0  0.30238945584E+03 -0.67469481523E+03  0.14489050869E+04  0.16266463745E+04  0.00000000000E+00 0. -1.
         -2    1    5    5    0  503  0.31805194643E+02 -0.62685060042E+02  0.88818701172E+02  0.11326848121E+03  0.00000000000E+00 0.  1.
         -1    1    6    6    0  502  0.81418680376E+01  0.38770184659E+02  0.20010363489E+03  0.20398745532E+03  0.00000000000E+00 0.  1.
<mgrwt>
<rscale>  0 0.17826658E+04</rscale>
<asrwt>0</asrwt>
<pdfrwt beam="1">  1        1 0.47124405E+00 0.17826658E+04</pdfrwt>
<pdfrwt beam="2">  1       -1 0.39903158E-01 0.17826658E+04</pdfrwt>
<totfact> 0.31180450E+00</totfact>
</mgrwt>
</event>
<event>
12    1  0.1397649E-007  0.1222387E+04  0.7818608E-02  0.9093484E-01
          2   -1    0    0  501    0  0.00000000000E+00  0.00000000000E+00  0.98551162446E+03  0.98551162446E+03  0.00000000000E+00 0.  1.
         -2   -1    0    0    0  501 -0.00000000000E+00 -0.00000000000E+00 -0.37904928537E+03  0.37904928537E+03  0.00000000000E+00 0. -1.
         23    2    1    2    0    0  0.58189209468E+02  0.25352292607E+03  0.63256183966E+02  0.28355455656E+03  0.93498575369E+02 0.  0.
        254    2    1    2    0    0 -0.58189209468E+02 -0.25352292607E+03  0.54320615512E+03  0.10810063533E+04  0.89768700041E+03 0.  0.
        -24    2    4    4    0    0 -0.27604499192E+02 -0.50725323612E+03  0.45545348900E+02  0.51601581999E+03  0.78294915189E+02 0.  0.
         24    2    4    4    0    0 -0.30584710276E+02  0.25373031005E+03  0.49766080622E+03  0.56499053328E+03  0.78952706757E+02 0.  0.
         13    1    3    3    0    0  0.60996007435E+02  0.24894631558E+03  0.77957789346E+02  0.26790333683E+03  0.00000000000E+00 0.  1.
        -13    1    3    3    0    0 -0.28067979678E+01  0.45766104882E+01 -0.14701605380E+02  0.15651219733E+02  0.00000000000E+00 0. -1.
          4    1    6    6  502    0 -0.39592933590E+02  0.72913878612E+02  0.11656378668E+03  0.14307742817E+03  0.00000000000E+00 0. -1.
          3    1    5    5  503    0 -0.20968321897E+02 -0.36123519500E+02  0.12877614647E+02  0.43708261727E+02  0.00000000000E+00 0. -1.
         -4    1    5    5    0  503 -0.66361772949E+01 -0.47112971662E+03  0.32667734253E+02  0.47230755826E+03  0.00000000000E+00 0.  1.
         -3    1    6    6    0  502  0.90082233138E+01  0.18081643144E+03  0.38109701954E+03  0.42191310511E+03  0.00000000000E+00 0.  1.
<mgrwt>
<rscale>  0 0.12223870E+04</rscale>
<asrwt>0</asrwt>
<pdfrwt beam="1">  1        2 0.15161717E+00 0.12223870E+04</pdfrwt>
<pdfrwt beam="2">  1       -2 0.58315275E-01 0.12223870E+04</pdfrwt>
<totfact> 0.69754415E+01</totfact>
</mgrwt>
</event>
<event>
12    1  0.1397649E-007  0.1866180E+04  0.7818608E-02  0.8671877E-01
         -2   -1    0    0    0  501 -0.00000000000E+00  0.00000000000E+00  0.42867253572E+03  0.42867253572E+03  0.00000000000E+00 0.  1.
          2   -1    0    0  501    0  0.00000000000E+00 -0.00000000000E+00 -0.20310528923E+04  0.20310528923E+04  0.00000000000E+00 0. -1.
         23    2    1    2    0    0 -0.69985646552E+03  0.16693508782E+03 -0.58821829449E+03  0.93366904127E+03  0.89837190365E+02 0.  0.
        254    2    1    2    0    0  0.69985646552E+03 -0.16693508782E+03 -0.10141620621E+04  0.15260563867E+04  0.88467904433E+03 0.  0.
        -24    2    4    4    0    0 -0.24205961145E+02 -0.89889804947E+02 -0.73062214574E+03  0.74050137980E+03  0.76599399765E+02 0.  0.
         24    2    4    4    0    0  0.72406242667E+03 -0.77045282876E+02 -0.28353991634E+03  0.78555500695E+03  0.80618927423E+02 0.  0.
         11    1    3    3    0    0 -0.39995261076E+03  0.80232018375E+02 -0.27858100885E+03  0.49397028871E+03  0.00000000000E+00 0.  1.
        -11    1    3    3    0    0 -0.29990385476E+03  0.86703069448E+02 -0.30963728563E+03  0.43969875256E+03  0.00000000000E+00 0. -1.
          2    1    6    6  502    0  0.61553689944E+03 -0.69669993216E+02 -0.27067474250E+03  0.67602100467E+03  0.00000000000E+00 0. -1.
          1    1    5    5  503    0 -0.19799333496E+02 -0.10238418318E+03 -0.68827782739E+03  0.69613281940E+03  0.00000000000E+00 0. -1.
         -2    1    5    5    0  503 -0.44066276498E+01  0.12494378237E+02 -0.42344318353E+02  0.44368560395E+02  0.00000000000E+00 0.  1.
         -1    1    6    6    0  502  0.10852552723E+03 -0.73752896601E+01 -0.12865173845E+02  0.10953400229E+03  0.00000000000E+00 0.  1.
<mgrwt>
<rscale>  0 0.18661796E+04</rscale>
<asrwt>0</asrwt>
<pdfrwt beam="1">  1        2 0.31246967E+00 0.18661796E+04</pdfrwt>
<pdfrwt beam="2">  1       -2 0.65949622E-01 0.18661796E+04</pdfrwt>
<totfact> 0.12757427E+01</totfact>
</mgrwt>
</event>
<event>
12    1  0.1397649E-007  0.1299550E+04  0.7818608E-02  0.9029922E-01
          2   -1    0    0  501    0  0.00000000000E+00  0.00000000000E+00  0.20720976338E+04  0.20720976338E+04  0.00000000000E+00 0. -1.
         -2   -1    0    0    0  501 -0.00000000000E+00 -0.00000000000E+00 -0.20375857576E+03  0.20375857576E+03  0.00000000000E+00 0.  1.
         23    2    1    2    0    0 -0.28301851496E+03  0.14104971461E+03  0.31659473610E+03  0.45702536875E+03  0.92980960157E+02 0.  0.
        254    2    1    2    0    0  0.28301851496E+03 -0.14104971461E+03  0.15517443219E+04  0.18188308408E+04  0.89456172788E+03 0.  0.
        -24    2    4    4    0    0  0.78913317006E+02  0.31095707305E+03  0.10815944823E+04  0.11308423129E+04  0.77692339257E+02 0.  0.
         24    2    4    4    0    0  0.20410519796E+03 -0.45200678766E+03  0.47014983966E+03  0.68798852794E+03  0.79487577190E+02 0.  0.
         11    1    3    3    0    0 -0.25906451071E+03  0.91926003370E+02  0.26735677663E+03  0.38346376206E+03  0.00000000000E+00 0.  1.
        -11    1    3    3    0    0 -0.23954004250E+02  0.49123711238E+02  0.49237959472E+02  0.73561606687E+02  0.00000000000E+00 0. -1.
          2    1    6    6  502    0  0.67531524046E+01 -0.76483985160E+02  0.90587733387E+02  0.11874991576E+03  0.00000000000E+00 0. -1.
          3    1    5    5  503    0  0.26778431526E+02  0.22389622748E+03  0.67020164890E+03  0.70711869955E+03  0.00000000000E+00 0. -1.
         -4    1    5    5    0  503  0.52134885480E+02  0.87060845568E+02  0.41139283339E+03  0.42372361331E+03  0.00000000000E+00 0.  1.
         -1    1    6    6    0  502  0.19735204555E+03 -0.37552280250E+03  0.37956210627E+03  0.56923861218E+03  0.00000000000E+00 0.  1.
<mgrwt>
<rscale>  0 0.12995502E+04</rscale>
<asrwt>0</asrwt>
<pdfrwt beam="1">  1        2 0.31878424E+00 0.12995502E+04</pdfrwt>
<pdfrwt beam="2">  1       -2 0.31347475E-01 0.12995502E+04</pdfrwt>
<totfact> 0.56451968E+01</totfact>
</mgrwt>
</event>
<event>
12    1  0.1397649E-007  0.1049709E+04  0.7818608E-02  0.9255645E-01
         -2   -1    0    0    0  501 -0.00000000000E+00  0.00000000000E+00  0.18278234110E+04  0.18278234110E+04  0.00000000000E+00 0.  1.
          2   -1    0    0  501    0  0.00000000000E+00 -0.00000000000E+00 -0.15071051039E+03  0.15071051039E+03  0.00000000000E+00 0. -1.
         23    2    1    2    0    0  0.57654250084E+02  0.42215402875E+02  0.52868624625E+03  0.54050107645E+03  0.86753177889E+02 0.  0.
        254    2    1    2    0    0 -0.57654250084E+02 -0.42215402875E+02  0.11484266543E+04  0.14380328449E+04  0.86252450972E+03 0.  0.
        -24    2    4    4    0    0 -0.39526941246E+02  0.32522131910E+03  0.14603442639E+03  0.36731608194E+03  0.79143950360E+02 0.  0.
         24    2    4    4    0    0 -0.18127308839E+02 -0.36743672197E+03  0.10023922280E+04  0.10707167630E+04  0.79409469794E+02 0.  0.
         11    1    3    3    0    0  0.28429560534E+02  0.26758645259E+02  0.66350213695E+02  0.76984517051E+02  0.00000000000E+00 0. -1.
        -11    1    3    3    0    0  0.29224689551E+02  0.15456757615E+02  0.46233603256E+03  0.46351655940E+03  0.00000000000E+00 0.  1.
          4    1    6    6  502    0 -0.21430497177E+02 -0.29311143701E+03  0.87677754683E+03  0.92472290300E+03  0.00000000000E+00 0. -1.
          1    1    5    5  503    0 -0.12252839681E+02  0.29845220245E+03  0.12633303543E+03  0.32432065162E+03  0.00000000000E+00 0. -1.
         -2    1    5    5    0  503 -0.27274101565E+02  0.26769116650E+02  0.19701390967E+02  0.42995430320E+02  0.00000000000E+00 0.  1.
         -3    1    6    6    0  502  0.33031883383E+01 -0.74325284963E+02  0.12561468113E+03  0.14599385998E+03  0.00000000000E+00 0.  1.
<mgrwt>
<rscale>  0 0.10497089E+04</rscale>
<asrwt>0</asrwt>
<pdfrwt beam="1">  1        2 0.23186234E-01 0.10497089E+04</pdfrwt>
<pdfrwt beam="2">  1       -2 0.28120359E+00 0.10497089E+04</pdfrwt>
<totfact> 0.99678530E+00</totfact>
</mgrwt>
</event>
<event>
12    1  0.1397649E-007  0.1746903E+04  0.7818608E-02  0.8735057E-01
         -2   -1    0    0    0  501 -0.00000000000E+00  0.00000000000E+00  0.39910509779E+03  0.39910509779E+03  0.00000000000E+00 0.  1.
          2   -1    0    0  501    0  0.00000000000E+00 -0.00000000000E+00 -0.19115701865E+04  0.19115701865E+04  0.00000000000E+00 0. -1.
         23    2    1    2    0    0 -0.49724898272E+03  0.25109718253E+03 -0.14340400287E+03  0.58239830346E+03  0.91196107083E+02 0.  0.
        254    2    1    2    0    0  0.49724898272E+03 -0.25109718253E+03 -0.13690610858E+04  0.17282769808E+04  0.89571575837E+03 0.  0.
        -24    2    4    4    0    0  0.16947691939E+03  0.19036953624E+03 -0.10588332489E+04  0.10921058526E+04  0.81267199110E+02 0.  0.
         24    2    4    4    0    0  0.32777206333E+03 -0.44146671877E+03 -0.31022783690E+03  0.63617112824E+03  0.78390078075E+02 0.  0.
         11    1    3    3    0    0 -0.43221421543E+03  0.20961532205E+03 -0.15420778412E+03  0.50450743497E+03  0.00000000000E+00 0.  1.
        -11    1    3    3    0    0 -0.65034767289E+02  0.41481860478E+02  0.10803781248E+02  0.77890868491E+02  0.00000000000E+00 0. -1.
          2    1    6    6  502    0  0.27283307126E+03 -0.39641054478E+03 -0.29174013820E+03  0.56275351000E+03  0.00000000000E+00 0. -1.
          1    1    5    5  503    0  0.13940220678E+03  0.19187589737E+03 -0.95342032750E+03  0.98247628782E+03  0.00000000000E+00 0. -1.
         -4    1    5    5    0  503  0.30074712610E+02 -0.15063611366E+01 -0.10541292144E+03  0.10962956476E+03  0.00000000000E+00 0.  1.
         -1    1    6    6    0  502  0.54938992075E+02 -0.45056173991E+02 -0.18487698700E+02  0.73417618241E+02  0.00000000000E+00 0.  1.
<mgrwt>
<rscale>  0 0.17469029E+04</rscale>
<asrwt>0</asrwt>
<pdfrwt beam="1">  1        2 0.29408773E+00 0.17469029E+04</pdfrwt>
<pdfrwt beam="2">  1       -2 0.61400782E-01 0.17469029E+04</pdfrwt>
<totfact> 0.17492425E+01</totfact>
</mgrwt>
</event>
<event>
12    1  0.1397649E-007  0.2776997E+04  0.7818608E-02  0.8310446E-01
          2   -1    0    0  501    0  0.00000000000E+00  0.00000000000E+00  0.12249373430E+04  0.12249373430E+04  0.00000000000E+00 0. -1.
         -2   -1    0    0    0  501 -0.00000000000E+00 -0.00000000000E+00 -0.15738991172E+04  0.15738991172E+04  0.00000000000E+00 0.  1.
         23    2    1    2    0    0  0.33295054686E+03 -0.10279129691E+04 -0.77861472566E+03  0.13348908985E+04  0.90728612761E+02 0.  0.
        254    2    1    2    0    0 -0.33295054686E+03  0.10279129691E+04  0.42965295148E+03  0.14639455617E+04  0.88942330206E+03 0.  0.
        -24    2    4    4    0    0 -0.30962256348E+03  0.73976891706E+02 -0.13227995080E+03  0.35386699311E+03  0.79907140507E+02 0.  0.
         24    2    4    4    0    0 -0.23327983373E+02  0.95393607738E+03  0.56193290228E+03  0.11100785686E+04  0.77250289646E+02 0.  0.
         13    1    3    3    0    0  0.41852442382E+01 -0.19763740321E+01  0.13964783741E+01  0.48345088166E+01  0.00000000000E+00 0. -1.
        -13    1    3    3    0    0  0.32876530262E+03 -0.10259365951E+04 -0.78001120403E+03  0.13300563897E+04  0.00000000000E+00 0.  1.
          2    1    6    6  502    0  0.19653964258E+01  0.58663120461E+03  0.30561997148E+03  0.66147078543E+03  0.00000000000E+00 0. -1.
          1    1    5    5  503    0 -0.27282536579E+03  0.88420859810E+02 -0.10322390535E+03  0.30480666545E+03  0.00000000000E+00 0. -1.
         -2    1    5    5    0  503 -0.36797197694E+02 -0.14443968104E+02 -0.29056045450E+02  0.49060327658E+02  0.00000000000E+00 0.  1.
         -1    1    6    6    0  502 -0.25293379799E+02  0.36730487277E+03  0.25631293081E+03  0.44860778317E+03  0.00000000000E+00 0.  1.
<mgrwt>
<rscale>  0 0.27769968E+04</rscale>
<asrwt>0</asrwt>
<pdfrwt beam="1">  1        2 0.18845190E+00 0.27769968E+04</pdfrwt>
<pdfrwt beam="2">  1       -2 0.24213833E+00 0.27769968E+04</pdfrwt>
<totfact> 0.11464920E+00</totfact>
</mgrwt>
</event>
<event>
12    1  0.1397649E-007  0.1102686E+04  0.7818608E-02  0.9202578E-01
         -2   -1    0    0    0  501 -0.00000000000E+00  0.00000000000E+00  0.16540844677E+03  0.16540844677E+03  0.00000000000E+00 0.  1.
          2   -1    0    0  501    0  0.00000000000E+00 -0.00000000000E+00 -0.18377468014E+04  0.18377468014E+04  0.00000000000E+00 0. -1.
         23    2    1    2    0    0 -0.15201904242E+03  0.31240150196E+02 -0.35967056257E+03  0.40429358906E+03  0.10002327894E+03 0.  0.
        254    2    1    2    0    0  0.15201904242E+03 -0.31240150196E+02 -0.13126677920E+04  0.15988616591E+04  0.89954218157E+03 0.  0.
        -24    2    4    4    0    0  0.11270513622E+03  0.42338661142E+03 -0.72664572252E+03  0.85156050208E+03  0.71990361759E+02 0.  0.
         24    2    4    4    0    0  0.39313906201E+02 -0.45462676162E+03 -0.58602206950E+03  0.74730115700E+03  0.82498955825E+02 0.  0.
         11    1    3    3    0    0  0.62473760415E+01 -0.75360719980E+01 -0.80146770943E+02  0.80742349366E+02  0.00000000000E+00 0. -1.
        -11    1    3    3    0    0 -0.15826641846E+03  0.38776222194E+02 -0.27952379163E+03  0.32355123969E+03  0.00000000000E+00 0.  1.
          2    1    6    6  502    0  0.81645076485E+01 -0.57898026530E+01 -0.22302881031E+01  0.10254520219E+02  0.00000000000E+00 0. -1.
          1    1    5    5  503    0  0.10939041599E+02  0.11760989591E+03 -0.24582971540E+03  0.27273430151E+03  0.00000000000E+00 0. -1.
         -2    1    5    5    0  503  0.10176609462E+03  0.30577671551E+03 -0.48081600712E+03  0.57882620057E+03  0.00000000000E+00 0.  1.
         -1    1    6    6    0  502  0.31149398553E+02 -0.44883695896E+03 -0.58379178140E+03  0.73704663678E+03  0.00000000000E+00 0.  1.
<mgrwt>
<rscale>  0 0.11026855E+04</rscale>
<asrwt>0</asrwt>
<pdfrwt beam="1">  1        2 0.28273026E+00 0.11026855E+04</pdfrwt>
<pdfrwt beam="2">  1       -2 0.25447455E-01 0.11026855E+04</pdfrwt>
<totfact> 0.11347316E+02</totfact>
</mgrwt>
</event>
<event>
12    1  0.1397649E-007  0.1416826E+04  0.7818608E-02  0.8941728E-01
          2   -1    0    0  501    0  0.00000000000E+00  0.00000000000E+00  0.74116816797E+03  0.74116816797E+03  0.00000000000E+00 0. -1.
         -2   -1    0    0    0  501 -0.00000000000E+00 -0.00000000000E+00 -0.67710545841E+03  0.67710545841E+03  0.00000000000E+00 0.  1.
         23    2    1    2    0    0 -0.14369888571E+03  0.10467939484E+03  0.39233519685E+03  0.44008902942E+03  0.90245784779E+02 0.  0.
        254    2    1    2    0    0  0.14369888571E+03 -0.10467939484E+03 -0.32827248728E+03  0.97818459696E+03  0.90414331517E+03 0.  0.
        -24    2    4    4    0    0 -0.37778588222E+02 -0.35339393910E+03 -0.49909335770E+03  0.61735843802E+03  0.75648948235E+02 0.  0.
         24    2    4    4    0    0  0.18147747394E+03  0.24871454426E+03  0.17082087042E+03  0.36082615894E+03  0.78884403622E+02 0.  0.
         13    1    3    3    0    0 -0.15215324841E+03  0.87493126573E+02  0.31688176534E+03  0.36224261401E+03  0.00000000000E+00 0. -1.
        -13    1    3    3    0    0  0.84543627015E+01  0.17186268270E+02  0.75453431506E+02  0.77846415408E+02  0.00000000000E+00 0.  1.
          4    1    6    6  502    0  0.11773507968E+02  0.71426761341E+02  0.40627620134E+02  0.83012054807E+02  0.00000000000E+00 0. -1.
          3    1    5    5  503    0 -0.39898489784E+01 -0.16718395913E+03 -0.17500821256E+03  0.24206253231E+03  0.00000000000E+00 0. -1.
         -4    1    5    5    0  503 -0.33788739244E+02 -0.18620997998E+03 -0.32408514513E+03  0.37529590570E+03  0.00000000000E+00 0.  1.
         -1    1    6    6    0  502  0.16970396597E+03  0.17728778292E+03  0.13019325028E+03  0.27781410414E+03  0.00000000000E+00 0.  1.
<mgrwt>
<rscale>  0 0.14168260E+04</rscale>
<asrwt>0</asrwt>
<pdfrwt beam="1">  1        2 0.11402587E+00 0.14168260E+04</pdfrwt>
<pdfrwt beam="2">  1       -2 0.10417007E+00 0.14168260E+04</pdfrwt>
<totfact> 0.27740145E+01</totfact>
</mgrwt>
</event>
<event>
12    1  0.1397649E-007  0.1832697E+04  0.7818608E-02  0.8689102E-01
         -1   -1    0    0    0  501 -0.00000000000E+00  0.00000000000E+00  0.42778371454E+03  0.42778371454E+03  0.00000000000E+00 0.  1.
          1   -1    0    0  501    0  0.00000000000E+00 -0.00000000000E+00 -0.19628954911E+04  0.19628954911E+04  0.00000000000E+00 0. -1.
         23    2    1    2    0    0 -0.43464321878E+03 -0.12308025539E+03  0.97633634928E+02  0.47079630973E+03  0.89740524207E+02 0.  0.
        254    2    1    2    0    0  0.43464321878E+03  0.12308025539E+03 -0.16327454115E+04  0.19198828959E+04  0.90334338895E+03 0.  0.
        -24    2    4    4    0    0  0.56811902857E+03 -0.13586115006E+03 -0.14544102718E+04  0.15693405013E+04  0.79390726548E+02 0.  0.
         24    2    4    4    0    0 -0.13347580978E+03  0.25894140545E+03 -0.17833513968E+03  0.35054239464E+03  0.78804220320E+02 0.  0.
         13    1    3    3    0    0 -0.29409704595E+03 -0.11086549026E+03  0.34331547485E+02  0.31616907584E+03  0.00000000000E+00 0. -1.
        -13    1    3    3    0    0 -0.14054617283E+03 -0.12214765138E+02  0.63302087442E+02  0.15462723389E+03  0.00000000000E+00 0.  1.
          2    1    6    6  502    0 -0.11141665406E+03  0.23676588338E+03 -0.12804815000E+03  0.29132127120E+03  0.00000000000E+00 0. -1.
          3    1    5    5  503    0  0.35843274482E+03 -0.12385425926E+03 -0.91391361750E+03  0.98947057074E+03  0.00000000000E+00 0. -1.
         -4    1    5    5    0  503  0.20968628374E+03 -0.12006890794E+02 -0.54049665431E+03  0.57986993053E+03  0.00000000000E+00 0.  1.
         -3    1    6    6    0  502 -0.22059155724E+02  0.22175522071E+02 -0.50286989681E+02  0.59221123440E+02  0.00000000000E+00 0.  1.
<mgrwt>
<rscale>  0 0.18326972E+04</rscale>
<asrwt>0</asrwt>
<pdfrwt beam="1">  1        1 0.30198392E+00 0.18326972E+04</pdfrwt>
<pdfrwt beam="2">  1       -1 0.65812880E-01 0.18326972E+04</pdfrwt>
<totfact> 0.69539531E+00</totfact>
</mgrwt>
</event>
<event>
12    1  0.1397649E-007  0.1001684E+04  0.7818608E-02  0.9306700E-01
         -1   -1    0    0    0  501 -0.00000000000E+00  0.00000000000E+00  0.29039817959E+03  0.29039817959E+03  0.00000000000E+00 0.  1.
          1   -1    0    0  501    0  0.00000000000E+00 -0.00000000000E+00 -0.86378819501E+03  0.86378819501E+03  0.00000000000E+00 0. -1.
         23    2    1    2    0    0  0.31397715747E+02 -0.80146800559E+01 -0.46021863867E+02  0.10927228051E+03  0.93660918658E+02 0.  0.
        254    2    1    2    0    0 -0.31397715747E+02  0.80146800559E+01 -0.52736815155E+03  0.10449140941E+04  0.90148668604E+03 0.  0.
        -24    2    4    4    0    0  0.28024404579E+03 -0.22238699439E+03  0.21809335053E+02  0.36818733950E+03  0.84223330471E+02 0.  0.
         24    2    4    4    0    0 -0.31164176154E+03  0.23040167445E+03 -0.54917748661E+03  0.67672675459E+03  0.78470819193E+02 0.  0.
         11    1    3    3    0    0 -0.20777687235E+01  0.11659209196E+02  0.25373555064E+02  0.28001278159E+02  0.00000000000E+00 0.  1.
        -11    1    3    3    0    0  0.33475484471E+02 -0.19673889252E+02 -0.71395418932E+02  0.81271002352E+02  0.00000000000E+00 0. -1.
          2    1    6    6  502    0 -0.27530880172E+03  0.19681350317E+03 -0.42656722485E+03  0.54450903450E+03  0.00000000000E+00 0. -1.
          1    1    5    5  503    0  0.27956298902E+03 -0.22751933206E+03  0.26204281695E+02  0.36139614783E+03  0.00000000000E+00 0. -1.
         -2    1    5    5    0  503  0.68105676936E+00  0.51323376654E+01 -0.43949466417E+01  0.67911916641E+01  0.00000000000E+00 0.  1.
         -1    1    6    6    0  502 -0.36332959814E+02  0.33588171275E+02 -0.12261026175E+03  0.13221772009E+03  0.00000000000E+00 0.  1.
<mgrwt>
<rscale>  0 0.10016836E+04</rscale>
<asrwt>0</asrwt>
<pdfrwt beam="1">  1        1 0.13289049E+00 0.10016836E+04</pdfrwt>
<pdfrwt beam="2">  1       -1 0.44676643E-01 0.10016836E+04</pdfrwt>
<totfact> 0.96973067E+01</totfact>
</mgrwt>
</event>
<event>
12    1  0.1397649E-007  0.2278394E+04  0.7818608E-02  0.8486489E-01
         -2   -1    0    0    0  501 -0.00000000000E+00  0.00000000000E+00  0.39939988017E+03  0.39939988017E+03  0.00000000000E+00 0.  1.
          2   -1    0    0  501    0  0.00000000000E+00 -0.00000000000E+00 -0.32493000399E+04  0.32493000399E+04  0.00000000000E+00 0. -1.
         23    2    1    2    0    0 -0.76176972934E+03  0.34757055830E+03 -0.45409031669E+03  0.95685116390E+03  0.90927007107E+02 0.  0.
        254    2    1    2    0    0  0.76176972934E+03 -0.34757055830E+03 -0.23958098430E+04  0.26918487562E+04  0.89724384009E+03 0.  0.
        -24    2    4    4    0    0  0.62613842576E+03 -0.56337563803E+03 -0.12162903828E+04  0.14818417100E+04  0.83970950739E+02 0.  0.
         24    2    4    4    0    0  0.13563130358E+03  0.21580507974E+03 -0.11795194603E+04  0.12100070462E+04  0.88787452144E+02 0.  0.
         11    1    3    3    0    0 -0.64041222146E+03  0.26329661577E+03 -0.34798105437E+03  0.77494756950E+03  0.00000000000E+00 0.  1.
        -11    1    3    3    0    0 -0.12135750788E+03  0.84273942522E+02 -0.10610926232E+03  0.18190359440E+03  0.00000000000E+00 0. -1.
          2    1    6    6  502    0  0.87317587468E+02  0.63849148825E+02 -0.40151820761E+03  0.41583403652E+03  0.00000000000E+00 0. -1.
          1    1    5    5  503    0  0.13640572757E+03 -0.12708534838E+03 -0.33340885720E+03  0.38199302919E+03  0.00000000000E+00 0. -1.
         -2    1    5    5    0  503  0.48973269819E+03 -0.43629028966E+03 -0.88288152558E+03  0.10998486808E+04  0.00000000000E+00 0.  1.
         -1    1    6    6    0  502  0.48313716112E+02  0.15195593091E+03 -0.77800125266E+03  0.79417300964E+03  0.00000000000E+00 0.  1.
<mgrwt>
<rscale>  0 0.22783942E+04</rscale>
<asrwt>0</asrwt>
<pdfrwt beam="1">  1        2 0.49989228E+00 0.22783942E+04</pdfrwt>
<pdfrwt beam="2">  1       -2 0.61446139E-01 0.22783942E+04</pdfrwt>
<totfact> 0.26962768E+00</totfact>
</mgrwt>
</event>
<event>
12    1  0.1397649E-007  0.1491280E+04  0.7818608E-02  0.8890273E-01
         -2   -1    0    0    0  501 -0.00000000000E+00  0.00000000000E+00  0.17105828206E+03  0.17105828206E+03  0.00000000000E+00 0.  1.
          2   -1    0    0  501    0  0.00000000000E+00 -0.00000000000E+00 -0.32502308131E+04  0.32502308131E+04  0.00000000000E+00 0. -1.
         23    2    1    2    0    0  0.30073825813E+03  0.12357379537E+03 -0.17841385730E+04  0.18159690771E+04  0.94229817690E+02 0.  0.
        254    2    1    2    0    0 -0.30073825813E+03 -0.12357379537E+03 -0.12950339580E+04  0.16053200180E+04  0.89119325910E+03 0.  0.
        -24    2    4    4    0    0  0.74142317764E+02  0.28883670848E+03 -0.18278254504E+03  0.35868747922E+03  0.79520573015E+02 0.  0.
         24    2    4    4    0    0 -0.37488057589E+03 -0.41241050385E+03 -0.11122514130E+04  0.12466325388E+04  0.79822373304E+02 0.  0.
         13    1    3    3    0    0  0.17403245135E+03  0.44472132656E+02 -0.11825331819E+04  0.11960977347E+04  0.00000000000E+00 0. -1.
        -13    1    3    3    0    0  0.12670580678E+03  0.79101662712E+02 -0.60160539116E+03  0.61987134245E+03  0.00000000000E+00 0.  1.
          2    1    6    6  502    0 -0.30907984659E+03 -0.31778141949E+03 -0.94122050674E+03  0.10403900348E+04  0.00000000000E+00 0. -1.
          1    1    5    5  503    0  0.63849325274E+02  0.27685899848E+03 -0.14772017763E+03  0.32023255964E+03  0.00000000000E+00 0. -1.
         -2    1    5    5    0  503  0.10292992490E+02  0.11977709997E+02 -0.35062367416E+02  0.38454919581E+02  0.00000000000E+00 0.  1.
         -1    1    6    6    0  502 -0.65800729299E+02 -0.94629084356E+02 -0.17103090622E+03  0.20624250402E+03  0.00000000000E+00 0.  1.
<mgrwt>
<rscale>  0 0.14912799E+04</rscale>
<asrwt>0</asrwt>
<pdfrwt beam="1">  1        2 0.50003547E+00 0.14912799E+04</pdfrwt>
<pdfrwt beam="2">  1       -2 0.26316661E-01 0.14912799E+04</pdfrwt>
<totfact> 0.15344631E+01</totfact>
</mgrwt>
</event>
<event>
12    1  0.1397649E-007  0.1575864E+04  0.7818608E-02  0.8835515E-01
         -4   -1    0    0    0  501 -0.00000000000E+00  0.00000000000E+00  0.15293883537E+04  0.15293883537E+04  0.00000000000E+00 0.  1.
          4   -1    0    0  501    0  0.00000000000E+00 -0.00000000000E+00 -0.40593779560E+03  0.40593779560E+03  0.00000000000E+00 0. -1.
         23    2    1    2    0    0 -0.40872922368E+02  0.44230895561E+03  0.39231785498E+02  0.45511815074E+03  0.91025217109E+02 0.  0.
        254    2    1    2    0    0  0.40872922368E+02 -0.44230895561E+03  0.10842187726E+04  0.14802079986E+04  0.90453168222E+03 0.  0.
        -24    2    4    4    0    0  0.16318124973E+03  0.21517281134E+03  0.55950864669E+03  0.62650866587E+03  0.80843822834E+02 0.  0.
         24    2    4    4    0    0 -0.12230832736E+03 -0.65748176695E+03  0.52471012594E+03  0.85369933271E+03  0.78995149176E+02 0.  0.
         11    1    3    3    0    0 -0.14354543522E+02  0.40708464145E+03  0.22496634118E+02  0.40795840079E+03  0.00000000000E+00 0. -1.
        -11    1    3    3    0    0 -0.26518378845E+02  0.35224314155E+02  0.16735151380E+02  0.47159749957E+02  0.00000000000E+00 0.  1.
          2    1    6    6  502    0  0.89318076976E+01 -0.10613139940E+03  0.89641335977E+02  0.13920926781E+03  0.00000000000E+00 0. -1.
          1    1    5    5  503    0  0.23476081016E+02  0.38771205554E+01  0.89254191853E+02  0.92371365731E+02  0.00000000000E+00 0. -1.
         -2    1    5    5    0  503  0.13970516871E+03  0.21129569078E+03  0.47025445483E+03  0.53413730014E+03  0.00000000000E+00 0.  1.
         -1    1    6    6    0  502 -0.13124013506E+03 -0.55135036754E+03  0.43506878996E+03  0.71449006490E+03  0.00000000000E+00 0.  1.
<mgrwt>
<rscale>  0 0.15758636E+04</rscale>
<asrwt>0</asrwt>
<pdfrwt beam="1">  1        4 0.62451970E-01 0.15758636E+04</pdfrwt>
<pdfrwt beam="2">  1       -4 0.23529051E+00 0.15758636E+04</pdfrwt>
<totfact> 0.36105453E-01</totfact>
</mgrwt>
</event>
<event>
12    1  0.1397649E-007  0.4524160E+04  0.7818608E-02  0.7906421E-01
          2   -1    0    0  501    0  0.00000000000E+00  0.00000000000E+00  0.20946835634E+04  0.20946835634E+04  0.00000000000E+00 0. -1.
         -2   -1    0    0    0  501 -0.00000000000E+00 -0.00000000000E+00 -0.24428536919E+04  0.24428536919E+04  0.00000000000E+00 0.  1.
         23    2    1    2    0    0  0.43083569661E+03  0.21164308773E+04 -0.39162945331E+03  0.21969383748E+04  0.90915003897E+02 0.  0.
        254    2    1    2    0    0 -0.43083569661E+03 -0.21164308773E+04  0.43459324730E+02  0.23405988805E+04  0.90089697008E+03 0.  0.
        -24    2    4    4    0    0  0.68644637060E+02  0.14611180447E+02 -0.99132964987E+02  0.14562930702E+03  0.80342874761E+02 0.  0.
         24    2    4    4    0    0 -0.49948033367E+03 -0.21310420578E+04  0.14259228972E+03  0.21949695735E+04  0.82085393747E+02 0.  0.
         13    1    3    3    0    0  0.51969324233E+02  0.19727537869E+03 -0.61569719244E+02  0.21309438290E+03  0.00000000000E+00 0.  1.
        -13    1    3    3    0    0  0.37886637238E+03  0.19191554986E+04 -0.33005973406E+03  0.19838439919E+04  0.00000000000E+00 0. -1.
          2    1    6    6  502    0 -0.47734607573E+03 -0.20884398273E+04  0.14103300115E+03  0.21469351400E+04  0.00000000000E+00 0. -1.
          1    1    5    5  503    0  0.60940922613E+02  0.41384105989E+02 -0.90017369817E+02  0.11631666753E+03  0.00000000000E+00 0. -1.
         -2    1    5    5    0  503  0.77037144462E+01 -0.26772925542E+02 -0.91155951708E+01  0.29312639486E+02  0.00000000000E+00 0.  1.
         -1    1    6    6    0  502 -0.22134257941E+02 -0.42602230499E+02  0.15592885707E+01  0.48034433471E+02  0.00000000000E+00 0.  1.
<mgrwt>
<rscale>  0 0.45241598E+04</rscale>
<asrwt>0</asrwt>
<pdfrwt beam="1">  1        2 0.32225901E+00 0.45241598E+04</pdfrwt>
<pdfrwt beam="2">  1       -2 0.37582364E+00 0.45241598E+04</pdfrwt>
<totfact> 0.47659804E-02</totfact>
</mgrwt>
</event>
<event>
12    1  0.1397649E-007  0.1902737E+04  0.7818608E-02  0.8653495E-01
          1   -1    0    0  501    0  0.00000000000E+00  0.00000000000E+00  0.29851670139E+04  0.29851670139E+04  0.00000000000E+00 0. -1.
         -1   -1    0    0    0  501 -0.00000000000E+00 -0.00000000000E+00 -0.30319973758E+03  0.30319973758E+03  0.00000000000E+00 0.  1.
         23    2    1    2    0    0  0.14657093092E+03  0.22235687920E+03 -0.14243438177E+03  0.31452848241E+03  0.87835036382E+02 0.  0.
        254    2    1    2    0    0 -0.14657093092E+03 -0.22235687920E+03  0.28244016581E+04  0.29738382690E+04  0.89193256740E+03 0.  0.
        -24    2    4    4    0    0  0.27149265234E+03  0.17157010813E+03  0.13446897252E+04  0.13847595129E+04  0.78891630654E+02 0.  0.
         24    2    4    4    0    0 -0.41806358326E+03 -0.39392698733E+03  0.14797119329E+04  0.15890787561E+04  0.75287832829E+02 0.  0.
         11    1    3    3    0    0  0.12522959727E+03  0.21462026707E+03 -0.10291455237E+03  0.26895299991E+03  0.00000000000E+00 0.  1.
        -11    1    3    3    0    0  0.21341333646E+02  0.77366121285E+01 -0.39519829398E+02  0.45575482495E+02  0.00000000000E+00 0. -1.
          4    1    6    6  502    0 -0.29103817430E+02 -0.76911878871E+01  0.10118537954E+03  0.10556830771E+03  0.00000000000E+00 0. -1.
          3    1    5    5  503    0  0.64388254402E+02  0.34508175175E+02  0.46427826134E+03  0.46999038864E+03  0.00000000000E+00 0. -1.
         -4    1    5    5    0  503  0.20710439794E+03  0.13706193295E+03  0.88041146382E+03  0.91476912428E+03  0.00000000000E+00 0.  1.
         -3    1    6    6    0  502 -0.38895976583E+03 -0.38623579945E+03  0.13785265534E+04  0.14835104484E+04  0.00000000000E+00 0.  1.
<mgrwt>
<rscale>  0 0.19027368E+04</rscale>
<asrwt>0</asrwt>
<pdfrwt beam="1">  1        1 0.45925644E+00 0.19027368E+04</pdfrwt>
<pdfrwt beam="2">  1       -1 0.46646116E-01 0.19027368E+04</pdfrwt>
<totfact> 0.26306364E+00</totfact>
</mgrwt>
</event>
<event>
12    1  0.1397649E-007  0.1385323E+04  0.7818608E-02  0.8964512E-01
          1   -1    0    0  501    0  0.00000000000E+00  0.00000000000E+00  0.48125403409E+03  0.48125403409E+03  0.00000000000E+00 0. -1.
         -1   -1    0    0    0  501 -0.00000000000E+00 -0.00000000000E+00 -0.99693667671E+03  0.99693667671E+03  0.00000000000E+00 0.  1.
         23    2    1    2    0    0 -0.32546044948E+03  0.59055982583E+01 -0.37014883093E+03  0.50130961495E+03  0.91333415202E+02 0.  0.
        254    2    1    2    0    0  0.32546044948E+03 -0.59055982583E+01 -0.14553381169E+03  0.97688109586E+03  0.90948183315E+03 0.  0.
        -24    2    4    4    0    0 -0.41454389669E+02  0.40025451741E+03 -0.10232275176E+03  0.42209456807E+03  0.75971927250E+02 0.  0.
         24    2    4    4    0    0  0.36691483915E+03 -0.40616011567E+03 -0.43211059924E+02  0.55478652779E+03  0.79550970836E+02 0.  0.
         11    1    3    3    0    0 -0.14772343804E+03  0.42541446665E+02 -0.13745488475E+03  0.20621792883E+03  0.00000000000E+00 0. -1.
        -11    1    3    3    0    0 -0.17773701144E+03 -0.36635848407E+02 -0.23269394618E+03  0.29509168612E+03  0.00000000000E+00 0.  1.
          4    1    6    6  502    0  0.62491612967E+02 -0.48733338092E+02 -0.31105921574E+02  0.85133532111E+02  0.00000000000E+00 0. -1.
          3    1    5    5  503    0 -0.35749374878E+02  0.98124414100E+02 -0.47247980089E+01  0.10454062446E+03  0.00000000000E+00 0. -1.
         -4    1    5    5    0  503 -0.57050147914E+01  0.30213010331E+03 -0.97597953752E+02  0.31755394361E+03  0.00000000000E+00 0.  1.
         -3    1    6    6    0  502  0.30442322619E+03 -0.35742677758E+03 -0.12105138350E+02  0.46965299568E+03  0.00000000000E+00 0.  1.
<mgrwt>
<rscale>  0 0.13853228E+04</rscale>
<asrwt>0</asrwt>
<pdfrwt beam="1">  1        1 0.74039082E-01 0.13853228E+04</pdfrwt>
<pdfrwt beam="2">  1       -1 0.15337487E+00 0.13853228E+04</pdfrwt>
<totfact> 0.14980323E+01</totfact>
</mgrwt>
</event>
<event>
12    1  0.1397649E-007  0.1635442E+04  0.7818608E-02  0.8799066E-01
          2   -1    0    0  501    0  0.00000000000E+00  0.00000000000E+00  0.43226281227E+03  0.43226281227E+03  0.00000000000E+00 0. -1.
         -2   -1    0    0    0  501 -0.00000000000E+00 -0.00000000000E+00 -0.15469000270E+04  0.15469000270E+04  0.00000000000E+00 0.  1.
         23    2    1    2    0    0 -0.39990796418E+03  0.35083573994E+03 -0.16834352474E+03  0.56785091531E+03  0.10537088528E+03 0.  0.
        254    2    1    2    0    0  0.39990796418E+03 -0.35083573994E+03 -0.94629369000E+03  0.14113119240E+04  0.90184117379E+03 0.  0.
        -24    2    4    4    0    0  0.12949338155E+02 -0.58244539350E+03 -0.54743584698E+03  0.80329698111E+03  0.78674719819E+02 0.  0.
         24    2    4    4    0    0  0.38695862603E+03  0.23160965356E+03 -0.39885784303E+03  0.60801494285E+03  0.84938694971E+02 0.  0.
         11    1    3    3    0    0 -0.27293214900E+03  0.27592996176E+03 -0.80923659909E+02  0.39645673218E+03  0.00000000000E+00 0. -1.
        -11    1    3    3    0    0 -0.12697581518E+03  0.74905778174E+02 -0.87419864832E+02  0.17139418313E+03  0.00000000000E+00 0.  1.
          2    1    6    6  502    0  0.31541791693E+03  0.20920990970E+03 -0.36479527001E+03  0.52567369885E+03  0.00000000000E+00 0. -1.
          3    1    5    5  503    0  0.26104737366E+02 -0.40274115131E+03 -0.33317405717E+03  0.52334199587E+03  0.00000000000E+00 0. -1.
         -4    1    5    5    0  503 -0.13155399211E+02 -0.17970424219E+03 -0.21426178980E+03  0.27995498524E+03  0.00000000000E+00 0.  1.
         -1    1    6    6    0  502  0.71540709096E+02  0.22399743861E+02 -0.34062573014E+02  0.82341243999E+02  0.00000000000E+00 0.  1.
<mgrwt>
<rscale>  0 0.16354417E+04</rscale>
<asrwt>0</asrwt>
<pdfrwt beam="1">  1        2 0.66501970E-01 0.16354417E+04</pdfrwt>
<pdfrwt beam="2">  1       -2 0.23798462E+00 0.16354417E+04</pdfrwt>
<totfact> 0.53079657E+00</totfact>
</mgrwt>
</event>
<event>
12    1  0.1397649E-007  0.2202124E+04  0.7818608E-02  0.8517544E-01
          2   -1    0    0  501    0  0.00000000000E+00  0.00000000000E+00  0.30690828900E+04  0.30690828900E+04  0.00000000000E+00 0. -1.
         -2   -1    0    0    0  501 -0.00000000000E+00 -0.00000000000E+00 -0.39501639633E+03  0.39501639633E+03  0.00000000000E+00 0.  1.
         23    2    1    2    0    0 -0.46157308572E+03 -0.69639754649E+03  0.53832092168E+03  0.99995008866E+03  0.10996139720E+03 0.  0.
        254    2    1    2    0    0  0.46157308572E+03  0.69639754649E+03  0.21357455720E+04  0.24641491977E+04  0.90144487569E+03 0.  0.
        -24    2    4    4    0    0  0.14238659059E+01 -0.19265903152E+03  0.53438428554E+03  0.57372402817E+03  0.80455988286E+02 0.  0.
         24    2    4    4    0    0  0.46014921981E+03  0.88905657801E+03  0.16013612865E+04  0.18904251695E+04  0.84796511468E+02 0.  0.
         13    1    3    3    0    0 -0.13558215579E+03 -0.12408332790E+03  0.12747463789E+03  0.22367158187E+03  0.00000000000E+00 0. -1.
        -13    1    3    3    0    0 -0.32599092992E+03 -0.57231421859E+03  0.41084628379E+03  0.77627850678E+03  0.00000000000E+00 0.  1.
          2    1    6    6  502    0  0.32420572821E+03  0.66191572072E+03  0.12393707026E+04  0.14419713985E+04  0.00000000000E+00 0. -1.
          3    1    5    5  503    0 -0.92709339119E+01 -0.18546685483E+03  0.52724350629E+03  0.55898982046E+03  0.00000000000E+00 0. -1.
         -4    1    5    5    0  503  0.10694799818E+02 -0.71921766842E+01  0.71407792573E+01  0.14734207715E+02  0.00000000000E+00 0.  1.
         -1    1    6    6    0  502  0.13594349160E+03  0.22714085729E+03  0.36199058386E+03  0.44845377104E+03  0.00000000000E+00 0.  1.
<mgrwt>
<rscale>  0 0.22021245E+04</rscale>
<asrwt>0</asrwt>
<pdfrwt beam="1">  1        2 0.47216658E+00 0.22021245E+04</pdfrwt>
<pdfrwt beam="2">  1       -2 0.60771755E-01 0.22021245E+04</pdfrwt>
<totfact> 0.36329503E+00</totfact>
</mgrwt>
</event>
<event>
12    1  0.1397649E-007  0.1515965E+04  0.7818608E-02  0.8873905E-01
          1   -1    0    0  501    0  0.00000000000E+00  0.00000000000E+00  0.15654172041E+04  0.15654172041E+04  0.00000000000E+00 0. -1.
         -1   -1    0    0    0  501 -0.00000000000E+00 -0.00000000000E+00 -0.36701864337E+03  0.36701864337E+03  0.00000000000E+00 0.  1.
         23    2    1    2    0    0  0.36392246984E+03 -0.31685729377E+03  0.36279631480E+03  0.61065643583E+03  0.91880400073E+02 0.  0.
        254    2    1    2    0    0 -0.36392246984E+03  0.31685729377E+03  0.83560224591E+03  0.13217794116E+04  0.90334466896E+03 0.  0.
        -24    2    4    4    0    0 -0.32547833845E+01  0.52429716254E+03  0.69781355227E+03  0.87646134619E+03  0.79640626410E+02 0.  0.
         24    2    4    4    0    0 -0.36066768645E+03 -0.20743986877E+03  0.13778869364E+03  0.44531806543E+03  0.78803401527E+02 0.  0.
         13    1    3    3    0    0  0.16103801164E+02  0.54560625386E+01  0.12859260217E+02  0.21318105068E+02  0.00000000000E+00 0. -1.
        -13    1    3    3    0    0  0.34781866867E+03 -0.32231335631E+03  0.34993705458E+03  0.58933833076E+03  0.00000000000E+00 0.  1.
          2    1    6    6  502    0 -0.31444587555E+03 -0.17350927907E+03  0.14543822588E+03  0.38747123264E+03  0.00000000000E+00 0. -1.
          3    1    5    5  503    0 -0.71499670451E+01  0.52138094723E+03  0.69837846191E+03  0.87156278616E+03  0.00000000000E+00 0. -1.
         -4    1    5    5    0  503  0.38951836606E+01  0.29162153111E+01 -0.56490963793E+00  0.48985600322E+01  0.00000000000E+00 0.  1.
         -1    1    6    6    0  502 -0.46221810900E+02 -0.33930589699E+02 -0.76495322334E+01  0.57846832788E+02  0.00000000000E+00 0.  1.
<mgrwt>
<rscale>  0 0.15159648E+04</rscale>
<asrwt>0</asrwt>
<pdfrwt beam="1">  1        1 0.24083341E+00 0.15159648E+04</pdfrwt>
<pdfrwt beam="2">  1       -1 0.56464407E-01 0.15159648E+04</pdfrwt>
<totfact> 0.18075802E+01</totfact>
</mgrwt>
</event>
<event>
12    1  0.1397649E-007  0.3285257E+04  0.7818608E-02  0.8166657E-01
         -2   -1    0    0    0  501 -0.00000000000E+00  0.00000000000E+00  0.12021346698E+04  0.12021346698E+04  0.00000000000E+00 0.  1.
          2   -1    0    0  501    0  0.00000000000E+00 -0.00000000000E+00 -0.22445308129E+04  0.22445308129E+04  0.00000000000E+00 0. -1.
         23    2    1    2    0    0 -0.36325313807E+03  0.10748771273E+04 -0.15365886039E+04  0.19121658333E+04  0.89218581993E+02 0.  0.
        254    2    1    2    0    0  0.36325313807E+03 -0.10748771273E+04  0.49419246081E+03  0.15344996494E+04  0.90727575988E+03 0.  0.
        -24    2    4    4    0    0  0.40274991533E+03 -0.60902140064E+03  0.70279546745E+03  0.10164898248E+04  0.78838658435E+02 0.  0.
         24    2    4    4    0    0 -0.39496777257E+02 -0.46585572665E+03 -0.20860300665E+03  0.51800982458E+03  0.78977278441E+02 0.  0.
         11    1    3    3    0    0 -0.28566172788E+03  0.88480014060E+03 -0.13097925992E+04  0.16062473547E+04  0.00000000000E+00 0. -1.
        -11    1    3    3    0    0 -0.77591410190E+02  0.19007698670E+03 -0.22679600466E+03  0.30591847858E+03  0.00000000000E+00 0.  1.
          4    1    6    6  502    0  0.14852947785E+01 -0.36293633717E+03 -0.16908808219E+03  0.40039451854E+03  0.00000000000E+00 0. -1.
          3    1    5    5  503    0  0.19920106728E+03 -0.36284891705E+03  0.36984344123E+03  0.55508969801E+03  0.00000000000E+00 0. -1.
         -4    1    5    5    0  503  0.20354884804E+03 -0.24617248360E+03  0.33295202622E+03  0.46140012677E+03  0.00000000000E+00 0.  1.
         -3    1    6    6    0  502 -0.40982072035E+02 -0.10291938948E+03 -0.39514924462E+02  0.11761530604E+03  0.00000000000E+00 0.  1.
<mgrwt>
<rscale>  0 0.32852570E+04</rscale>
<asrwt>0</asrwt>
<pdfrwt beam="1">  1        2 0.34531243E+00 0.32852570E+04</pdfrwt>
<pdfrwt beam="2">  1       -2 0.18494380E+00 0.32852570E+04</pdfrwt>
<totfact> 0.68344197E-01</totfact>
</mgrwt>
</event>
<event>
12    1  0.1397649E-007  0.3896335E+04  0.7818608E-02  0.8025792E-01
         -2   -1    0    0    0  501 -0.00000000000E+00  0.00000000000E+00  0.18192126281E+04  0.18192126281E+04  0.00000000000E+00 0.  1.
          2   -1    0    0  501    0  0.00000000000E+00 -0.00000000000E+00 -0.20862631583E+04  0.20862631583E+04  0.00000000000E+00 0. -1.
         23    2    1    2    0    0 -0.83438263729E+03 -0.16365584400E+04 -0.27562432207E+03  0.18598393865E+04  0.92281437103E+02 0.  0.
        254    2    1    2    0    0  0.83438263729E+03  0.16365584400E+04  0.85737918706E+01  0.20456363999E+04  0.90002047635E+03 0.  0.
        -24    2    4    4    0    0  0.52870153714E+03  0.14759478446E+04 -0.27227570197E+03  0.15932009443E+04  0.78789820776E+02 0.  0.
         24    2    4    4    0    0  0.30568110015E+03  0.16061059541E+03  0.28084949384E+03  0.45243545559E+03  0.81146194796E+02 0.  0.
         13    1    3    3    0    0 -0.26943552479E+03 -0.61483333608E+03 -0.12172966365E+03  0.68222697410E+03  0.00000000000E+00 0. -1.
        -13    1    3    3    0    0 -0.56494711250E+03 -0.10217251039E+04 -0.15389465842E+03  0.11776124124E+04  0.00000000000E+00 0.  1.
          2    1    6    6  502    0  0.17050808344E+02  0.26293921970E+01 -0.34438386064E+01  0.17592719882E+02  0.00000000000E+00 0. -1.
          1    1    5    5  503    0  0.10947894134E+03  0.38253295736E+03 -0.46376434319E+02  0.40058441772E+03  0.00000000000E+00 0. -1.
         -2    1    5    5    0  503  0.41922259580E+03  0.10934148872E+04 -0.22589926765E+03  0.11926165266E+04  0.00000000000E+00 0.  1.
         -1    1    6    6    0  502  0.28863029181E+03  0.15798120322E+03  0.28429333245E+03  0.43484273570E+03  0.00000000000E+00 0.  1.
<mgrwt>
<rscale>  0 0.38963348E+04</rscale>
<asrwt>0</asrwt>
<pdfrwt beam="1">  1        2 0.32096356E+00 0.38963348E+04</pdfrwt>
<pdfrwt beam="2">  1       -2 0.27987887E+00 0.38963348E+04</pdfrwt>
<totfact> 0.20071339E-01</totfact>
</mgrwt>
</event>
<event>
12    1  0.1397649E-007  0.2331272E+04  0.7818608E-02  0.8465692E-01
          1   -1    0    0  501    0  0.00000000000E+00  0.00000000000E+00  0.27058824244E+04  0.27058824244E+04  0.00000000000E+00 0. -1.
         -1   -1    0    0    0  501 -0.00000000000E+00 -0.00000000000E+00 -0.50213086819E+03  0.50213086819E+03  0.00000000000E+00 0.  1.
         23    2    1    2    0    0  0.63787190868E+03 -0.62984477968E+03  0.37750825687E+03  0.97704191234E+03  0.92268066546E+02 0.  0.
        254    2    1    2    0    0 -0.63787190868E+03  0.62984477968E+03  0.18262432993E+04  0.22309713802E+04  0.91568755188E+03 0.  0.
        -24    2    4    4    0    0 -0.65420090293E+03  0.29161460791E+03  0.17234647100E+04  0.18680114295E+04  0.78218880007E+02 0.  0.
         24    2    4    4    0    0  0.16328994249E+02  0.33823017177E+03  0.10277858934E+03  0.36295995073E+03  0.80685824429E+02 0.  0.
         11    1    3    3    0    0  0.13628216959E+03 -0.12880211607E+03  0.12065012372E+03  0.22297817652E+03  0.00000000000E+00 0. -1.
        -11    1    3    3    0    0  0.50158973909E+03 -0.50104266360E+03  0.25685813315E+03  0.75406373582E+03  0.00000000000E+00 0.  1.
          2    1    6    6  502    0  0.25307799773E+02  0.14903334690E+03  0.85564226048E+01  0.15140883588E+03  0.00000000000E+00 0. -1.
          1    1    5    5  503    0 -0.27730815987E+03  0.83062908530E+02  0.71856628954E+03  0.77468495194E+03  0.00000000000E+00 0. -1.
         -2    1    5    5    0  503 -0.37689274306E+03  0.20855169938E+03  0.10048984204E+04  0.10933264775E+04  0.00000000000E+00 0.  1.
         -1    1    6    6    0  502 -0.89788055235E+01  0.18919682487E+03  0.94222166732E+02  0.21155111485E+03  0.00000000000E+00 0.  1.
<mgrwt>
<rscale>  0 0.23312718E+04</rscale>
<asrwt>0</asrwt>
<pdfrwt beam="1">  1        1 0.41628960E+00 0.23312718E+04</pdfrwt>
<pdfrwt beam="2">  1       -1 0.77250904E-01 0.23312718E+04</pdfrwt>
<totfact> 0.14721866E+00</totfact>
</mgrwt>
</event>
<event>
12    1  0.1397649E-007  0.1561378E+04  0.7818608E-02  0.8844633E-01
         -1   -1    0    0    0  501 -0.00000000000E+00  0.00000000000E+00  0.38016687186E+03  0.38016687186E+03  0.00000000000E+00 0.  1.
          1   -1    0    0  501    0  0.00000000000E+00 -0.00000000000E+00 -0.16031779795E+04  0.16031779795E+04  0.00000000000E+00 0. -1.
         23    2    1    2    0    0  0.84737894669E+02 -0.39171880234E+02  0.23382106541E+03  0.26753652799E+03  0.90490641421E+02 0.  0.
        254    2    1    2    0    0 -0.84737894669E+02  0.39171880234E+02 -0.14568321731E+04  0.17158083234E+04  0.90162257910E+03 0.  0.
        -24    2    4    4    0    0 -0.22124642614E+02 -0.10199337785E+03 -0.15236556508E+04  0.15292973062E+04  0.79571097860E+02 0.  0.
         24    2    4    4    0    0 -0.62613252055E+02  0.14116525809E+03  0.66823477711E+02  0.18651101721E+03  0.80454539602E+02 0.  0.
         13    1    3    3    0    0 -0.67032722572E+01 -0.31110490485E+02  0.28874770308E+02  0.42971488658E+02  0.00000000000E+00 0. -1.
        -13    1    3    3    0    0  0.91441166927E+02 -0.80613897495E+01  0.20494629510E+03  0.22456503933E+03  0.00000000000E+00 0.  1.
          2    1    6    6  502    0 -0.77661303839E+02  0.84416393055E+02  0.52096838912E+02  0.12598208664E+03  0.00000000000E+00 0. -1.
          3    1    5    5  503    0  0.22104747819E+02 -0.45288386848E+02 -0.91889032523E+03  0.92027120333E+03  0.00000000000E+00 0. -1.
         -4    1    5    5    0  503 -0.44229390433E+02 -0.56704991006E+02 -0.60476532554E+03  0.60902610286E+03  0.00000000000E+00 0.  1.
         -1    1    6    6    0  502  0.15048051784E+02  0.56748865033E+02  0.14726638799E+02  0.60528930565E+02  0.00000000000E+00 0.  1.
<mgrwt>
<rscale>  0 0.15613778E+04</rscale>
<asrwt>0</asrwt>
<pdfrwt beam="1">  1        1 0.24664277E+00 0.15613778E+04</pdfrwt>
<pdfrwt beam="2">  1       -1 0.58487211E-01 0.15613778E+04</pdfrwt>
<totfact> 0.15831169E+01</totfact>
</mgrwt>
</event>
<event>
12    1  0.1397649E-007  0.1260988E+04  0.7818608E-02  0.9061087E-01
         -2   -1    0    0    0  501 -0.00000000000E+00  0.00000000000E+00  0.52211259455E+03  0.52211259455E+03  0.00000000000E+00 0.  1.
          2   -1    0    0  501    0  0.00000000000E+00 -0.00000000000E+00 -0.76137336320E+03  0.76137336320E+03  0.00000000000E+00 0. -1.
         23    2    1    2    0    0  0.11739378422E+03 -0.29438059360E+03 -0.16019221806E+02  0.32950830055E+03  0.88757367040E+02 0.  0.
        254    2    1    2    0    0 -0.11739378422E+03  0.29438059360E+03 -0.22324154684E+03  0.95397765720E+03  0.87166240468E+03 0.  0.
        -24    2    4    4    0    0 -0.25571841186E+03  0.50950705127E+03 -0.33325661795E+03  0.66509387126E+03  0.79375958075E+02 0.  0.
         24    2    4    4    0    0  0.13832462765E+03 -0.21512645767E+03  0.11001507111E+03  0.28888378594E+03  0.77054724056E+02 0.  0.
         11    1    3    3    0    0  0.66667642995E+02 -0.25787102644E+03 -0.77235722207E+01  0.26646143148E+03  0.00000000000E+00 0.  1.
        -11    1    3    3    0    0  0.50726141220E+02 -0.36509567160E+02 -0.82956495857E+01  0.63046869068E+02  0.00000000000E+00 0. -1.
          4    1    6    6  502    0  0.91605655245E+02 -0.17928698431E+03  0.55995032242E+02  0.20897574608E+03  0.00000000000E+00 0. -1.
          3    1    5    5  503    0 -0.17290119769E+03  0.38719142116E+03 -0.21253961656E+03  0.47432595268E+03  0.00000000000E+00 0. -1.
         -4    1    5    5    0  503 -0.82817214176E+02  0.12231563011E+03 -0.12071700140E+03  0.19076791858E+03  0.00000000000E+00 0.  1.
         -3    1    6    6    0  502  0.46718972403E+02 -0.35839473366E+02  0.54020038872E+02  0.79908039854E+02  0.00000000000E+00 0.  1.
<mgrwt>
<rscale>  0 0.12609879E+04</rscale>
<asrwt>0</asrwt>
<pdfrwt beam="1">  1        2 0.11713436E+00 0.12609879E+04</pdfrwt>
<pdfrwt beam="2">  1       -2 0.80325015E-01 0.12609879E+04</pdfrwt>
<totfact> 0.49522093E+01</totfact>
</mgrwt>
</event>
<event>
12    1  0.1397649E-007  0.1403158E+04  0.7818608E-02  0.8951536E-01
         -2   -1    0    0    0  501 -0.00000000000E+00  0.00000000000E+00  0.56396520002E+03  0.56396520002E+03  0.00000000000E+00 0.  1.
          2   -1    0    0  501    0  0.00000000000E+00 -0.00000000000E+00 -0.87277254040E+03  0.87277254040E+03  0.00000000000E+00 0. -1.
         23    2    1    2    0    0 -0.18801200704E+01 -0.27775639782E+03  0.21475569074E+03  0.36288473556E+03  0.91723351519E+02 0.  0.
        254    2    1    2    0    0  0.18801200704E+01  0.27775639782E+03 -0.52356303111E+03  0.10738530049E+04  0.89548304123E+03 0.  0.
        -24    2    4    4    0    0 -0.31207264317E+03  0.14538488118E+03 -0.61857788954E+03  0.71217929156E+03  0.77682942786E+02 0.  0.
         24    2    4    4    0    0  0.31395276324E+03  0.13237151664E+03  0.95014858431E+02  0.36167371330E+03  0.75442001601E+02 0.  0.
         13    1    3    3    0    0  0.11228141950E+02  0.28397905348E+01  0.95662850086E+01  0.15021630763E+02  0.00000000000E+00 0. -1.
        -13    1    3    3    0    0 -0.13108262020E+02 -0.28059618835E+03  0.20518940573E+03  0.34786310479E+03  0.00000000000E+00 0.  1.
          2    1    6    6  502    0  0.14659739923E+03  0.34360562984E+02  0.70262539077E+02  0.16615736561E+03  0.00000000000E+00 0. -1.
          3    1    5    5  503    0 -0.62028101944E+02  0.31233174763E+02 -0.70077480540E+02  0.98660275265E+02  0.00000000000E+00 0. -1.
         -4    1    5    5    0  503 -0.25004454123E+03  0.11415170641E+03 -0.54850040900E+03  0.61351901629E+03  0.00000000000E+00 0.  1.
         -1    1    6    6    0  502  0.16735536402E+03  0.98010953659E+02  0.24752319353E+02  0.19551634769E+03  0.00000000000E+00 0.  1.
<mgrwt>
<rscale>  0 0.14031584E+04</rscale>
<asrwt>0</asrwt>
<pdfrwt beam="1">  1        2 0.13427270E+00 0.14031584E+04</pdfrwt>
<pdfrwt beam="2">  1       -2 0.86763878E-01 0.14031584E+04</pdfrwt>
<totfact> 0.34249393E+01</totfact>
</mgrwt>
</event>
<event>
12    1  0.1397649E-007  0.1961301E+04  0.7818608E-02  0.8624930E-01
          1   -1    0    0  501    0  0.00000000000E+00  0.00000000000E+00  0.33289996650E+04  0.33289996650E+04  0.00000000000E+00 0. -1.
         -1   -1    0    0    0  501 -0.00000000000E+00 -0.00000000000E+00 -0.28887826353E+03  0.28887826353E+03  0.00000000000E+00 0.  1.
         23    2    1    2    0    0 -0.33322840535E+02 -0.76875140469E+03  0.11359703198E+04  0.13751570620E+04  0.92408029584E+02 0.  0.
        254    2    1    2    0    0  0.33322840535E+02  0.76875140469E+03  0.19041510817E+04  0.22427208665E+04  0.90106404282E+03 0.  0.
        -24    2    4    4    0    0 -0.16055640903E+03  0.41675888242E+03  0.20967773911E+03  0.49966467321E+03  0.78953814457E+02 0.  0.
         24    2    4    4    0    0  0.19387924956E+03  0.35199252227E+03  0.16944733426E+04  0.17430561933E+04  0.74277083481E+02 0.  0.
         13    1    3    3    0    0 -0.11076501781E+02 -0.33711342403E+02  0.88272891048E+02  0.95138040721E+02  0.00000000000E+00 0.  1.
        -13    1    3    3    0    0 -0.22246338754E+02 -0.73504006228E+03  0.10476974287E+04  0.12800190213E+04  0.00000000000E+00 0. -1.
          4    1    6    6  502    0  0.13944131191E+03  0.23548260917E+03  0.12868226698E+04  0.13156019620E+04  0.00000000000E+00 0. -1.
          3    1    5    5  503    0 -0.45663906952E+02  0.14407276780E+03  0.11180646746E+03  0.18799691749E+03  0.00000000000E+00 0. -1.
         -4    1    5    5    0  503 -0.11489250207E+03  0.27268611462E+03  0.97871271651E+02  0.31166775572E+03  0.00000000000E+00 0.  1.
         -3    1    6    6    0  502  0.54437937649E+02  0.11650991310E+03  0.40765067278E+03  0.42745423137E+03  0.00000000000E+00 0.  1.
<mgrwt>
<rscale>  0 0.19613012E+04</rscale>
<asrwt>0</asrwt>
<pdfrwt beam="1">  1        1 0.51215377E+00 0.19613012E+04</pdfrwt>
<pdfrwt beam="2">  1       -1 0.44442812E-01 0.19613012E+04</pdfrwt>
<totfact> 0.15892192E+00</totfact>
</mgrwt>
</event>
<event>
12    1  0.1397649E-007  0.1935666E+04  0.7818608E-02  0.8637304E-01
         -1   -1    0    0    0  501 -0.00000000000E+00  0.00000000000E+00  0.67255156832E+03  0.67255156832E+03  0.00000000000E+00 0.  1.
          1   -1    0    0  501    0  0.00000000000E+00 -0.00000000000E+00 -0.13927564823E+04  0.13927564823E+04  0.00000000000E+00 0. -1.
         23    2    1    2    0    0 -0.50610967722E+03 -0.51705538504E+03 -0.61143280654E+02  0.73198921564E+03  0.92609040999E+02 0.  0.
        254    2    1    2    0    0  0.50610967722E+03  0.51705538504E+03 -0.65906163331E+03  0.13333188350E+04  0.90547424182E+03 0.  0.
        -24    2    4    4    0    0 -0.22539108055E+03 -0.23235442256E+02 -0.82873278636E+02  0.25418743804E+03  0.80014051116E+02 0.  0.
         24    2    4    4    0    0  0.73150075777E+03  0.54029082729E+03 -0.57618835467E+03  0.10791313969E+04  0.74323718208E+02 0.  0.
         13    1    3    3    0    0 -0.50052609391E+03 -0.52107947686E+03 -0.61063875631E+02  0.72510619139E+03  0.00000000000E+00 0.  1.
        -13    1    3    3    0    0 -0.55835833081E+01  0.40240918269E+01 -0.79405022606E-01  0.68830242443E+01  0.00000000000E+00 0. -1.
          2    1    6    6  502    0  0.38469236990E+03  0.32452667232E+03 -0.33885736450E+03  0.60673725284E+03  0.00000000000E+00 0. -1.
          1    1    5    5  503    0  0.31282700573E+01 -0.10696622081E+02 -0.12949170628E+01  0.11219652744E+02  0.00000000000E+00 0. -1.
         -2    1    5    5    0  503 -0.22851935061E+03 -0.12538820174E+02 -0.81578361573E+02  0.24296778530E+03  0.00000000000E+00 0.  1.
         -1    1    6    6    0  502  0.34680838787E+03  0.21576415497E+03 -0.23733099017E+03  0.47239414408E+03  0.00000000000E+00 0.  1.
<mgrwt>
<rscale>  0 0.19356658E+04</rscale>
<asrwt>0</asrwt>
<pdfrwt beam="1">  1        1 0.21427023E+00 0.19356658E+04</pdfrwt>
<pdfrwt beam="2">  1       -1 0.10346947E+00 0.19356658E+04</pdfrwt>
<totfact> 0.63878772E+00</totfact>
</mgrwt>
</event>
<event>
12    1  0.1397649E-007  0.2005649E+04  0.7818608E-02  0.8603984E-01
          1   -1    0    0  501    0  0.00000000000E+00  0.00000000000E+00  0.11096075940E+04  0.11096075940E+04  0.00000000000E+00 0. -1.
         -1   -1    0    0    0  501 -0.00000000000E+00 -0.00000000000E+00 -0.90631790014E+03  0.90631790014E+03  0.00000000000E+00 0.  1.
         23    2    1    2    0    0  0.77711906366E+03  0.14452625250E+03  0.19010382630E+03  0.81799740116E+03  0.90434544116E+02 0.  0.
        254    2    1    2    0    0 -0.77711906366E+03 -0.14452625250E+03  0.13185867519E+02  0.11979280929E+04  0.90003109503E+03 0.  0.
        -24    2    4    4    0    0 -0.58687359283E+03 -0.39417499485E+03 -0.27723818116E+03  0.76266458965E+03  0.70722886590E+02 0.  0.
         24    2    4    4    0    0 -0.19024547083E+03  0.24964874234E+03  0.29042404868E+03  0.43526350330E+03  0.81181004745E+02 0.  0.
         11    1    3    3    0    0  0.14634206456E+03 -0.82116967880E+01  0.32640666410E+02  0.15016272815E+03  0.00000000000E+00 0.  1.
        -11    1    3    3    0    0  0.63077699910E+03  0.15273794929E+03  0.15746315989E+03  0.66783467301E+03  0.00000000000E+00 0. -1.
          2    1    6    6  502    0 -0.17507566852E+03  0.20349321419E+03  0.20803731621E+03  0.33961817217E+03  0.00000000000E+00 0. -1.
          1    1    5    5  503    0 -0.36141890235E+03 -0.27888251218E+03 -0.19512427581E+03  0.49646003020E+03  0.00000000000E+00 0. -1.
         -2    1    5    5    0  503 -0.22545469048E+03 -0.11529248266E+03 -0.82113905346E+02  0.26620455945E+03  0.00000000000E+00 0.  1.
         -1    1    6    6    0  502 -0.15169802304E+02  0.46155528154E+02  0.82386732466E+02  0.95645331133E+02  0.00000000000E+00 0.  1.
<mgrwt>
<rscale>  0 0.20056492E+04</rscale>
<asrwt>0</asrwt>
<pdfrwt beam="1">  1        1 0.17070886E+00 0.20056492E+04</pdfrwt>
<pdfrwt beam="2">  1       -1 0.13943352E+00 0.20056492E+04</pdfrwt>
<totfact> 0.48983057E+00</totfact>
</mgrwt>
</event>
<event>
12    1  0.1397649E-007  0.1937747E+04  0.7818608E-02  0.8636292E-01
          2   -1    0    0  501    0  0.00000000000E+00  0.00000000000E+00  0.20869708581E+04  0.20869708581E+04  0.00000000000E+00 0.  1.
         -2   -1    0    0    0  501 -0.00000000000E+00 -0.00000000000E+00 -0.44979835745E+03  0.44979835745E+03  0.00000000000E+00 0. -1.
         23    2    1    2    0    0  0.14867472995E+03 -0.46982905078E+03 -0.10339550342E+03  0.51194819070E+03  0.92503013759E+02 0.  0.
        254    2    1    2    0    0 -0.14867472995E+03  0.46982905078E+03  0.17405680040E+04  0.20248210248E+04  0.90965910846E+03 0.  0.
        -24    2    4    4    0    0 -0.39539442794E+03  0.56716290579E+03  0.88625383594E+03  0.11268473220E+04  0.79551932534E+02 0.  0.
         24    2    4    4    0    0  0.24671969799E+03 -0.97333855009E+02  0.85431416811E+03  0.89797370286E+03  0.78483020383E+02 0.  0.
         11    1    3    3    0    0  0.41724761952E+02 -0.12471643798E+03  0.13504889146E+02  0.13220260093E+03  0.00000000000E+00 0.  1.
        -11    1    3    3    0    0  0.10694996800E+03 -0.34511261280E+03 -0.11690039257E+03  0.37974558977E+03  0.00000000000E+00 0. -1.
          4    1    6    6  502    0  0.98498411967E+02 -0.46747089332E+01  0.24554608692E+03  0.26460663421E+03  0.00000000000E+00 0. -1.
          3    1    5    5  503    0 -0.15600670482E+03  0.15901409899E+03  0.28101299551E+03  0.35859709881E+03  0.00000000000E+00 0. -1.
         -4    1    5    5    0  503 -0.23938772312E+03  0.40814880680E+03  0.60524084042E+03  0.76825022316E+03  0.00000000000E+00 0.  1.
         -3    1    6    6    0  502  0.14822128603E+03 -0.92659146076E+02  0.60876808119E+03  0.63336706865E+03  0.00000000000E+00 0.  1.
<mgrwt>
<rscale>  0 0.19377472E+04</rscale>
<asrwt>0</asrwt>
<pdfrwt beam="1">  1        2 0.32107244E+00 0.19377472E+04</pdfrwt>
<pdfrwt beam="2">  1       -2 0.69199748E-01 0.19377472E+04</pdfrwt>
<totfact> 0.10634929E+01</totfact>
</mgrwt>
</event>
<event>
12    1  0.1397649E-007  0.3624804E+04  0.7818608E-02  0.8084833E-01
          1   -1    0    0  501    0  0.00000000000E+00  0.00000000000E+00  0.14836754528E+04  0.14836754528E+04  0.00000000000E+00 0. -1.
         -1   -1    0    0    0  501 -0.00000000000E+00 -0.00000000000E+00 -0.22139622846E+04  0.22139622846E+04  0.00000000000E+00 0.  1.
         23    2    1    2    0    0 -0.78378178364E+03 -0.29515880444E+03 -0.18445107277E+04  0.20277534755E+04  0.90176097642E+02 0.  0.
        254    2    1    2    0    0  0.78378178364E+03  0.29515880444E+03  0.11142238960E+04  0.16698842619E+04  0.91955747708E+03 0.  0.
        -24    2    4    4    0    0  0.92350912281E+03  0.39887089137E+03  0.75113439261E+03  0.12579361260E+04  0.78951462199E+02 0.  0.
         24    2    4    4    0    0 -0.13972733917E+03 -0.10371208693E+03  0.36308950337E+03  0.41194813595E+03  0.87105412977E+02 0.  0.
         11    1    3    3    0    0 -0.34885510538E+03 -0.16670355168E+03 -0.92253124064E+03  0.10002768860E+04  0.00000000000E+00 0.  1.
        -11    1    3    3    0    0 -0.43492667825E+03 -0.12845525276E+03 -0.92197948710E+03  0.10274765895E+04  0.00000000000E+00 0. -1.
          4    1    6    6  502    0 -0.23436696081E+02 -0.83942292145E+01  0.76993661528E+01  0.26058051471E+02  0.00000000000E+00 0. -1.
          3    1    5    5  503    0  0.35887160824E+03  0.11567704477E+03  0.29637006139E+03  0.47958859784E+03  0.00000000000E+00 0. -1.
         -4    1    5    5    0  503  0.56463751457E+03  0.28319384660E+03  0.45476433123E+03  0.77834752814E+03  0.00000000000E+00 0.  1.
         -3    1    6    6    0  502 -0.11629064309E+03 -0.95317857711E+02  0.35539013721E+03  0.38589008448E+03  0.00000000000E+00 0.  1.
<mgrwt>
<rscale>  0 0.36248043E+04</rscale>
<asrwt>0</asrwt>
<pdfrwt beam="1">  1        1 0.22825776E+00 0.36248043E+04</pdfrwt>
<pdfrwt beam="2">  1       -1 0.34060958E+00 0.36248043E+04</pdfrwt>
<totfact> 0.97151691E-02</totfact>
</mgrwt>
</event>
<event>
12    1  0.1397649E-007  0.2280055E+04  0.7818608E-02  0.8485827E-01
         -1   -1    0    0    0  501 -0.00000000000E+00  0.00000000000E+00  0.13223526437E+04  0.13223526437E+04  0.00000000000E+00 0.  1.
          1   -1    0    0  501    0  0.00000000000E+00 -0.00000000000E+00 -0.98284129777E+03  0.98284129777E+03  0.00000000000E+00 0. -1.
         23    2    1    2    0    0 -0.65697973403E+03 -0.49575971342E+03 -0.35362884935E+03  0.90029205927E+03  0.89846338397E+02 0.  0.
        254    2    1    2    0    0  0.65697973403E+03  0.49575971342E+03  0.69314019532E+03  0.14049018822E+04  0.90327509870E+03 0.  0.
        -24    2    4    4    0    0  0.67230292018E+03  0.48297710106E+03  0.13742873876E+03  0.84292642781E+03  0.79876203212E+02 0.  0.
         24    2    4    4    0    0 -0.15323186153E+02  0.12782612359E+02  0.55571145656E+03  0.56197545441E+03  0.81258803775E+02 0.  0.
         11    1    3    3    0    0 -0.15116430225E+03 -0.12702734591E+03 -0.45555195853E+02  0.20263728372E+03  0.00000000000E+00 0.  1.
        -11    1    3    3    0    0 -0.50581543177E+03 -0.36873236751E+03 -0.30807365350E+03  0.69765477555E+03  0.00000000000E+00 0. -1.
          4    1    6    6  502    0 -0.15447029784E+02  0.10180888692E+02  0.24218767313E+02  0.30476382887E+02  0.00000000000E+00 0. -1.
          1    1    5    5  503    0  0.95148779562E+02  0.99355576143E+02  0.38738312643E+02  0.14291773028E+03  0.00000000000E+00 0. -1.
         -2    1    5    5    0  503  0.57715414062E+03  0.38362152492E+03  0.98690426112E+02  0.70000869753E+03  0.00000000000E+00 0.  1.
         -3    1    6    6    0  502  0.12384363161E+00  0.26017236676E+01  0.53149268925E+03  0.53149907152E+03  0.00000000000E+00 0.  1.
<mgrwt>
<rscale>  0 0.22800551E+04</rscale>
<asrwt>0</asrwt>
<pdfrwt beam="1">  1        1 0.15120635E+00 0.22800551E+04</pdfrwt>
<pdfrwt beam="2">  1       -1 0.20343887E+00 0.22800551E+04</pdfrwt>
<totfact> 0.20140645E+00</totfact>
</mgrwt>
</event>
<event>
12    1  0.1397649E-007  0.1131228E+04  0.7818608E-02  0.9175278E-01
         -1   -1    0    0    0  501 -0.00000000000E+00  0.00000000000E+00  0.86569531790E+03  0.86569531790E+03  0.00000000000E+00 0.  1.
          1   -1    0    0  501    0  0.00000000000E+00 -0.00000000000E+00 -0.36955197591E+03  0.36955197591E+03  0.00000000000E+00 0. -1.
         23    2    1    2    0    0  0.44887883691E+02  0.76302751205E+02 -0.88190855171E+02  0.15638588463E+03  0.94031303472E+02 0.  0.
        254    2    1    2    0    0 -0.44887883691E+02 -0.76302751205E+02  0.58433419716E+03  0.10788614092E+04  0.90258431977E+03 0.  0.
        -24    2    4    4    0    0  0.19102132385E+03 -0.20182830997E+02 -0.17799314084E+03  0.27493765959E+03  0.83741660145E+02 0.  0.
         24    2    4    4    0    0 -0.23590920754E+03 -0.56119920208E+02  0.76232733800E+03  0.80392374958E+03  0.79673240355E+02 0.  0.
         11    1    3    3    0    0  0.12691018736E+02 -0.20879545074E+02 -0.61596059282E+01  0.25198375032E+02  0.00000000000E+00 0.  1.
        -11    1    3    3    0    0  0.32196864955E+02  0.97182296278E+02 -0.82031249243E+02  0.13118750960E+03  0.00000000000E+00 0. -1.
          2    1    6    6  502    0 -0.23309290216E+03 -0.41140707513E+02  0.73965561734E+03  0.77660497752E+03  0.00000000000E+00 0. -1.
          1    1    5    5  503    0  0.12291743297E+03 -0.15240138112E+02 -0.16352704993E+03  0.20513910694E+03  0.00000000000E+00 0. -1.
         -2    1    5    5    0  503  0.68103890881E+02 -0.49426928850E+01 -0.14466090908E+02  0.69798552651E+02  0.00000000000E+00 0.  1.
         -3    1    6    6    0  502 -0.28163053818E+01 -0.14979212695E+02  0.22671720662E+02  0.27318772057E+02  0.00000000000E+00 0.  1.
<mgrwt>
<rscale>  0 0.11312284E+04</rscale>
<asrwt>0</asrwt>
<pdfrwt beam="1">  1        1 0.56854150E-01 0.11312284E+04</pdfrwt>
<pdfrwt beam="2">  1       -1 0.13318389E+00 0.11312284E+04</pdfrwt>
<totfact> 0.31617811E+01</totfact>
</mgrwt>
</event>
<event>
12    1  0.1397649E-007  0.2438630E+04  0.7818608E-02  0.8425181E-01
         -2   -1    0    0    0  501 -0.00000000000E+00  0.00000000000E+00  0.77629223399E+03  0.77629223399E+03  0.00000000000E+00 0.  1.
          2   -1    0    0  501    0  0.00000000000E+00 -0.00000000000E+00 -0.19151669041E+04  0.19151669041E+04  0.00000000000E+00 0. -1.
         23    2    1    2    0    0  0.94246216759E+03  0.15065840160E+02  0.27482680519E+02  0.94555864391E+03  0.69741913286E+02 0.  0.
        254    2    1    2    0    0 -0.94246216759E+03 -0.15065840160E+02 -0.11663573506E+04  0.17459004942E+04  0.89404538438E+03 0.  0.
        -24    2    4    4    0    0 -0.97837484710E+03 -0.25497139134E+03 -0.76708986001E+03  0.12718580537E+04  0.83476365166E+02 0.  0.
         24    2    4    4    0    0  0.35912679507E+02  0.23990555118E+03 -0.39926749060E+03  0.47404244049E+03  0.80357403538E+02 0.  0.
         11    1    3    3    0    0  0.91053355403E+02 -0.17071249554E+02 -0.64863034164E+01  0.92866642146E+02  0.00000000000E+00 0.  1.
        -11    1    3    3    0    0  0.85140881219E+03  0.32137089714E+02  0.33968983936E+02  0.85269200176E+03  0.00000000000E+00 0. -1.
          2    1    6    6  502    0  0.43409056060E+02  0.56346649313E+02 -0.96169219026E+02  0.11961525707E+03  0.00000000000E+00 0. -1.
          3    1    5    5  503    0 -0.48652449716E+02  0.54534066816E+01 -0.35000979145E+02  0.60181966143E+02  0.00000000000E+00 0. -1.
         -4    1    5    5    0  503 -0.92972239738E+03 -0.26042479802E+03 -0.73208888086E+03  0.12116760875E+04  0.00000000000E+00 0.  1.
         -1    1    6    6    0  502 -0.74963765530E+01  0.18355890186E+03 -0.30309827157E+03  0.35442718342E+03  0.00000000000E+00 0.  1.
<mgrwt>
<rscale>  0 0.24386301E+04</rscale>
<asrwt>0</asrwt>
<pdfrwt beam="1">  1        2 0.29464106E+00 0.24386301E+04</pdfrwt>
<pdfrwt beam="2">  1       -2 0.11942958E+00 0.24386301E+04</pdfrwt>
<totfact> 0.35873197E+00</totfact>
</mgrwt>
</event>
<event>
12    1  0.1397649E-007  0.2103795E+04  0.7818608E-02  0.8559574E-01
         -1   -1    0    0    0  501 -0.00000000000E+00  0.00000000000E+00  0.15610535469E+04  0.15610535469E+04  0.00000000000E+00 0.  1.
          1   -1    0    0  501    0  0.00000000000E+00 -0.00000000000E+00 -0.70880842855E+03  0.70880842855E+03  0.00000000000E+00 0. -1.
         23    2    1    2    0    0  0.15134677238E+03  0.73755780395E+03  0.77705737207E+03  0.10860162756E+04  0.93358618577E+02 0.  0.
        254    2    1    2    0    0 -0.15134677238E+03 -0.73755780395E+03  0.75187746279E+02  0.11838456999E+04  0.91046146772E+03 0.  0.
        -24    2    4    4    0    0  0.14084597333E+03  0.15179184124E+03  0.98137136306E+02  0.24406226897E+03  0.84006799376E+02 0.  0.
         24    2    4    4    0    0 -0.29219274571E+03 -0.88934964519E+03 -0.22949390027E+02  0.93978343089E+03  0.79666997138E+02 0.  0.
         13    1    3    3    0    0  0.50039163272E+02  0.15876296467E+03  0.12432883141E+03  0.20776731007E+03  0.00000000000E+00 0. -1.
        -13    1    3    3    0    0  0.10130760911E+03  0.57879483928E+03  0.65272854065E+03  0.87824896551E+03  0.00000000000E+00 0.  1.
          2    1    6    6  502    0 -0.19692716803E+03 -0.53769841327E+03 -0.47753134584E+02  0.57461313508E+03  0.00000000000E+00 0. -1.
          3    1    5    5  503    0  0.12582297497E+03  0.11582547187E+03  0.10997556869E+03  0.20332630591E+03  0.00000000000E+00 0. -1.
         -4    1    5    5    0  503  0.15022998363E+02  0.35966369365E+02 -0.11838432387E+02  0.40735963060E+02  0.00000000000E+00 0.  1.
         -3    1    6    6    0  502 -0.95265577678E+02 -0.35165123192E+03  0.24803744557E+02  0.36517029581E+03  0.00000000000E+00 0.  1.
<mgrwt>
<rscale>  0 0.21037946E+04</rscale>
<asrwt>0</asrwt>
<pdfrwt beam="1">  1        1 0.10904745E+00 0.21037946E+04</pdfrwt>
<pdfrwt beam="2">  1       -1 0.24016208E+00 0.21037946E+04</pdfrwt>
<totfact> 0.19872602E+00</totfact>
</mgrwt>
</event>
<event>
12    1  0.1397649E-007  0.1669567E+04  0.7818608E-02  0.8778914E-01
         -2   -1    0    0    0  501 -0.00000000000E+00  0.00000000000E+00  0.92754108184E+03  0.92754108184E+03  0.00000000000E+00 0.  1.
          2   -1    0    0  501    0  0.00000000000E+00 -0.00000000000E+00 -0.75130180441E+03  0.75130180441E+03  0.00000000000E+00 0. -1.
         23    2    1    2    0    0  0.25342911555E+03 -0.14618674192E+03 -0.44650428680E+03  0.54163167269E+03  0.91661936546E+02 0.  0.
        254    2    1    2    0    0 -0.25342911555E+03  0.14618674192E+03  0.62274356423E+03  0.11372112136E+04  0.90545177526E+03 0.  0.
        -24    2    4    4    0    0  0.72532322100E+02 -0.10619810889E+02  0.74020111672E+03  0.74813565906E+03  0.80221898615E+02 0.  0.
         24    2    4    4    0    0 -0.32596143765E+03  0.15680655281E+03 -0.11745755249E+03  0.38907555450E+03  0.82124031996E+02 0.  0.
         13    1    3    3    0    0  0.21418329447E+03 -0.14899925853E+03 -0.41910791479E+03  0.49368685106E+03  0.00000000000E+00 0. -1.
        -13    1    3    3    0    0  0.39245821081E+02  0.28125166063E+01 -0.27396372010E+02  0.47944821632E+02  0.00000000000E+00 0.  1.
          2    1    6    6  502    0 -0.13938438755E+02  0.27131826302E+02  0.22885003111E+01  0.30588450550E+02  0.00000000000E+00 0. -1.
          1    1    5    5  503    0  0.70203363303E+02 -0.32137919459E+02  0.67576780670E+03  0.68016430858E+03  0.00000000000E+00 0. -1.
         -2    1    5    5    0  503  0.23289587973E+01  0.21518108570E+02  0.64433310023E+02  0.67971350479E+02  0.00000000000E+00 0.  1.
         -1    1    6    6    0  502 -0.31202299890E+03  0.12967472651E+03 -0.11974605280E+03  0.35848710395E+03  0.00000000000E+00 0.  1.
<mgrwt>
<rscale>  0 0.16695668E+04</rscale>
<asrwt>0</asrwt>
<pdfrwt beam="1">  1        2 0.11558489E+00 0.16695668E+04</pdfrwt>
<pdfrwt beam="2">  1       -2 0.14269863E+00 0.16695668E+04</pdfrwt>
<totfact> 0.12189915E+01</totfact>
</mgrwt>
</event>
<event>
12    1  0.1397649E-007  0.1451539E+04  0.7818608E-02  0.8917334E-01
         -2   -1    0    0    0  501 -0.00000000000E+00  0.00000000000E+00  0.29638620181E+03  0.29638620181E+03  0.00000000000E+00 0. -1.
          2   -1    0    0  501    0  0.00000000000E+00 -0.00000000000E+00 -0.17772129707E+04  0.17772129707E+04  0.00000000000E+00 0.  1.
         23    2    1    2    0    0 -0.26033415356E+03  0.35434150201E+03 -0.43016435432E+03  0.62156060240E+03  0.89243706599E+02 0.  0.
        254    2    1    2    0    0  0.26033415356E+03 -0.35434150201E+03 -0.10506624146E+04  0.14520385701E+04  0.90066238301E+03 0.  0.
        -24    2    4    4    0    0 -0.20026027633E+03 -0.47260037876E+02  0.42034857024E+02  0.22466595486E+03  0.79813361118E+02 0.  0.
         24    2    4    4    0    0  0.46059442990E+03 -0.30708146413E+03 -0.10926972716E+04  0.12273726152E+04  0.77523898713E+02 0.  0.
         13    1    3    3    0    0 -0.11957812014E+02  0.61622114686E+02 -0.41385271627E+02  0.75186534660E+02  0.00000000000E+00 0.  1.
        -13    1    3    3    0    0 -0.24837634155E+03  0.29271938732E+03 -0.38877908269E+03  0.54637406774E+03  0.00000000000E+00 0. -1.
          4    1    6    6  502    0  0.21404590321E+03 -0.99149804710E+02 -0.43465313628E+03  0.49453986830E+03  0.00000000000E+00 0. -1.
          3    1    5    5  503    0 -0.17867172892E+03 -0.35449107631E+02  0.75623738528E+01  0.18231131464E+03  0.00000000000E+00 0. -1.
         -4    1    5    5    0  503 -0.21588547413E+02 -0.11810930245E+02  0.34472483171E+02  0.42354640226E+02  0.00000000000E+00 0.  1.
         -3    1    6    6    0  502  0.24654852669E+03 -0.20793165942E+03 -0.65804413529E+03  0.73283274694E+03  0.00000000000E+00 0.  1.
<mgrwt>
<rscale>  0 0.14515390E+04</rscale>
<asrwt>0</asrwt>
<pdfrwt beam="1">  1        2 0.27341739E+00 0.14515390E+04</pdfrwt>
<pdfrwt beam="2">  1       -2 0.45597876E-01 0.14515390E+04</pdfrwt>
<totfact> 0.39287983E+01</totfact>
</mgrwt>
</event>
<event>
12    1  0.1397649E-007  0.1914441E+04  0.7818608E-02  0.8647702E-01
         -2   -1    0    0    0  501 -0.00000000000E+00  0.00000000000E+00  0.21552231198E+03  0.21552231198E+03  0.00000000000E+00 0.  1.
          2   -1    0    0  501    0  0.00000000000E+00 -0.00000000000E+00 -0.42513960035E+04  0.42513960035E+04  0.00000000000E+00 0. -1.
         23    2    1    2    0    0 -0.37412414083E+03 -0.32921303272E+03 -0.28616012254E+04  0.29061627865E+04  0.93115385685E+02 0.  0.
        254    2    1    2    0    0  0.37412414083E+03  0.32921303272E+03 -0.11742724662E+04  0.15607555290E+04  0.89927298568E+03 0.  0.
        -24    2    4    4    0    0  0.11806600210E+03  0.17741950392E+03 -0.12273283149E+04  0.12482002595E+04  0.79068539932E+02 0.  0.
         24    2    4    4    0    0  0.25605813873E+03  0.15179352880E+03  0.53055848732E+02  0.31255526949E+03  0.79175928208E+02 0.  0.
         13    1    3    3    0    0 -0.65655907970E+02 -0.10518727860E+03 -0.81097243043E+03  0.82039706530E+03  0.00000000000E+00 0. -1.
        -13    1    3    3    0    0 -0.30846823286E+03 -0.22402575413E+03 -0.20506287949E+04  0.20857657212E+04  0.00000000000E+00 0.  1.
          4    1    6    6  502    0  0.57005578742E+02  0.38127376552E+02  0.47212156613E+02  0.83260558385E+02  0.00000000000E+00 0. -1.
          3    1    5    5  503    0  0.12125125289E+03  0.12337496910E+03 -0.95580279354E+03  0.97133013413E+03  0.00000000000E+00 0. -1.
         -4    1    5    5    0  503 -0.31852507905E+01  0.54044534819E+02 -0.27152552136E+03  0.27687012536E+03  0.00000000000E+00 0.  1.
         -3    1    6    6    0  502  0.19905255999E+03  0.11366615225E+03  0.58436921190E+01  0.22929471111E+03  0.00000000000E+00 0.  1.
<mgrwt>
<rscale>  0 0.19144406E+04</rscale>
<asrwt>0</asrwt>
<pdfrwt beam="1">  1        2 0.65406086E+00 0.19144406E+04</pdfrwt>
<pdfrwt beam="2">  1       -2 0.33157282E-01 0.19144406E+04</pdfrwt>
<totfact> 0.16913551E+00</totfact>
</mgrwt>
</event>
<event>
12    1  0.1397649E-007  0.3216033E+04  0.7818608E-02  0.8184596E-01
          1   -1    0    0  501    0  0.00000000000E+00  0.00000000000E+00  0.17846666726E+04  0.17846666726E+04  0.00000000000E+00 0. -1.
         -1   -1    0    0    0  501 -0.00000000000E+00 -0.00000000000E+00 -0.14488515320E+04  0.14488515320E+04  0.00000000000E+00 0.  1.
         23    2    1    2    0    0 -0.43483983317E+03 -0.14585147168E+02 -0.12614032669E+04  0.13371470312E+04  0.86750067283E+02 0.  0.
        254    2    1    2    0    0  0.43483983317E+03  0.14585147168E+02  0.15972184075E+04  0.18963711735E+04  0.92510463152E+03 0.  0.
        -24    2    4    4    0    0 -0.97727361572E+01  0.23854911429E+03  0.33294679642E+02  0.25322555439E+03  0.77546498335E+02 0.  0.
         24    2    4    4    0    0  0.44461256933E+03 -0.22396396712E+03  0.15639237279E+04  0.16431456191E+04  0.78929738049E+02 0.  0.
         11    1    3    3    0    0 -0.41901025653E+03 -0.16157218541E+01 -0.11517838658E+04  0.12256338275E+04  0.00000000000E+00 0.  1.
        -11    1    3    3    0    0 -0.15829576641E+02 -0.12969425314E+02 -0.10961940116E+03  0.11151320371E+03  0.00000000000E+00 0. -1.
          2    1    6    6  502    0  0.32413872882E+03 -0.17771327885E+03  0.12561557895E+04  0.13094179213E+04  0.00000000000E+00 0. -1.
          3    1    5    5  503    0  0.83260224981E+01  0.23132119309E+03  0.29128584677E+02  0.23329657406E+03  0.00000000000E+00 0. -1.
         -4    1    5    5    0  503 -0.18098758655E+02  0.72279211982E+01  0.41660949643E+01  0.19928980329E+02  0.00000000000E+00 0.  1.
         -1    1    6    6    0  502  0.12047384051E+03 -0.46250688272E+02  0.30776793837E+03  0.33372769784E+03  0.00000000000E+00 0.  1.
<mgrwt>
<rscale>  0 0.32160330E+04</rscale>
<asrwt>0</asrwt>
<pdfrwt beam="1">  1        1 0.27456410E+00 0.32160330E+04</pdfrwt>
<pdfrwt beam="2">  1       -1 0.22290023E+00 0.32160330E+04</pdfrwt>
<totfact> 0.36695711E-01</totfact>
</mgrwt>
</event>
<event>
12    1  0.1397649E-007  0.2865513E+04  0.7818608E-02  0.8283213E-01
         -2   -1    0    0    0  501 -0.00000000000E+00  0.00000000000E+00  0.11082852661E+04  0.11082852661E+04  0.00000000000E+00 0.  1.
          2   -1    0    0  501    0  0.00000000000E+00 -0.00000000000E+00 -0.18522228733E+04  0.18522228733E+04  0.00000000000E+00 0. -1.
         23    2    1    2    0    0 -0.39436070330E+03  0.22713099434E+03  0.91189847837E+03  0.10232552030E+04  0.91561579273E+02 0.  0.
        254    2    1    2    0    0  0.39436070330E+03 -0.22713099434E+03 -0.16558360856E+04  0.19372529364E+04  0.89668664771E+03 0.  0.
        -24    2    4    4    0    0 -0.12688136214E+03  0.13047869894E+03 -0.43549880946E+02  0.20355893190E+03  0.80100410032E+02 0.  0.
         24    2    4    4    0    0  0.52124206544E+03 -0.35760969328E+03 -0.16122862047E+04  0.17336940045E+04  0.81548218207E+02 0.  0.
         13    1    3    3    0    0 -0.32287842664E+03  0.19510256996E+03  0.66893767432E+03  0.76797988471E+03  0.00000000000E+00 0.  1.
        -13    1    3    3    0    0 -0.71482276660E+02  0.32028424384E+02  0.24296080404E+03  0.25527531833E+03  0.00000000000E+00 0. -1.
          2    1    6    6  502    0  0.24950116334E+03 -0.15101200063E+03 -0.84459036352E+03  0.89352578977E+03  0.00000000000E+00 0. -1.
          3    1    5    5  503    0 -0.52041159416E+02  0.91599031984E+02  0.63925667825E+01  0.10554397114E+03  0.00000000000E+00 0. -1.
         -2    1    5    5    0  503 -0.74840202729E+02  0.38879666958E+02 -0.49942447728E+02  0.98014960758E+02  0.00000000000E+00 0.  1.
         -1    1    6    6    0  502  0.27174090211E+03 -0.20659769265E+03 -0.76769584114E+03  0.84016821470E+03  0.00000000000E+00 0.  1.
<mgrwt>
<rscale>  0 0.28655131E+04</rscale>
<asrwt>0</asrwt>
<pdfrwt beam="1">  1        2 0.28495736E+00 0.28655131E+04</pdfrwt>
<pdfrwt beam="2">  1       -2 0.17050543E+00 0.28655131E+04</pdfrwt>
<totfact> 0.14768677E+00</totfact>
</mgrwt>
</event>
<event>
12    1  0.1397649E-007  0.1186241E+04  0.7818608E-02  0.9124986E-01
          2   -1    0    0  501    0  0.00000000000E+00  0.00000000000E+00  0.11072788823E+04  0.11072788823E+04  0.00000000000E+00 0. -1.
         -2   -1    0    0    0  501 -0.00000000000E+00 -0.00000000000E+00 -0.31770852268E+03  0.31770852268E+03  0.00000000000E+00 0.  1.
         23    2    1    2    0    0  0.14545102833E+02 -0.16779021246E+03 -0.50548558382E+02  0.19750838638E+03  0.89940483232E+02 0.  0.
        254    2    1    2    0    0 -0.14545102833E+02  0.16779021246E+03  0.84011891797E+03  0.12274790186E+04  0.87894244934E+03 0.  0.
        -24    2    4    4    0    0  0.96030475471E+02  0.10000707293E+03 -0.15370951624E+03  0.22144236636E+03  0.78656464332E+02 0.  0.
         24    2    4    4    0    0 -0.11057557830E+03  0.67783139532E+02  0.99382843421E+03  0.10060366522E+04  0.87139407822E+02 0.  0.
         13    1    3    3    0    0  0.35547036410E+02 -0.32824185530E+02  0.77430442364E+01  0.48999731502E+02  0.00000000000E+00 0. -1.
        -13    1    3    3    0    0 -0.21001933577E+02 -0.13496602693E+03 -0.58291602618E+02  0.14850865488E+03  0.00000000000E+00 0.  1.
          4    1    6    6  502    0 -0.14418880171E+02 -0.18814360668E+02  0.93583104183E+02  0.96538498337E+02  0.00000000000E+00 0. -1.
          3    1    5    5  503    0  0.28283276759E+02  0.13486238420E+02  0.13840691298E+01  0.31364598169E+02  0.00000000000E+00 0. -1.
         -4    1    5    5    0  503  0.67747198713E+02  0.86520834507E+02 -0.15509358537E+03  0.19007776819E+03  0.00000000000E+00 0.  1.
         -3    1    6    6    0  502 -0.96156698133E+02  0.86597500200E+02  0.90024533003E+03  0.90949815386E+03  0.00000000000E+00 0.  1.
<mgrwt>
<rscale>  0 0.11862410E+04</rscale>
<asrwt>0</asrwt>
<pdfrwt beam="1">  1        2 0.17035060E+00 0.11862410E+04</pdfrwt>
<pdfrwt beam="2">  1       -2 0.48878235E-01 0.11862410E+04</pdfrwt>
<totfact> 0.84376548E+01</totfact>
</mgrwt>
</event>
<event>
12    1  0.1397649E-007  0.1191727E+04  0.7818608E-02  0.9120129E-01
          2   -1    0    0  501    0  0.00000000000E+00  0.00000000000E+00  0.32197763017E+04  0.32197763017E+04  0.00000000000E+00 0. -1.
         -2   -1    0    0    0  501 -0.00000000000E+00 -0.00000000000E+00 -0.11027272137E+03  0.11027272137E+03  0.00000000000E+00 0.  1.
         23    2    1    2    0    0  0.18669441563E+03 -0.83315138356E+02  0.61589782384E+03  0.65570588928E+03  0.93935439151E+02 0.  0.
        254    2    1    2    0    0 -0.18669441563E+03  0.83315138356E+02  0.24936057565E+04  0.26743431338E+04  0.94458737620E+03 0.  0.
        -24    2    4    4    0    0 -0.25928262127E+03 -0.13265587818E+02  0.25151939963E+04  0.25298427057E+04  0.80621477520E+02 0.  0.
         24    2    4    4    0    0  0.72588205640E+02  0.96580726174E+02 -0.21588239819E+02  0.14450042815E+03  0.76272127086E+02 0.  0.
         13    1    3    3    0    0  0.36846408557E+02 -0.43299180956E+02  0.28020530125E+03  0.28591517579E+03  0.00000000000E+00 0.  1.
        -13    1    3    3    0    0  0.14984800707E+03 -0.40015957400E+02  0.33569252258E+03  0.36979071349E+03  0.00000000000E+00 0. -1.
          4    1    6    6  502    0 -0.49169795047E+01  0.53088856762E+02 -0.14982567328E+02  0.55381230787E+02  0.00000000000E+00 0. -1.
          1    1    5    5  503    0 -0.14114327388E+02  0.32970424138E+01  0.41197411856E+02  0.43672777218E+02  0.00000000000E+00 0. -1.
         -2    1    5    5    0  503 -0.24516829388E+03 -0.16562630232E+02  0.24739965845E+04  0.24861699284E+04  0.00000000000E+00 0.  1.
         -1    1    6    6    0  502  0.77505185144E+02  0.43491869412E+02 -0.66056724904E+01  0.89119197361E+02  0.00000000000E+00 0.  1.
<mgrwt>
<rscale>  0 0.11917273E+04</rscale>
<asrwt>0</asrwt>
<pdfrwt beam="1">  1        2 0.49535013E+00 0.11917273E+04</pdfrwt>
<pdfrwt beam="2">  1       -2 0.16965037E-01 0.11917273E+04</pdfrwt>
<totfact> 0.36059846E+01</totfact>
</mgrwt>
</event>
<event>
12    1  0.1397649E-007  0.1589283E+04  0.7818608E-02  0.8827159E-01
         -1   -1    0    0    0  501 -0.00000000000E+00  0.00000000000E+00  0.84748702467E+03  0.84748702467E+03  0.00000000000E+00 0.  1.
          1   -1    0    0  501    0  0.00000000000E+00 -0.00000000000E+00 -0.74509127028E+03  0.74509127028E+03  0.00000000000E+00 0. -1.
         23    2    1    2    0    0  0.21539176933E+03  0.63558329516E+02 -0.45119679877E+03  0.51291654033E+03  0.95244687962E+02 0.  0.
        254    2    1    2    0    0 -0.21539176933E+03 -0.63558329516E+02  0.55359255316E+03  0.10796617546E+04  0.89931724876E+03 0.  0.
        -24    2    4    4    0    0 -0.29180714830E+03  0.22437059051E+02  0.76679299194E+03  0.82524677130E+03  0.86057583268E+02 0.  0.
         24    2    4    4    0    0  0.76415378966E+02 -0.85995388567E+02 -0.21320043878E+03  0.25441498332E+03  0.77704823803E+02 0.  0.
         13    1    3    3    0    0  0.12123611546E+03  0.63497751514E+02 -0.34409020373E+03  0.37030828838E+03  0.00000000000E+00 0. -1.
        -13    1    3    3    0    0  0.94155653868E+02  0.60578002095E-01 -0.10710659503E+03  0.14260825195E+03  0.00000000000E+00 0.  1.
          2    1    6    6  502    0 -0.60668008393E+01 -0.46783392124E+02 -0.64564888945E+02  0.79963221143E+02  0.00000000000E+00 0. -1.
          3    1    5    5  503    0 -0.41669929344E+02  0.34632842131E+02  0.15408644208E+03  0.16333538624E+03  0.00000000000E+00 0. -1.
         -4    1    5    5    0  503 -0.25013721895E+03 -0.12195783080E+02  0.61270654986E+03  0.66191138506E+03  0.00000000000E+00 0.  1.
         -1    1    6    6    0  502  0.82482179806E+02 -0.39211996443E+02 -0.14863554983E+03  0.17445176217E+03  0.00000000000E+00 0.  1.
<mgrwt>
<rscale>  0 0.15892831E+04</rscale>
<asrwt>0</asrwt>
<pdfrwt beam="1">  1        1 0.11462943E+00 0.15892831E+04</pdfrwt>
<pdfrwt beam="2">  1       -1 0.13038262E+00 0.15892831E+04</pdfrwt>
<totfact> 0.11965327E+01</totfact>
</mgrwt>
</event>
<event>
12    1  0.1397649E-007  0.2438030E+04  0.7818608E-02  0.8425401E-01
          2   -1    0    0  501    0  0.00000000000E+00  0.00000000000E+00  0.11780511589E+04  0.11780511589E+04  0.00000000000E+00 0. -1.
         -2   -1    0    0    0  501 -0.00000000000E+00 -0.00000000000E+00 -0.12614035372E+04  0.12614035372E+04  0.00000000000E+00 0.  1.
         23    2    1    2    0    0 -0.25642380460E+03 -0.25919087427E+03  0.94650634777E+03  0.10184541577E+04  0.91877789013E+02 0.  0.
        254    2    1    2    0    0  0.25642380460E+03  0.25919087427E+03 -0.10298587260E+04  0.14210005384E+04  0.90868061363E+03 0.  0.
        -24    2    4    4    0    0  0.57148188239E+03  0.28139643678E+03 -0.78080440842E+03  0.10108827945E+04  0.80330589019E+02 0.  0.
         24    2    4    4    0    0 -0.31505807779E+03 -0.22205562512E+02 -0.24905431760E+03  0.41011774383E+03  0.80086398978E+02 0.  0.
         13    1    3    3    0    0 -0.18686967908E+03 -0.22889192904E+03  0.81103516863E+03  0.86318586463E+03  0.00000000000E+00 0. -1.
        -13    1    3    3    0    0 -0.69554125512E+02 -0.30298945224E+02  0.13547117914E+03  0.15526829308E+03  0.00000000000E+00 0.  1.
          2    1    6    6  502    0 -0.45343409386E+02  0.19778466997E-01 -0.77208377296E+02  0.89538587718E+02  0.00000000000E+00 0. -1.
          1    1    5    5  503    0  0.24000508924E+03  0.14705027142E+03 -0.29653992608E+03  0.40885468438E+03  0.00000000000E+00 0. -1.
         -2    1    5    5    0  503  0.33147679315E+03  0.13434616536E+03 -0.48426448234E+03  0.60202811014E+03  0.00000000000E+00 0.  1.
         -1    1    6    6    0  502 -0.26971466840E+03 -0.22225340979E+02 -0.17184594030E+03  0.32057915611E+03  0.00000000000E+00 0.  1.
<mgrwt>
<rscale>  0 0.24380303E+04</rscale>
<asrwt>0</asrwt>
<pdfrwt beam="1">  1        2 0.18123864E+00 0.24380303E+04</pdfrwt>
<pdfrwt beam="2">  1       -2 0.19406208E+00 0.24380303E+04</pdfrwt>
<totfact> 0.25481753E+00</totfact>
</mgrwt>
</event>
<event>
12    1  0.1397649E-007  0.1209533E+04  0.7818608E-02  0.9104553E-01
         -2   -1    0    0    0  501 -0.00000000000E+00  0.00000000000E+00  0.17852477792E+03  0.17852477792E+03  0.00000000000E+00 0.  1.
          2   -1    0    0  501    0  0.00000000000E+00 -0.00000000000E+00 -0.20486937410E+04  0.20486937410E+04  0.00000000000E+00 0. -1.
         23    2    1    2    0    0  0.12857010389E+03  0.10855379776E+03 -0.55543766868E+02  0.19961755249E+03  0.91912233154E+02 0.  0.
        254    2    1    2    0    0 -0.12857010389E+03 -0.10855379776E+03 -0.18146251963E+04  0.20276009665E+04  0.88881205984E+03 0.  0.
        -24    2    4    4    0    0 -0.55731400514E+01  0.34216046220E+03 -0.38346070702E+03  0.52005888722E+03  0.79462510452E+02 0.  0.
         24    2    4    4    0    0 -0.12299696384E+03 -0.45071425997E+03 -0.14311644892E+04  0.15075420792E+04  0.78611247286E+02 0.  0.
         13    1    3    3    0    0  0.98965125990E+02  0.97780741636E+02 -0.79321827833E+02  0.16014718845E+03  0.00000000000E+00 0.  1.
        -13    1    3    3    0    0  0.29604977898E+02  0.10773056128E+02  0.23778060966E+02  0.39470364047E+02  0.00000000000E+00 0. -1.
          2    1    6    6  502    0 -0.25179484687E+02 -0.21313396075E+03 -0.72452419837E+03  0.75564237950E+03  0.00000000000E+00 0. -1.
          3    1    5    5  503    0  0.81652551109E+01  0.27938099549E+02 -0.78379404130E+01  0.30143691004E+02  0.00000000000E+00 0. -1.
         -4    1    5    5    0  503 -0.13738395162E+02  0.31422236265E+03 -0.37562276661E+03  0.48991519622E+03  0.00000000000E+00 0.  1.
         -1    1    6    6    0  502 -0.97817479149E+02 -0.23758029922E+03 -0.70664029086E+03  0.75189969974E+03  0.00000000000E+00 0.  1.
<mgrwt>
<rscale>  0 0.12095331E+04</rscale>
<asrwt>0</asrwt>
<pdfrwt beam="1">  1        2 0.31518364E+00 0.12095331E+04</pdfrwt>
<pdfrwt beam="2">  1       -2 0.27465351E-01 0.12095331E+04</pdfrwt>
<totfact> 0.74888342E+01</totfact>
</mgrwt>
</event>
<event>
12    1  0.1397649E-007  0.3484159E+04  0.7818608E-02  0.8117554E-01
         -1   -1    0    0    0  501 -0.00000000000E+00  0.00000000000E+00  0.10699690366E+04  0.10699690366E+04  0.00000000000E+00 0.  1.
          1   -1    0    0  501    0  0.00000000000E+00 -0.00000000000E+00 -0.28363814416E+04  0.28363814416E+04  0.00000000000E+00 0. -1.
         23    2    1    2    0    0 -0.52197348896E+03  0.40690493883E+02  0.89928675126E+03  0.10445600548E+04  0.90978061184E+02 0.  0.
        254    2    1    2    0    0  0.52197348896E+03 -0.40690493883E+02 -0.26656991563E+04  0.28617904234E+04  0.89987798952E+03 0.  0.
        -24    2    4    4    0    0  0.59081627210E+03  0.30223155301E+03 -0.19501237309E+04  0.20613464778E+04  0.75887789808E+02 0.  0.
         24    2    4    4    0    0 -0.68842783141E+02 -0.34292204689E+03 -0.71557542541E+03  0.80044394561E+03  0.79545342909E+02 0.  0.
         13    1    3    3    0    0 -0.47966959504E+03  0.15613431492E+02  0.84097172231E+03  0.96827689086E+03  0.00000000000E+00 0.  1.
        -13    1    3    3    0    0 -0.42303893914E+02  0.25077062391E+02  0.58315028955E+02  0.76283163938E+02  0.00000000000E+00 0. -1.
          4    1    6    6  502    0 -0.41429990651E+01 -0.71184705352E+02 -0.22366020717E+03  0.23475160274E+03  0.00000000000E+00 0. -1.
          1    1    5    5  503    0  0.17949252440E+02  0.26762557901E+02 -0.87633319207E+02  0.93370277947E+02  0.00000000000E+00 0. -1.
         -2    1    5    5    0  503  0.57286701966E+03  0.27546899511E+03 -0.18624904117E+04  0.19679761998E+04  0.00000000000E+00 0.  1.
         -3    1    6    6    0  502 -0.64699784075E+02 -0.27173734154E+03 -0.49191521823E+03  0.56569234287E+03  0.00000000000E+00 0.  1.
<mgrwt>
<rscale>  0 0.34841586E+04</rscale>
<asrwt>0</asrwt>
<pdfrwt beam="1">  1        1 0.43636638E+00 0.34841586E+04</pdfrwt>
<pdfrwt beam="2">  1       -1 0.16461062E+00 0.34841586E+04</pdfrwt>
<totfact> 0.17290334E-01</totfact>
</mgrwt>
</event>
<event>
12    1  0.1397649E-007  0.1514209E+04  0.7818608E-02  0.8875058E-01
          2   -1    0    0  501    0  0.00000000000E+00  0.00000000000E+00  0.15127429520E+04  0.15127429520E+04  0.00000000000E+00 0.  1.
         -2   -1    0    0    0  501 -0.00000000000E+00 -0.00000000000E+00 -0.37891929805E+03  0.37891929805E+03  0.00000000000E+00 0. -1.
         23    2    1    2    0    0 -0.17542189233E+03  0.37215654736E+03  0.98177589026E+02  0.43320059494E+03  0.93544537067E+02 0.  0.
        254    2    1    2    0    0  0.17542189233E+03 -0.37215654736E+03  0.10356460649E+04  0.14584616551E+04  0.94089015913E+03 0.  0.
        -24    2    4    4    0    0  0.28954332540E+03  0.17301561521E+03  0.75605977704E+03  0.83091690662E+03  0.70899780325E+02 0.  0.
         24    2    4    4    0    0 -0.11412143307E+03 -0.54517216257E+03  0.27958628785E+03  0.62754474846E+03  0.73535913881E+02 0.  0.
         11    1    3    3    0    0 -0.11826662455E+03  0.31989326560E+03  0.10101630037E+03  0.35570070116E+03  0.00000000000E+00 0. -1.
        -11    1    3    3    0    0 -0.57155267772E+02  0.52263281756E+02 -0.28387113391E+01  0.77499893781E+02  0.00000000000E+00 0.  1.
          4    1    6    6  502    0 -0.69675222059E+02 -0.19826017334E+03  0.13033069588E+03  0.24728085892E+03  0.00000000000E+00 0. -1.
          3    1    5    5  503    0  0.20518199239E+03  0.15666604687E+03  0.54568373966E+03  0.60366766020E+03  0.00000000000E+00 0. -1.
         -4    1    5    5    0  503  0.84361333012E+02  0.16349568343E+02  0.21037603738E+03  0.22724924642E+03  0.00000000000E+00 0.  1.
         -3    1    6    6    0  502 -0.44446211012E+02 -0.34691198924E+03  0.14925559197E+03  0.38026388953E+03  0.00000000000E+00 0.  1.
<mgrwt>
<rscale>  0 0.15142094E+04</rscale>
<asrwt>0</asrwt>
<pdfrwt beam="1">  1        2 0.23272968E+00 0.15142094E+04</pdfrwt>
<pdfrwt beam="2">  1       -2 0.58295278E-01 0.15142094E+04</pdfrwt>
<totfact> 0.33162535E+01</totfact>
</mgrwt>
</event>
<event>
12    1  0.1397649E-007  0.1289696E+04  0.7818608E-02  0.9037777E-01
          1   -1    0    0  501    0  0.00000000000E+00  0.00000000000E+00  0.10603229968E+04  0.10603229968E+04  0.00000000000E+00 0. -1.
         -1   -1    0    0    0  501 -0.00000000000E+00 -0.00000000000E+00 -0.39217180825E+03  0.39217180825E+03  0.00000000000E+00 0.  1.
         23    2    1    2    0    0  0.22831118153E+03 -0.14486133368E+03  0.37802465921E+03  0.47370565104E+03  0.91561996791E+02 0.  0.
        254    2    1    2    0    0 -0.22831118153E+03  0.14486133368E+03  0.29012652936E+03  0.97878915402E+03  0.89484300488E+03 0.  0.
        -24    2    4    4    0    0  0.13440081524E+03  0.42097748722E+03  0.36322062388E+02  0.45077748294E+03  0.81212209858E+02 0.  0.
         24    2    4    4    0    0 -0.36271199676E+03 -0.27611615354E+03  0.25380446697E+03  0.52801167108E+03  0.81114083250E+02 0.  0.
         11    1    3    3    0    0  0.40282353304E+02 -0.17639672623E+02  0.13109416721E+03  0.13827330442E+03  0.00000000000E+00 0. -1.
        -11    1    3    3    0    0  0.18802882822E+03 -0.12722166105E+03  0.24693049199E+03  0.33543234662E+03  0.00000000000E+00 0.  1.
          4    1    6    6  502    0 -0.56512800071E+02 -0.16301925737E+02  0.14633255275E+02  0.60610077665E+02  0.00000000000E+00 0. -1.
          1    1    5    5  503    0  0.72712063673E+02  0.33160163208E+03  0.41785909812E+02  0.34204202791E+03  0.00000000000E+00 0. -1.
         -2    1    5    5    0  503  0.61688751564E+02  0.89375855143E+02 -0.54638474241E+01  0.10873545503E+03  0.00000000000E+00 0.  1.
         -3    1    6    6    0  502 -0.30619919669E+03 -0.25981422780E+03  0.23917121169E+03  0.46740159342E+03  0.00000000000E+00 0.  1.
<mgrwt>
<rscale>  0 0.12896958E+04</rscale>
<asrwt>0</asrwt>
<pdfrwt beam="1">  1        1 0.16312661E+00 0.12896958E+04</pdfrwt>
<pdfrwt beam="2">  1       -1 0.60334125E-01 0.12896958E+04</pdfrwt>
<totfact> 0.37222604E+01</totfact>
</mgrwt>
</event>
<event>
12    1  0.1397649E-007  0.1879210E+04  0.7818608E-02  0.8665275E-01
          2   -1    0    0  501    0  0.00000000000E+00  0.00000000000E+00  0.31112685108E+04  0.31112685108E+04  0.00000000000E+00 0. -1.
         -2   -1    0    0    0  501 -0.00000000000E+00 -0.00000000000E+00 -0.28376133300E+03  0.28376133300E+03  0.00000000000E+00 0.  1.
         23    2    1    2    0    0 -0.27769150516E+03  0.60588795754E+03  0.59763048706E+03  0.89992703652E+03  0.92161178705E+02 0.  0.
        254    2    1    2    0    0  0.27769150516E+03 -0.60588795754E+03  0.22298766908E+04  0.24951028073E+04  0.89943047196E+03 0.  0.
        -24    2    4    4    0    0  0.24387760617E+03 -0.11544175206E+03  0.18436504778E+04  0.18649470984E+04  0.78597142492E+02 0.  0.
         24    2    4    4    0    0  0.33813898992E+02 -0.49044620549E+03  0.38622621301E+03  0.63015570890E+03  0.79023221941E+02 0.  0.
         13    1    3    3    0    0 -0.17309253919E+03  0.36243894296E+03  0.41870507826E+03  0.58020423736E+03  0.00000000000E+00 0. -1.
        -13    1    3    3    0    0 -0.10459896597E+03  0.24344901459E+03  0.17892540880E+03  0.31972279916E+03  0.00000000000E+00 0.  1.
          4    1    6    6  502    0  0.25620253018E+01 -0.32424629835E+03  0.21234235086E+03  0.38759708453E+03  0.00000000000E+00 0. -1.
          3    1    5    5  503    0  0.21440350277E+03 -0.12598334333E+03  0.16833157251E+04  0.17015852889E+04  0.00000000000E+00 0. -1.
         -4    1    5    5    0  503  0.29474103395E+02  0.10541591275E+02  0.16033475262E+03  0.16336180954E+03  0.00000000000E+00 0.  1.
         -3    1    6    6    0  502  0.31251873691E+02 -0.16619990713E+03  0.17388386215E+03  0.24255862437E+03  0.00000000000E+00 0.  1.
<mgrwt>
<rscale>  0 0.18792102E+04</rscale>
<asrwt>0</asrwt>
<pdfrwt beam="1">  1        2 0.47865667E+00 0.18792102E+04</pdfrwt>
<pdfrwt beam="2">  1       -2 0.43655592E-01 0.18792102E+04</pdfrwt>
<totfact> 0.69357744E+00</totfact>
</mgrwt>
</event>
<event>
12    1  0.1397649E-007  0.1073529E+04  0.7818608E-02  0.9231384E-01
          1   -1    0    0  501    0  0.00000000000E+00  0.00000000000E+00  0.23653483099E+04  0.23653483099E+04  0.00000000000E+00 0. -1.
         -1   -1    0    0    0  501 -0.00000000000E+00 -0.00000000000E+00 -0.12180695791E+03  0.12180695791E+03  0.00000000000E+00 0.  1.
         23    2    1    2    0    0  0.24448788045E+02  0.11789227093E+03  0.48601657372E+03  0.50879999579E+03  0.90382492783E+02 0.  0.
        254    2    1    2    0    0 -0.24448788045E+02 -0.11789227093E+03  0.17575247783E+04  0.19783552720E+04  0.90027768234E+03 0.  0.
        -24    2    4    4    0    0  0.87811191883E+02 -0.43339462134E+03  0.14452338222E+04  0.15134119569E+04  0.78570014282E+02 0.  0.
         24    2    4    4    0    0 -0.11225997993E+03  0.31550235041E+03  0.31229095603E+03  0.46494331511E+03  0.80638755228E+02 0.  0.
         13    1    3    3    0    0  0.23808033330E+02  0.72198329742E+02  0.42922472403E+03  0.43590513301E+03  0.00000000000E+00 0. -1.
        -13    1    3    3    0    0  0.64075471499E+00  0.45693941186E+02  0.56791849691E+02  0.72894862775E+02  0.00000000000E+00 0.  1.
          2    1    6    6  502    0 -0.40417459784E+02  0.20491561430E+03  0.15748678068E+03  0.26158376504E+03  0.00000000000E+00 0. -1.
          1    1    5    5  503    0  0.22539460532E+02 -0.17313080546E+03  0.69654474717E+03  0.71809253435E+03  0.00000000000E+00 0. -1.
         -2    1    5    5    0  503  0.65271731351E+02 -0.26026381588E+03  0.74868907507E+03  0.79531942256E+03  0.00000000000E+00 0.  1.
         -1    1    6    6    0  502 -0.71842520143E+02  0.11058673610E+03  0.15480417534E+03  0.20335955007E+03  0.00000000000E+00 0.  1.
<mgrwt>
<rscale>  0 0.10735285E+04</rscale>
<asrwt>0</asrwt>
<pdfrwt beam="1">  1        1 0.36389971E+00 0.10735285E+04</pdfrwt>
<pdfrwt beam="2">  1       -1 0.18739534E-01 0.10735285E+04</pdfrwt>
<totfact> 0.38503853E+01</totfact>
</mgrwt>
</event>
<event>
12    1  0.1397649E-007  0.1453145E+04  0.7818608E-02  0.8916223E-01
          2   -1    0    0  501    0  0.00000000000E+00  0.00000000000E+00  0.25934777200E+04  0.25934777200E+04  0.00000000000E+00 0. -1.
         -2   -1    0    0    0  501 -0.00000000000E+00 -0.00000000000E+00 -0.20355190263E+03  0.20355190263E+03  0.00000000000E+00 0.  1.
         23    2    1    2    0    0 -0.38417186774E+03 -0.21090095521E+03  0.76169246288E+03  0.88627963757E+03  0.11510408802E+03 0.  0.
        254    2    1    2    0    0  0.38417186774E+03  0.21090095521E+03  0.16282333545E+04  0.19107499851E+04  0.89875158520E+03 0.  0.
        -24    2    4    4    0    0  0.49637879101E+03  0.64429355382E+02  0.34917564799E+03  0.61606281239E+03  0.84063723778E+02 0.  0.
         24    2    4    4    0    0 -0.11220692327E+03  0.14647159983E+03  0.12790577065E+04  0.12946871727E+04  0.78625284499E+02 0.  0.
         13    1    3    3    0    0 -0.21017919728E+03 -0.78615966597E+02  0.47888769925E+03  0.52885649629E+03  0.00000000000E+00 0. -1.
        -13    1    3    3    0    0 -0.17399267046E+03 -0.13228498862E+03  0.28280476363E+03  0.35742314128E+03  0.00000000000E+00 0.  1.
          2    1    6    6  502    0 -0.78138719454E+02  0.11396854382E+03  0.68694942593E+03  0.70070964190E+03  0.00000000000E+00 0. -1.
          3    1    5    5  503    0  0.82882859659E+02  0.12097382446E+02  0.10007538849E+03  0.13050286766E+03  0.00000000000E+00 0. -1.
         -4    1    5    5    0  503  0.41349593135E+03  0.52331972936E+02  0.24910025951E+03  0.48555994473E+03  0.00000000000E+00 0.  1.
         -1    1    6    6    0  502 -0.34068203819E+02  0.32503056017E+02  0.59210828057E+03  0.59397753078E+03  0.00000000000E+00 0.  1.
<mgrwt>
<rscale>  0 0.14531446E+04</rscale>
<asrwt>0</asrwt>
<pdfrwt beam="1">  1        2 0.39899655E+00 0.14531446E+04</pdfrwt>
<pdfrwt beam="2">  1       -2 0.31315679E-01 0.14531446E+04</pdfrwt>
<totfact> 0.28276099E+01</totfact>
</mgrwt>
</event>
<event>
12    1  0.1397649E-007  0.1606363E+04  0.7818608E-02  0.8816648E-01
         -2   -1    0    0    0  501 -0.00000000000E+00  0.00000000000E+00  0.17395072467E+03  0.17395072467E+03  0.00000000000E+00 0. -1.
          2   -1    0    0  501    0  0.00000000000E+00 -0.00000000000E+00 -0.37085258988E+04  0.37085258988E+04  0.00000000000E+00 0.  1.
         23    2    1    2    0    0  0.48933771775E+03 -0.12019805503E+03 -0.16015846889E+04  0.16815514974E+04  0.92967458715E+02 0.  0.
        254    2    1    2    0    0 -0.48933771775E+03  0.12019805503E+03 -0.19329904853E+04  0.22009251261E+04  0.92396981549E+03 0.  0.
        -24    2    4    4    0    0 -0.49216136659E+03 -0.32751153387E+03 -0.11443385536E+04  0.12905052129E+04  0.80039763474E+02 0.  0.
         24    2    4    4    0    0  0.28236488341E+01  0.44770958889E+03 -0.78865193167E+03  0.91041991314E+03  0.80253971492E+02 0.  0.
         11    1    3    3    0    0  0.28306982998E+03 -0.43391494535E+02 -0.10294168249E+04  0.10685084698E+04  0.00000000000E+00 0. -1.
        -11    1    3    3    0    0  0.20626788777E+03 -0.76806560490E+02 -0.57216786394E+03  0.61304302768E+03  0.00000000000E+00 0.  1.
          2    1    6    6  502    0 -0.22443299416E+02  0.84878283000E+02 -0.20072414455E+03  0.21908493061E+03  0.00000000000E+00 0. -1.
          1    1    5    5  503    0 -0.34991792215E+03 -0.25570402811E+03 -0.76842442351E+03  0.88221493803E+03  0.00000000000E+00 0. -1.
         -2    1    5    5    0  503 -0.14224344444E+03 -0.71807505762E+02 -0.37591413011E+03  0.40829027491E+03  0.00000000000E+00 0.  1.
         -1    1    6    6    0  502  0.25266948250E+02  0.36283130589E+03 -0.58792778712E+03  0.69133498254E+03  0.00000000000E+00 0.  1.
<mgrwt>
<rscale>  0 0.16063633E+04</rscale>
<asrwt>0</asrwt>
<pdfrwt beam="1">  1        2 0.57054242E+00 0.16063633E+04</pdfrwt>
<pdfrwt beam="2">  1       -2 0.26761651E-01 0.16063633E+04</pdfrwt>
<totfact> 0.70906602E+00</totfact>
</mgrwt>
</event>
<event>
12    1  0.1397649E-007  0.1445608E+04  0.7818608E-02  0.8921451E-01
         -1   -1    0    0    0  501 -0.00000000000E+00  0.00000000000E+00  0.17319186188E+03  0.17319186188E+03  0.00000000000E+00 0.  1.
          1   -1    0    0  501    0  0.00000000000E+00 -0.00000000000E+00 -0.30165734499E+04  0.30165734499E+04  0.00000000000E+00 0. -1.
         23    2    1    2    0    0 -0.17976272197E+02 -0.41286564422E+03 -0.60941542982E+03  0.74198190404E+03  0.91481108884E+02 0.  0.
        254    2    1    2    0    0  0.17976272197E+02  0.41286564422E+03 -0.22339661582E+04  0.24477834078E+04  0.91118473905E+03 0.  0.
        -24    2    4    4    0    0  0.37835861150E+03  0.55375729029E+02 -0.15118348904E+04  0.15614915100E+04  0.79933032590E+02 0.  0.
         24    2    4    4    0    0 -0.36038233931E+03  0.35748991519E+03 -0.72213126779E+03  0.88629189773E+03  0.79782768321E+02 0.  0.
         11    1    3    3    0    0 -0.15500250324E+02 -0.15875140041E+02 -0.61338280403E+02  0.65227773795E+02  0.00000000000E+00 0. -1.
        -11    1    3    3    0    0 -0.24760218734E+01 -0.39699050417E+03 -0.54807714942E+03  0.67675413025E+03  0.00000000000E+00 0.  1.
          2    1    6    6  502    0 -0.30746707319E+01  0.26084042719E+02 -0.31196734987E+02  0.40780720426E+02  0.00000000000E+00 0. -1.
          1    1    5    5  503    0  0.44377614200E+02 -0.15605450411E+02 -0.13537338750E+03  0.14331384012E+03  0.00000000000E+00 0. -1.
         -2    1    5    5    0  503  0.33398099730E+03  0.70981179440E+02 -0.13764615029E+04  0.14181776699E+04  0.00000000000E+00 0.  1.
         -1    1    6    6    0  502 -0.35730766857E+03  0.33140587247E+03 -0.69093453280E+03  0.84551117731E+03  0.00000000000E+00 0.  1.
<mgrwt>
<rscale>  0 0.14456085E+04</rscale>
<asrwt>0</asrwt>
<pdfrwt beam="1">  1        1 0.46408822E+00 0.14456085E+04</pdfrwt>
<pdfrwt beam="2">  1       -1 0.26644902E-01 0.14456085E+04</pdfrwt>
<totfact> 0.71393300E+00</totfact>
</mgrwt>
</event>
<event>
12    1  0.1397649E-007  0.2360952E+04  0.7818608E-02  0.8454269E-01
          2   -1    0    0  501    0  0.00000000000E+00  0.00000000000E+00  0.14284041322E+04  0.14284041322E+04  0.00000000000E+00 0. -1.
         -2   -1    0    0    0  501 -0.00000000000E+00 -0.00000000000E+00 -0.97558113197E+03  0.97558113197E+03  0.00000000000E+00 0.  1.
         23    2    1    2    0    0  0.77361080663E+03  0.55806133761E+03 -0.13481708992E+03  0.96789001273E+03  0.93430681963E+02 0.  0.
        254    2    1    2    0    0 -0.77361080663E+03 -0.55806133761E+03  0.58764009012E+03  0.14360952514E+04  0.89841113025E+03 0.  0.
        -24    2    4    4    0    0 -0.68184127135E+01  0.18385562954E+03  0.23657543924E+03  0.31012403663E+03  0.79747077552E+02 0.  0.
         24    2    4    4    0    0 -0.76679239392E+03 -0.74191696715E+03  0.35106465088E+03  0.11259712148E+04  0.78443775591E+02 0.  0.
         13    1    3    3    0    0  0.45532467437E+03  0.27380173370E+03 -0.60794610133E+02  0.53477465636E+03  0.00000000000E+00 0. -1.
        -13    1    3    3    0    0  0.31828613226E+03  0.28425960391E+03 -0.74022479788E+02  0.43311535636E+03  0.00000000000E+00 0.  1.
          4    1    6    6  502    0 -0.51470880399E+03 -0.48300251760E+03  0.26930821212E+03  0.75547567666E+03  0.00000000000E+00 0. -1.
          3    1    5    5  503    0 -0.11653171453E+02  0.17583391284E+03  0.24195330170E+03  0.29932384054E+03  0.00000000000E+00 0. -1.
         -4    1    5    5    0  503  0.48347587390E+01  0.80217167039E+01 -0.53778624645E+01  0.10800196092E+02  0.00000000000E+00 0.  1.
         -3    1    6    6    0  502 -0.25208358993E+03 -0.25891444954E+03  0.81756438766E+02  0.37049553813E+03  0.00000000000E+00 0.  1.
<mgrwt>
<rscale>  0 0.23609525E+04</rscale>
<asrwt>0</asrwt>
<pdfrwt beam="1">  1        2 0.21975448E+00 0.23609525E+04</pdfrwt>
<pdfrwt beam="2">  1       -2 0.15008940E+00 0.23609525E+04</pdfrwt>
<totfact> 0.37623357E+00</totfact>
</mgrwt>
</event>
<event>
12    1  0.1397649E-007  0.1625127E+04  0.7818608E-02  0.8805259E-01
         -1   -1    0    0    0  501 -0.00000000000E+00  0.00000000000E+00  0.87150999230E+03  0.87150999230E+03  0.00000000000E+00 0.  1.
          1   -1    0    0  501    0  0.00000000000E+00 -0.00000000000E+00 -0.75760395649E+03  0.75760395649E+03  0.00000000000E+00 0. -1.
         23    2    1    2    0    0 -0.77067417476E+02 -0.28477233136E+03  0.51521745268E+03  0.60135173179E+03  0.95604467655E+02 0.  0.
        254    2    1    2    0    0  0.77067417476E+02  0.28477233136E+03 -0.40131141687E+03  0.10277622170E+04  0.89900481302E+03 0.  0.
        -24    2    4    4    0    0 -0.64441344948E+01  0.16747410470E+03 -0.67960279221E+03  0.70450282124E+03  0.79844645003E+02 0.  0.
         24    2    4    4    0    0  0.83511551970E+02  0.11729822666E+03  0.27829137534E+03  0.32325939576E+03  0.79482665202E+02 0.  0.
         11    1    3    3    0    0  0.19995043727E+02 -0.85065332832E+02  0.16408253774E+03  0.18590048901E+03  0.00000000000E+00 0. -1.
        -11    1    3    3    0    0 -0.97062461203E+02 -0.19970699853E+03  0.35113491494E+03  0.41545124278E+03  0.00000000000E+00 0.  1.
          4    1    6    6  502    0  0.27125693586E+02  0.33254826532E+02  0.16875259475E+03  0.17412387825E+03  0.00000000000E+00 0. -1.
          3    1    5    5  503    0 -0.12302782685E+02  0.15900701789E+03 -0.50472388059E+03  0.52932106120E+03  0.00000000000E+00 0. -1.
         -4    1    5    5    0  503  0.58586481903E+01  0.84670868153E+01 -0.17487891163E+03  0.17518176004E+03  0.00000000000E+00 0.  1.
         -3    1    6    6    0  502  0.56385858385E+02  0.84043400128E+02  0.10953878059E+03  0.14913551751E+03  0.00000000000E+00 0.  1.
<mgrwt>
<rscale>  0 0.16251270E+04</rscale>
<asrwt>0</asrwt>
<pdfrwt beam="1">  1        1 0.11655445E+00 0.16251270E+04</pdfrwt>
<pdfrwt beam="2">  1       -1 0.13407846E+00 0.16251270E+04</pdfrwt>
<totfact> 0.10824377E+01</totfact>
</mgrwt>
</event>
<event>
12    1  0.1397649E-007  0.1309484E+04  0.7818608E-02  0.9022078E-01
          2   -1    0    0  501    0  0.00000000000E+00  0.00000000000E+00  0.87331908400E+03  0.87331908400E+03  0.00000000000E+00 0. -1.
         -2   -1    0    0    0  501 -0.00000000000E+00 -0.00000000000E+00 -0.49087095347E+03  0.49087095347E+03  0.00000000000E+00 0.  1.
         23    2    1    2    0    0  0.38386380415E+02 -0.26304188818E+03 -0.11791473858E+03  0.30440639196E+03  0.89971199562E+02 0.  0.
        254    2    1    2    0    0 -0.38386380415E+02  0.26304188818E+03  0.50036286911E+03  0.10597836455E+04  0.89560807576E+03 0.  0.
        -24    2    4    4    0    0  0.38930764163E+03 -0.35190866390E+02  0.28360835077E+03  0.48941245703E+03  0.79322251381E+02 0.  0.
         24    2    4    4    0    0 -0.42769402205E+03  0.29823275457E+03  0.21675451834E+03  0.57037118848E+03  0.80472473729E+02 0.  0.
         13    1    3    3    0    0 -0.11619292612E+02 -0.15808873823E+03 -0.37038870196E+02  0.16278493487E+03  0.00000000000E+00 0.  1.
        -13    1    3    3    0    0  0.50005673027E+02 -0.10495314995E+03 -0.80875868389E+02  0.14162145708E+03  0.00000000000E+00 0. -1.
          4    1    6    6  502    0 -0.29280951450E+03  0.24411970829E+03  0.17260850049E+03  0.41848003321E+03  0.00000000000E+00 0. -1.
          3    1    5    5  503    0  0.38892022285E+03 -0.41928498998E+02  0.28262880988E+03  0.48259297855E+03  0.00000000000E+00 0. -1.
         -4    1    5    5    0  503  0.38741878390E+00  0.67376326072E+01  0.97954088453E+00  0.68194784851E+01  0.00000000000E+00 0.  1.
         -3    1    6    6    0  502 -0.13488450755E+03  0.54113046277E+02  0.44146017850E+02  0.15189115526E+03  0.00000000000E+00 0.  1.
<mgrwt>
<rscale>  0 0.13094838E+04</rscale>
<asrwt>0</asrwt>
<pdfrwt beam="1">  1        2 0.13435678E+00 0.13094838E+04</pdfrwt>
<pdfrwt beam="2">  1       -2 0.75518609E-01 0.13094838E+04</pdfrwt>
<totfact> 0.47119315E+01</totfact>
</mgrwt>
</event>
<event>
12    1  0.2209783E-007  0.2576501E+04  0.7818608E-02  0.8376227E-01
         -2   -1    0    0    0  501 -0.00000000000E+00  0.00000000000E+00  0.61324421494E+03  0.61324421494E+03  0.00000000000E+00 0.  1.
          2   -1    0    0  501    0  0.00000000000E+00 -0.00000000000E+00 -0.27062454259E+04  0.27062454259E+04  0.00000000000E+00 0. -1.
         23    2    1    2    0    0 -0.34637271286E+03 -0.43663010130E+03 -0.22109267427E+04  0.22821223533E+04  0.96257322006E+02 0.  0.
        254    2    1    2    0    0  0.34637271286E+03  0.43663010130E+03  0.11792553177E+03  0.10373672876E+04  0.86695130006E+03 0.  0.
        -24    2    4    4    0    0  0.60646033316E+03  0.39716498811E+03  0.18971868196E+03  0.75367177293E+03  0.80584114775E+02 0.  0.
         24    2    4    4    0    0 -0.26008762030E+03  0.39465113197E+02 -0.71793150196E+02  0.28369551463E+03  0.78267638321E+02 0.  0.
         11    1    3    3    0    0 -0.29473942996E+03 -0.38743759363E+03 -0.20321988090E+04  0.20896916566E+04  0.00000000000E+00 0. -1.
        -11    1    3    3    0    0 -0.51633282899E+02 -0.49192507672E+02 -0.17872793377E+03  0.19243069667E+03  0.00000000000E+00 0.  1.
          2    1    6    6  502    0 -0.62717860246E+01 -0.20598558735E-01  0.11970646432E+02  0.13514144451E+02  0.00000000000E+00 0. -1.
          1    1    5    5  503    0  0.76473537506E+02  0.70405156511E+02  0.43378560633E+01  0.10403799785E+03  0.00000000000E+00 0. -1.
         -2    1    5    5    0  503  0.52998679566E+03  0.32675983159E+03  0.18538082590E+03  0.64963377508E+03  0.00000000000E+00 0.  1.
         -1    1    6    6    0  502 -0.25381583428E+03  0.39485711755E+02 -0.83763796628E+02  0.27018137017E+03  0.00000000000E+00 0.  1.
<mgrwt>
<rscale>  0 0.25765010E+04</rscale>
<asrwt>0</asrwt>
<pdfrwt beam="1">  1        2 0.41634544E+00 0.25765010E+04</pdfrwt>
<pdfrwt beam="2">  1       -2 0.94345266E-01 0.25765010E+04</pdfrwt>
<totfact> 0.22097637E+00</totfact>
</mgrwt>
</event>
<event>
12    1  0.1397649E-007  0.1715798E+04  0.7818608E-02  0.8752405E-01
         -1   -1    0    0    0  501 -0.00000000000E+00  0.00000000000E+00  0.47665113326E+03  0.47665113326E+03  0.00000000000E+00 0.  1.
          1   -1    0    0  501    0  0.00000000000E+00 -0.00000000000E+00 -0.15440863078E+04  0.15440863078E+04  0.00000000000E+00 0. -1.
         23    2    1    2    0    0 -0.17481781311E+03 -0.23988724404E+03 -0.10219877990E+04  0.10682616498E+04  0.92826361941E+02 0.  0.
        254    2    1    2    0    0  0.17481781311E+03  0.23988724404E+03 -0.45447375566E+02  0.95247579130E+03  0.90390127306E+03 0.  0.
        -24    2    4    4    0    0  0.21700061346E+03 -0.23049760065E+03  0.23078654694E+03  0.39950857380E+03  0.78270429588E+02 0.  0.
         24    2    4    4    0    0 -0.42182800351E+02  0.47038484469E+03 -0.27623392250E+03  0.55296721750E+03  0.80164037651E+02 0.  0.
         13    1    3    3    0    0 -0.18599443190E+03 -0.23183543196E+03 -0.97527130410E+03  0.10195566256E+04  0.00000000000E+00 0. -1.
        -13    1    3    3    0    0  0.11176618787E+02 -0.80518120836E+01 -0.46716494887E+02  0.48705024175E+02  0.00000000000E+00 0.  1.
          4    1    6    6  502    0  0.17278090309E+02  0.25004988868E+03 -0.15181675294E+03  0.29303891501E+03  0.00000000000E+00 0. -1.
          3    1    5    5  503    0  0.35599440233E+02 -0.88553587790E+02  0.75867331845E+02  0.12192173759E+03  0.00000000000E+00 0. -1.
         -4    1    5    5    0  503  0.18140117323E+03 -0.14194401286E+03  0.15491921509E+03  0.27758683621E+03  0.00000000000E+00 0.  1.
         -3    1    6    6    0  502 -0.59460890661E+02  0.22033495601E+03 -0.12441716957E+03  0.25992830250E+03  0.00000000000E+00 0.  1.
<mgrwt>
<rscale>  0 0.17157978E+04</rscale>
<asrwt>0</asrwt>
<pdfrwt beam="1">  1        1 0.23755174E+00 0.17157978E+04</pdfrwt>
<pdfrwt beam="2">  1       -1 0.73330944E-01 0.17157978E+04</pdfrwt>
<totfact> 0.10859005E+01</totfact>
</mgrwt>
</event>
<event>
12    1  0.1397649E-007  0.1701996E+04  0.7818608E-02  0.8760227E-01
          1   -1    0    0  501    0  0.00000000000E+00  0.00000000000E+00  0.12512961178E+04  0.12512961178E+04  0.00000000000E+00 0. -1.
         -1   -1    0    0    0  501 -0.00000000000E+00 -0.00000000000E+00 -0.57875766712E+03  0.57875766712E+03  0.00000000000E+00 0.  1.
         23    2    1    2    0    0  0.30439318551E+03  0.40571364250E+03 -0.11356168401E+03  0.52752576841E+03  0.90157690509E+02 0.  0.
        254    2    1    2    0    0 -0.30439318551E+03 -0.40571364250E+03  0.78610013474E+03  0.13025280166E+04  0.90629302159E+03 0.  0.
        -24    2    4    4    0    0  0.11754230899E+03  0.22342138435E+03  0.12019539263E+03  0.29090539594E+03  0.80285164205E+02 0.  0.
         24    2    4    4    0    0 -0.42193549450E+03 -0.62913502686E+03  0.66590474211E+03  0.10116226206E+04  0.78171333809E+02 0.  0.
         11    1    3    3    0    0  0.20923585777E+03  0.22757650950E+03 -0.36205422941E+02  0.31125800311E+03  0.00000000000E+00 0.  1.
        -11    1    3    3    0    0  0.95157327747E+02  0.17813713300E+03 -0.77356261074E+02  0.21626776529E+03  0.00000000000E+00 0. -1.
          2    1    6    6  502    0 -0.79724372589E+02 -0.17845059156E+03  0.16062923609E+03  0.25298683899E+03  0.00000000000E+00 0. -1.
          1    1    5    5  503    0  0.69926593854E+02  0.54183793071E+02  0.30774345043E+02  0.93662544662E+02  0.00000000000E+00 0. -1.
         -2    1    5    5    0  503  0.47615715135E+02  0.16923759128E+03  0.89421047585E+02  0.19724285128E+03  0.00000000000E+00 0.  1.
         -1    1    6    6    0  502 -0.34221112191E+03 -0.45068443529E+03  0.50527550602E+03  0.75863578162E+03  0.00000000000E+00 0.  1.
<mgrwt>
<rscale>  0 0.17019956E+04</rscale>
<asrwt>0</asrwt>
<pdfrwt beam="1">  1        1 0.19250709E+00 0.17019956E+04</pdfrwt>
<pdfrwt beam="2">  1       -1 0.89039641E-01 0.17019956E+04</pdfrwt>
<totfact> 0.11540474E+01</totfact>
</mgrwt>
</event>
<event>
12    1  0.1397649E-007  0.1389485E+04  0.7818608E-02  0.8961465E-01
         -2   -1    0    0    0  501 -0.00000000000E+00  0.00000000000E+00  0.58689296424E+03  0.58689296424E+03  0.00000000000E+00 0.  1.
          2   -1    0    0  501    0  0.00000000000E+00 -0.00000000000E+00 -0.82241126689E+03  0.82241126689E+03  0.00000000000E+00 0. -1.
         23    2    1    2    0    0  0.37580359080E+03  0.18330407340E+02 -0.18537553722E+03  0.42881255201E+03  0.89172710347E+02 0.  0.
        254    2    1    2    0    0 -0.37580359080E+03 -0.18330407340E+02 -0.50142765424E+02  0.98049167912E+03  0.90403832508E+03 0.  0.
        -24    2    4    4    0    0 -0.26532729263E+03 -0.22430977134E+03  0.35640722565E+03  0.50473702361E+03  0.83784883939E+02 0.  0.
         24    2    4    4    0    0 -0.11047629818E+03  0.20597936400E+03 -0.40654999108E+03  0.47575465551E+03  0.80169109664E+02 0.  0.
         11    1    3    3    0    0  0.37161704877E+03  0.74477095543E+01 -0.18847652974E+03  0.41674704747E+03  0.00000000000E+00 0.  1.
        -11    1    3    3    0    0  0.41865420358E+01  0.10882697786E+02  0.31009925178E+01  0.12065504544E+02  0.00000000000E+00 0. -1.
          4    1    6    6  502    0 -0.37275321800E+02  0.30848191100E+02 -0.14301370951E+03  0.15097675853E+03  0.00000000000E+00 0. -1.
          1    1    5    5  503    0 -0.74720664604E+02 -0.11276412492E+03  0.11498773281E+03  0.17754183813E+03  0.00000000000E+00 0. -1.
         -2    1    5    5    0  503 -0.19060662802E+03 -0.11154564641E+03  0.24141949284E+03  0.32719518548E+03  0.00000000000E+00 0.  1.
         -3    1    6    6    0  502 -0.73200976376E+02  0.17513117290E+03 -0.26353628156E+03  0.32477789698E+03  0.00000000000E+00 0.  1.
<mgrwt>
<rscale>  0 0.13894854E+04</rscale>
<asrwt>0</asrwt>
<pdfrwt beam="1">  1        2 0.12652481E+00 0.13894854E+04</pdfrwt>
<pdfrwt beam="2">  1       -2 0.90291225E-01 0.13894854E+04</pdfrwt>
<totfact> 0.33925421E+01</totfact>
</mgrwt>
</event>
<event>
12    1  0.1397649E-007  0.2160034E+04  0.7818608E-02  0.8535249E-01
          1   -1    0    0  501    0  0.00000000000E+00  0.00000000000E+00  0.12111783439E+04  0.12111783439E+04  0.00000000000E+00 0. -1.
         -1   -1    0    0    0  501 -0.00000000000E+00 -0.00000000000E+00 -0.96305962839E+03  0.96305962839E+03  0.00000000000E+00 0.  1.
         23    2    1    2    0    0 -0.75177316079E+03  0.18721277275E+03  0.53904008855E+03  0.94797817654E+03  0.88808212332E+02 0.  0.
        254    2    1    2    0    0  0.75177316079E+03 -0.18721277275E+03 -0.29092137303E+03  0.12262597958E+04  0.90491233489E+03 0.  0.
        -24    2    4    4    0    0  0.41376814497E+03 -0.20701407796E+03  0.28787871705E+03  0.55094732874E+03  0.81301273403E+02 0.  0.
         24    2    4    4    0    0  0.33800501582E+03  0.19801305211E+02 -0.57880009008E+03  0.67531246701E+03  0.79986882770E+02 0.  0.
         11    1    3    3    0    0 -0.68699624458E+02  0.96368714598E+01  0.20986827734E+02  0.72477269750E+02  0.00000000000E+00 0.  1.
        -11    1    3    3    0    0 -0.68307353633E+03  0.17757590129E+03  0.51805326082E+03  0.87550090679E+03  0.00000000000E+00 0. -1.
          4    1    6    6  502    0  0.24272487530E+03  0.67314680206E+00 -0.34230686971E+03  0.41963056522E+03  0.00000000000E+00 0. -1.
          1    1    5    5  503    0  0.14936409955E+03 -0.44900559522E+02  0.64725877801E+02  0.16886424647E+03  0.00000000000E+00 0. -1.
         -2    1    5    5    0  503  0.26440404542E+03 -0.16211351843E+03  0.22315283925E+03  0.38208308227E+03  0.00000000000E+00 0.  1.
         -3    1    6    6    0  502  0.95280140514E+02  0.19128158409E+02 -0.23649322037E+03  0.25568190179E+03  0.00000000000E+00 0.  1.
<mgrwt>
<rscale>  0 0.21600342E+04</rscale>
<asrwt>0</asrwt>
<pdfrwt beam="1">  1        1 0.18633513E+00 0.21600342E+04</pdfrwt>
<pdfrwt beam="2">  1       -1 0.14816302E+00 0.21600342E+04</pdfrwt>
<totfact> 0.34605664E+00</totfact>
</mgrwt>
</event>
<event>
12    1  0.1397649E-007  0.2225081E+04  0.7818608E-02  0.8508061E-01
          2   -1    0    0  501    0  0.00000000000E+00  0.00000000000E+00  0.11043200089E+04  0.11043200089E+04  0.00000000000E+00 0. -1.
         -2   -1    0    0    0  501 -0.00000000000E+00 -0.00000000000E+00 -0.11208219168E+04  0.11208219168E+04  0.00000000000E+00 0.  1.
         23    2    1    2    0    0  0.62780976258E+02 -0.16476302420E+03 -0.90800115572E+03  0.92962013022E+03  0.92947203252E+02 0.  0.
        254    2    1    2    0    0 -0.62780976258E+02  0.16476302420E+03  0.89149924777E+03  0.12955217954E+04  0.92331874699E+03 0.  0.
        -24    2    4    4    0    0 -0.14899286872E+03 -0.19529972429E+02  0.10266467982E+04  0.10405747232E+04  0.78815045883E+02 0.  0.
         24    2    4    4    0    0  0.86211892458E+02  0.18429299662E+03 -0.13514755044E+03  0.25494707227E+03  0.73053064717E+02 0.  0.
         13    1    3    3    0    0  0.48878306788E+02 -0.46393810459E+02 -0.50149262710E+03  0.50600032565E+03  0.00000000000E+00 0. -1.
        -13    1    3    3    0    0  0.13902669469E+02 -0.11836921374E+03 -0.40650852862E+03  0.42361980456E+03  0.00000000000E+00 0.  1.
          4    1    6    6  502    0  0.21950630619E+02  0.19118031012E+01 -0.76381204556E+01  0.23320078468E+02  0.00000000000E+00 0. -1.
          1    1    5    5  503    0 -0.33346850185E+02 -0.12262097210E+02  0.89548050954E+02  0.96339113941E+02  0.00000000000E+00 0. -1.
         -2    1    5    5    0  503 -0.11564601853E+03 -0.72678752181E+01  0.93709874726E+03  0.94423560922E+03  0.00000000000E+00 0.  1.
         -1    1    6    6    0  502  0.64261261839E+02  0.18238119352E+03 -0.12750942998E+03  0.23162699380E+03  0.00000000000E+00 0.  1.
<mgrwt>
<rscale>  0 0.22250807E+04</rscale>
<asrwt>0</asrwt>
<pdfrwt beam="1">  1        2 0.16989539E+00 0.22250807E+04</pdfrwt>
<pdfrwt beam="2">  1       -2 0.17243414E+00 0.22250807E+04</pdfrwt>
<totfact> 0.40452915E+00</totfact>
</mgrwt>
</event>
<event>
12    1  0.1397649E-007  0.2667888E+04  0.7818608E-02  0.8345500E-01
         -2   -1    0    0    0  501 -0.00000000000E+00  0.00000000000E+00  0.18195017680E+04  0.18195017680E+04  0.00000000000E+00 0.  1.
          2   -1    0    0  501    0  0.00000000000E+00 -0.00000000000E+00 -0.97796379840E+03  0.97796379840E+03  0.00000000000E+00 0. -1.
         23    2    1    2    0    0  0.10156284621E+04 -0.54565303537E+03  0.60713293259E+03  0.13061286150E+04  0.90128537175E+02 0.  0.
        254    2    1    2    0    0 -0.10156284621E+04  0.54565303537E+03  0.23440503705E+03  0.14913369514E+04  0.91646155037E+03 0.  0.
        -24    2    4    4    0    0 -0.21465327759E+03  0.54412444596E+03 -0.13506709429E+03  0.60558115706E+03  0.79611403415E+02 0.  0.
         24    2    4    4    0    0 -0.80097518447E+03  0.15285894159E+01  0.36947213134E+03  0.88575579436E+03  0.80561086637E+02 0.  0.
         11    1    3    3    0    0  0.61466234089E+03 -0.33884059978E+03  0.41812650303E+03  0.81697767283E+03  0.00000000000E+00 0. -1.
        -11    1    3    3    0    0  0.40096612117E+03 -0.20681243559E+03  0.18900642956E+03  0.48915094220E+03  0.00000000000E+00 0.  1.
          4    1    6    6  502    0 -0.33691488355E+03 -0.19127329681E+02  0.11771358087E+03  0.35739890965E+03  0.00000000000E+00 0. -1.
          3    1    5    5  503    0 -0.74629381164E+02  0.11626672069E+03 -0.52998713235E+02  0.14797418180E+03  0.00000000000E+00 0. -1.
         -4    1    5    5    0  503 -0.14002389643E+03  0.42785772526E+03 -0.82068381055E+02  0.45760697526E+03  0.00000000000E+00 0.  1.
         -1    1    6    6    0  502 -0.46406030092E+03  0.20655919097E+02  0.25175855047E+03  0.52835688471E+03  0.00000000000E+00 0.  1.
<mgrwt>
<rscale>  0 0.26678882E+04</rscale>
<asrwt>0</asrwt>
<pdfrwt beam="1">  1        2 0.15045597E+00 0.26678882E+04</pdfrwt>
<pdfrwt beam="2">  1       -2 0.27992335E+00 0.26678882E+04</pdfrwt>
<totfact> 0.96520521E-01</totfact>
</mgrwt>
</event>
<event>
12    1  0.1397649E-007  0.1822629E+04  0.7818608E-02  0.8694357E-01
          2   -1    0    0  501    0  0.00000000000E+00  0.00000000000E+00  0.25329154813E+04  0.25329154813E+04  0.00000000000E+00 0.  1.
         -2   -1    0    0    0  501 -0.00000000000E+00 -0.00000000000E+00 -0.32788084221E+03  0.32788084221E+03  0.00000000000E+00 0. -1.
         23    2    1    2    0    0  0.16170679116E+03 -0.29007261517E+03 -0.10387771679E+03  0.35962043580E+03  0.90802364620E+02 0.  0.
        254    2    1    2    0    0 -0.16170679116E+03  0.29007261517E+03  0.23089123559E+04  0.25011758877E+04  0.90250393112E+03 0.  0.
        -24    2    4    4    0    0  0.35163227257E+03  0.61355678372E+02  0.62632819893E+03  0.72524987392E+03  0.79313255243E+02 0.  0.
         24    2    4    4    0    0 -0.51333906373E+03  0.22871693680E+03  0.16825841570E+04  0.17759260138E+04  0.83638087521E+02 0.  0.
         13    1    3    3    0    0  0.81929204116E+02 -0.18602266684E+03 -0.20626968799E+02  0.20430932163E+03  0.00000000000E+00 0.  1.
        -13    1    3    3    0    0  0.79777587040E+02 -0.10404994834E+03 -0.83250747995E+02  0.15531111417E+03  0.00000000000E+00 0. -1.
          2    1    6    6  502    0 -0.72815214909E+02  0.62888612157E+02  0.33247721404E+03  0.34611866594E+03  0.00000000000E+00 0. -1.
          1    1    5    5  503    0  0.52072449120E+01  0.11524966691E+02  0.87012066096E+01  0.15350936560E+02  0.00000000000E+00 0. -1.
         -2    1    5    5    0  503  0.34642502766E+03  0.49830711681E+02  0.61762699233E+03  0.70989893736E+03  0.00000000000E+00 0.  1.
         -1    1    6    6    0  502 -0.44052384882E+03  0.16582832465E+03  0.13501069429E+04  0.14298073479E+04  0.00000000000E+00 0.  1.
<mgrwt>
<rscale>  0 0.18226294E+04</rscale>
<asrwt>0</asrwt>
<pdfrwt beam="1">  1        2 0.38967929E+00 0.18226294E+04</pdfrwt>
<pdfrwt beam="2">  1       -2 0.50443208E-01 0.18226294E+04</pdfrwt>
<totfact> 0.11680764E+01</totfact>
</mgrwt>
</event>
<event>
12    1  0.1397649E-007  0.3560384E+04  0.7818608E-02  0.8099627E-01
         -2   -1    0    0    0  501 -0.00000000000E+00  0.00000000000E+00  0.12407265885E+04  0.12407265885E+04  0.00000000000E+00 0.  1.
          2   -1    0    0  501    0  0.00000000000E+00 -0.00000000000E+00 -0.25542160726E+04  0.25542160726E+04  0.00000000000E+00 0. -1.
         23    2    1    2    0    0 -0.89313554442E+03  0.11601428268E+04 -0.14562576450E+04  0.20671499174E+04  0.93808170301E+02 0.  0.
        254    2    1    2    0    0  0.89313554442E+03 -0.11601428268E+04  0.14276816087E+03  0.17277927437E+04  0.90623536582E+03 0.  0.
        -24    2    4    4    0    0  0.89622765075E+03 -0.12497801179E+04 -0.14084942223E+01  0.15400116935E+04  0.80372178391E+02 0.  0.
         24    2    4    4    0    0 -0.30921063385E+01  0.89637291092E+02  0.14417665509E+03  0.18778105028E+03  0.80189836610E+02 0.  0.
         11    1    3    3    0    0 -0.61653122711E+01  0.24042863308E+02 -0.15838201982E+02  0.29443488134E+02  0.00000000000E+00 0.  1.
        -11    1    3    3    0    0 -0.88697023214E+03  0.11360999635E+04 -0.14404194431E+04  0.20377064292E+04  0.00000000000E+00 0. -1.
          4    1    6    6  502    0  0.83926410912E+01  0.70826831074E+02  0.14902656221E+03  0.16521438396E+03  0.00000000000E+00 0. -1.
          3    1    5    5  503    0  0.80982446830E+03 -0.10930419296E+04 -0.15960651066E+02  0.13604451741E+04  0.00000000000E+00 0. -1.
         -4    1    5    5    0  503  0.86403182451E+02 -0.15673818829E+03  0.14552156844E+02  0.17956651936E+03  0.00000000000E+00 0.  1.
         -3    1    6    6    0  502 -0.11484747430E+02  0.18810460018E+02 -0.48499071188E+01  0.22566666317E+02  0.00000000000E+00 0.  1.
<mgrwt>
<rscale>  0 0.35603841E+04</rscale>
<asrwt>0</asrwt>
<pdfrwt beam="1">  1        2 0.39295632E+00 0.35603841E+04</pdfrwt>
<pdfrwt beam="2">  1       -2 0.19088102E+00 0.35603841E+04</pdfrwt>
<totfact> 0.40466997E-01</totfact>
</mgrwt>
</event>
<event>
12    1  0.1397649E-007  0.1319435E+04  0.7818608E-02  0.9014293E-01
          2   -1    0    0  501    0  0.00000000000E+00  0.00000000000E+00  0.30138611603E+04  0.30138611603E+04  0.00000000000E+00 0. -1.
         -2   -1    0    0    0  501 -0.00000000000E+00 -0.00000000000E+00 -0.14440859427E+03  0.14440859427E+03  0.00000000000E+00 0.  1.
         23    2    1    2    0    0  0.10711617215E+03  0.31350518694E+03  0.96871935553E+03  0.10300804936E+04  0.11353086374E+03 0.  0.
        254    2    1    2    0    0 -0.10711617215E+03 -0.31350518694E+03  0.19007332105E+04  0.21281892610E+04  0.89813329537E+03 0.  0.
        -24    2    4    4    0    0 -0.32080226129E+03 -0.54103121230E+03  0.12766672963E+04  0.14254525903E+04  0.80042728100E+02 0.  0.
         24    2    4    4    0    0  0.21368608914E+03  0.22752602537E+03  0.62406591423E+03  0.70273667062E+03  0.83371014241E+02 0.  0.
         11    1    3    3    0    0  0.50755016474E+01  0.30751929259E+02  0.25979710337E+02  0.40575697398E+02  0.00000000000E+00 0.  1.
        -11    1    3    3    0    0  0.10204067050E+03  0.28275325768E+03  0.94273964519E+03  0.98950479624E+03  0.00000000000E+00 0. -1.
          4    1    6    6  502    0  0.56935051427E+02  0.11984765124E+03  0.24369263145E+03  0.27747280625E+03  0.00000000000E+00 0. -1.
          3    1    5    5  503    0 -0.28660083012E+03 -0.50517727300E+03  0.12120184519E+04  0.13439988247E+04  0.00000000000E+00 0. -1.
         -4    1    5    5    0  503 -0.34201431164E+02 -0.35853939302E+02  0.64648844349E+02  0.81453765614E+02  0.00000000000E+00 0.  1.
         -3    1    6    6    0  502  0.15675103771E+03  0.10767837413E+03  0.38037328278E+03  0.42526386436E+03  0.00000000000E+00 0.  1.
<mgrwt>
<rscale>  0 0.13194354E+04</rscale>
<asrwt>0</asrwt>
<pdfrwt beam="1">  1        2 0.46367090E+00 0.13194354E+04</pdfrwt>
<pdfrwt beam="2">  1       -2 0.22216709E-01 0.13194354E+04</pdfrwt>
<totfact> 0.29971721E+01</totfact>
</mgrwt>
</event>
<event>
12    1  0.1397649E-007  0.1880130E+04  0.7818608E-02  0.8664811E-01
         -1   -1    0    0    0  501 -0.00000000000E+00  0.00000000000E+00  0.65952301271E+03  0.65952301271E+03  0.00000000000E+00 0.  1.
          1   -1    0    0  501    0  0.00000000000E+00 -0.00000000000E+00 -0.13399413177E+04  0.13399413177E+04  0.00000000000E+00 0. -1.
         23    2    1    2    0    0 -0.43013755980E+03 -0.48911311453E+03  0.66374363060E+02  0.66073441331E+03  0.88963192978E+02 0.  0.
        254    2    1    2    0    0  0.43013755980E+03  0.48911311453E+03 -0.74679266806E+03  0.13387299171E+04  0.90013806871E+03 0.  0.
        -24    2    4    4    0    0  0.59415578240E+03  0.11634371488E+02 -0.42411455842E+03  0.73441053197E+03  0.79556385374E+02 0.  0.
         24    2    4    4    0    0 -0.16401822260E+03  0.47747874304E+03 -0.32267810964E+03  0.60431938513E+03  0.78694532257E+02 0.  0.
         11    1    3    3    0    0 -0.11246653700E+03 -0.11297885441E+03  0.53775528368E+02  0.16824015852E+03  0.00000000000E+00 0.  1.
        -11    1    3    3    0    0 -0.31767102280E+03 -0.37613426012E+03  0.12598834692E+02  0.49249425479E+03  0.00000000000E+00 0. -1.
          2    1    6    6  502    0 -0.75138328484E+02  0.16916579900E+03 -0.78277336749E+02  0.20097307632E+03  0.00000000000E+00 0. -1.
          3    1    5    5  503    0  0.33544207141E+03  0.44868173852E+02 -0.25104436267E+03  0.42137608893E+03  0.00000000000E+00 0. -1.
         -4    1    5    5    0  503  0.25871371099E+03 -0.33233802364E+02 -0.17307019575E+03  0.31303444304E+03  0.00000000000E+00 0.  1.
         -1    1    6    6    0  502 -0.88879894118E+02  0.30831294404E+03 -0.24440077289E+03  0.40334630881E+03  0.00000000000E+00 0.  1.
<mgrwt>
<rscale>  0 0.18801299E+04</rscale>
<asrwt>0</asrwt>
<pdfrwt beam="1">  1        1 0.20614482E+00 0.18801299E+04</pdfrwt>
<pdfrwt beam="2">  1       -1 0.10146508E+00 0.18801299E+04</pdfrwt>
<totfact> 0.73185526E+00</totfact>
</mgrwt>
</event>
<event>
12    1  0.1397649E-007  0.1471865E+04  0.7818608E-02  0.8903381E-01
         -1   -1    0    0    0  501 -0.00000000000E+00  0.00000000000E+00  0.13895102287E+04  0.13895102287E+04  0.00000000000E+00 0.  1.
          1   -1    0    0  501    0  0.00000000000E+00 -0.00000000000E+00 -0.38977507058E+03  0.38977507058E+03  0.00000000000E+00 0. -1.
         23    2    1    2    0    0  0.24253405964E+03  0.40268527271E+03  0.23883299454E+03  0.53513086294E+03  0.91354486731E+02 0.  0.
        254    2    1    2    0    0 -0.24253405964E+03 -0.40268527271E+03  0.76090216362E+03  0.12441544364E+04  0.86485256548E+03 0.  0.
        -24    2    4    4    0    0  0.20381030018E+02 -0.48034543703E+03  0.81876316232E+03  0.95279378133E+03  0.79345752917E+02 0.  0.
         24    2    4    4    0    0 -0.26291508966E+03  0.77660164322E+02 -0.57860998704E+02  0.29136065505E+03  0.79923029527E+02 0.  0.
         11    1    3    3    0    0  0.72301103142E+02  0.19072133085E+03  0.13244724240E+03  0.24319610930E+03  0.00000000000E+00 0.  1.
        -11    1    3    3    0    0  0.17023295650E+03  0.21196394185E+03  0.10638575214E+03  0.29193475364E+03  0.00000000000E+00 0. -1.
          4    1    6    6  502    0 -0.84764706652E+02  0.62402593006E+02 -0.35916002051E+02  0.11121644802E+03  0.00000000000E+00 0. -1.
          3    1    5    5  503    0 -0.12613054302E+01 -0.38605751120E+03  0.70208413114E+03  0.80122663463E+03  0.00000000000E+00 0. -1.
         -4    1    5    5    0  503  0.21642335448E+02 -0.94287925823E+02  0.11667903118E+03  0.15156714670E+03  0.00000000000E+00 0.  1.
         -3    1    6    6    0  502 -0.17815038301E+03  0.15257571316E+02 -0.21944996653E+02  0.18014420703E+03  0.00000000000E+00 0.  1.
<mgrwt>
<rscale>  0 0.14718647E+04</rscale>
<asrwt>0</asrwt>
<pdfrwt beam="1">  1        1 0.59965396E-01 0.14718647E+04</pdfrwt>
<pdfrwt beam="2">  1       -1 0.21377080E+00 0.14718647E+04</pdfrwt>
<totfact> 0.72980755E+00</totfact>
</mgrwt>
</event>
<event>
12    1  0.1397649E-007  0.1443559E+04  0.7818608E-02  0.8922878E-01
          2   -1    0    0  501    0  0.00000000000E+00  0.00000000000E+00  0.68437291232E+03  0.68437291232E+03  0.00000000000E+00 0. -1.
         -2   -1    0    0    0  501 -0.00000000000E+00 -0.00000000000E+00 -0.76123116150E+03  0.76123116150E+03  0.00000000000E+00 0.  1.
         23    2    1    2    0    0  0.28664724788E+03 -0.13390805763E+03  0.28610862638E+03  0.43618991931E+03  0.91134444652E+02 0.  0.
        254    2    1    2    0    0 -0.28664724788E+03  0.13390805763E+03 -0.36296687556E+03  0.10094141545E+04  0.88717189427E+03 0.  0.
        -24    2    4    4    0    0  0.18198458339E+03  0.29167501893E+03  0.54127714154E+02  0.35831328939E+03  0.85240240815E+02 0.  0.
         24    2    4    4    0    0 -0.46863183127E+03 -0.15776696131E+03 -0.41709458971E+03  0.65110086513E+03  0.73879851416E+02 0.  0.
         13    1    3    3    0    0  0.22266395650E+01 -0.63030488333E+01 -0.60004842134E+01  0.89828814499E+01  0.00000000000E+00 0.  1.
        -13    1    3    3    0    0  0.28442060831E+03 -0.12760500879E+03  0.29210911059E+03  0.42720703786E+03  0.00000000000E+00 0. -1.
          2    1    6    6  502    0 -0.23491991418E+03 -0.87126719395E+02 -0.16412158619E+03  0.29952349885E+03  0.00000000000E+00 0. -1.
          1    1    5    5  503    0  0.73338733868E+02  0.54775486276E+02 -0.26530777438E+01  0.91574901603E+02  0.00000000000E+00 0. -1.
         -2    1    5    5    0  503  0.10864584952E+03  0.23689953266E+03  0.56780791898E+02  0.26673838779E+03  0.00000000000E+00 0.  1.
         -1    1    6    6    0  502 -0.23371191708E+03 -0.70640241910E+02 -0.25297300352E+03  0.35157736627E+03  0.00000000000E+00 0.  1.
<mgrwt>
<rscale>  0 0.14435595E+04</rscale>
<asrwt>0</asrwt>
<pdfrwt beam="1">  1        2 0.10528814E+00 0.14435595E+04</pdfrwt>
<pdfrwt beam="2">  1       -2 0.11711249E+00 0.14435595E+04</pdfrwt>
<totfact> 0.23065823E+01</totfact>
</mgrwt>
</event>
<event>
12    1  0.1397649E-007  0.1425872E+04  0.7818608E-02  0.8935301E-01
         -4   -1    0    0    0  501 -0.00000000000E+00  0.00000000000E+00  0.11765148822E+04  0.11765148822E+04  0.00000000000E+00 0.  1.
          4   -1    0    0  501    0  0.00000000000E+00 -0.00000000000E+00 -0.43201989953E+03  0.43201989953E+03  0.00000000000E+00 0. -1.
         23    2    1    2    0    0 -0.65799006007E+02  0.19514754177E+03 -0.19370451936E+03  0.29697831411E+03  0.90898877765E+02 0.  0.
        254    2    1    2    0    0  0.65799006007E+02 -0.19514754177E+03  0.93819950201E+03  0.13115564676E+04  0.89305654348E+03 0.  0.
        -24    2    4    4    0    0  0.45146583472E+03  0.33539137100E+02  0.43721018015E+03  0.63448254195E+03  0.80430595959E+02 0.  0.
         24    2    4    4    0    0 -0.38566682872E+03 -0.22868667887E+03  0.50098932186E+03  0.67707392565E+03  0.80014375636E+02 0.  0.
         13    1    3    3    0    0 -0.76995190739E+02  0.16843198775E+03 -0.12786682954E+03  0.22505003886E+03  0.00000000000E+00 0.  1.
        -13    1    3    3    0    0  0.11196184732E+02  0.26715554022E+02 -0.65837689822E+02  0.71928275250E+02  0.00000000000E+00 0. -1.
          2    1    6    6  502    0 -0.31964182219E+03 -0.18571562780E+03  0.36253198869E+03  0.51777469205E+03  0.00000000000E+00 0. -1.
          3    1    5    5  503    0  0.34557338904E+03  0.36013212614E+02  0.28682889979E+03  0.45054271324E+03  0.00000000000E+00 0. -1.
         -4    1    5    5    0  503  0.10589244568E+03 -0.24740755145E+01  0.15038128036E+03  0.18393982870E+03  0.00000000000E+00 0.  1.
         -1    1    6    6    0  502 -0.66025006530E+02 -0.42971051069E+02  0.13845733317E+03  0.15929923360E+03  0.00000000000E+00 0.  1.
<mgrwt>
<rscale>  0 0.14258721E+04</rscale>
<asrwt>0</asrwt>
<pdfrwt beam="1">  1        4 0.66464601E-01 0.14258721E+04</pdfrwt>
<pdfrwt beam="2">  1       -4 0.18100229E+00 0.14258721E+04</pdfrwt>
<totfact> 0.72103537E-01</totfact>
</mgrwt>
</event>
<event>
12    1  0.1397649E-007  0.1473522E+04  0.7818608E-02  0.8902254E-01
          1   -1    0    0  501    0  0.00000000000E+00  0.00000000000E+00  0.76143788396E+03  0.76143788396E+03  0.00000000000E+00 0. -1.
         -1   -1    0    0    0  501 -0.00000000000E+00 -0.00000000000E+00 -0.71288362423E+03  0.71288362423E+03  0.00000000000E+00 0.  1.
         23    2    1    2    0    0 -0.37111339072E+02 -0.19370733591E+03 -0.38894225953E+03  0.44568482754E+03  0.91973369924E+02 0.  0.
        254    2    1    2    0    0  0.37111339072E+02  0.19370733591E+03  0.43749651926E+03  0.10286366806E+04  0.90982989231E+03 0.  0.
        -24    2    4    4    0    0  0.15828419441E+03  0.52526060434E+03  0.34845794425E+03  0.65496121198E+03  0.81232146460E+02 0.  0.
         24    2    4    4    0    0 -0.12117285534E+03 -0.33155326843E+03  0.89038575014E+02  0.37367546867E+03  0.84232163484E+02 0.  0.
         11    1    3    3    0    0 -0.15574791314E+02 -0.15987254382E+03 -0.22215810638E+03  0.27414599874E+03  0.00000000000E+00 0.  1.
        -11    1    3    3    0    0 -0.21536547757E+02 -0.33834792090E+02 -0.16678415315E+03  0.17153882880E+03  0.00000000000E+00 0. -1.
          4    1    6    6  502    0 -0.62581254456E+02 -0.12997764808E+03  0.76732604164E+02  0.16339674094E+03  0.00000000000E+00 0. -1.
          1    1    5    5  503    0  0.13909460589E+02  0.24135821630E+02  0.41000373936E+02  0.49568554977E+02  0.00000000000E+00 0. -1.
         -2    1    5    5    0  503  0.14437473382E+03  0.50112478271E+03  0.30745757031E+03  0.60539265700E+03  0.00000000000E+00 0.  1.
         -3    1    6    6    0  502 -0.58591600885E+02 -0.20157562035E+03  0.12305970850E+02  0.21027872772E+03  0.00000000000E+00 0.  1.
<mgrwt>
<rscale>  0 0.14735218E+04</rscale>
<asrwt>0</asrwt>
<pdfrwt beam="1">  1        1 0.11714429E+00 0.14735218E+04</pdfrwt>
<pdfrwt beam="2">  1       -1 0.10967440E+00 0.14735218E+04</pdfrwt>
<totfact> 0.17826581E+01</totfact>
</mgrwt>
</event>
<event>
12    1  0.1397649E-007  0.2967191E+04  0.7818608E-02  0.8253162E-01
         -2   -1    0    0    0  501 -0.00000000000E+00  0.00000000000E+00  0.19608040358E+04  0.19608040358E+04  0.00000000000E+00 0.  1.
          2   -1    0    0  501    0  0.00000000000E+00 -0.00000000000E+00 -0.11225271690E+04  0.11225271690E+04  0.00000000000E+00 0. -1.
         23    2    1    2    0    0 -0.51055753950E+03 -0.11139654699E+04  0.95987210024E+03  0.15592370998E+04  0.90982500670E+02 0.  0.
        254    2    1    2    0    0  0.51055753950E+03  0.11139654699E+04 -0.12159523346E+03  0.15240941050E+04  0.89804753256E+03 0.  0.
        -24    2    4    4    0    0  0.32787809666E+03  0.77869643991E+03 -0.49578963316E+03  0.98288338674E+03  0.79876152797E+02 0.  0.
         24    2    4    4    0    0  0.18267944284E+03  0.33526903000E+03  0.37419439971E+03  0.54121071823E+03  0.84323730041E+02 0.  0.
         11    1    3    3    0    0 -0.22380300245E+03 -0.44498027357E+03  0.33852697470E+03  0.60224226054E+03  0.00000000000E+00 0. -1.
        -11    1    3    3    0    0 -0.28675453705E+03 -0.66898519633E+03  0.62134512554E+03  0.95699483931E+03  0.00000000000E+00 0.  1.
          4    1    6    6  502    0  0.25802916817E+02  0.12933706903E+03  0.11733166641E+03  0.17652361849E+03  0.00000000000E+00 0. -1.
          1    1    5    5  503    0  0.73625149462E+02  0.11183668908E+03 -0.96991075910E+02  0.16533413581E+03  0.00000000000E+00 0. -1.
         -2    1    5    5    0  503  0.25425294720E+03  0.66685975083E+03 -0.39879855725E+03  0.81754925093E+03  0.00000000000E+00 0.  1.
         -3    1    6    6    0  502  0.15687652602E+03  0.20593196097E+03  0.25686273330E+03  0.36468709975E+03  0.00000000000E+00 0.  1.
<mgrwt>
<rscale>  0 0.29671911E+04</rscale>
<asrwt>0</asrwt>
<pdfrwt beam="1">  1        2 0.17269649E+00 0.29671911E+04</pdfrwt>
<pdfrwt beam="2">  1       -2 0.30166216E+00 0.29671911E+04</pdfrwt>
<totfact> 0.56229135E-01</totfact>
</mgrwt>
</event>
<event>
12    1  0.1397649E-007  0.3111615E+04  0.7818608E-02  0.8212557E-01
         -2   -1    0    0    0  501 -0.00000000000E+00  0.00000000000E+00  0.16205499978E+04  0.16205499978E+04  0.00000000000E+00 0.  1.
          2   -1    0    0  501    0  0.00000000000E+00 -0.00000000000E+00 -0.14936515205E+04  0.14936515205E+04  0.00000000000E+00 0. -1.
         23    2    1    2    0    0  0.13260074469E+03  0.12771120371E+04  0.67388675161E+03  0.14530138994E+04  0.92346765685E+02 0.  0.
        254    2    1    2    0    0 -0.13260074469E+03 -0.12771120371E+04 -0.54698827430E+03  0.16611876188E+04  0.90097170882E+03 0.  0.
        -24    2    4    4    0    0 -0.13303705160E+03  0.55230398518E+02 -0.23958515721E+03  0.29108737439E+03  0.81126801696E+02 0.  0.
         24    2    4    4    0    0  0.43630690923E+00 -0.13323424356E+04 -0.30740311708E+03  0.13701002445E+04  0.86841507761E+02 0.  0.
         13    1    3    3    0    0  0.43988692670E+02  0.39301213768E+03  0.16020691314E+03  0.42668466162E+03  0.00000000000E+00 0. -1.
        -13    1    3    3    0    0  0.88612052016E+02  0.88409989938E+03  0.51367983847E+03  0.10263292378E+04  0.00000000000E+00 0.  1.
          2    1    6    6  502    0  0.26526514793E+02 -0.21436094223E+03 -0.68311976933E+02  0.22654093611E+03  0.00000000000E+00 0. -1.
          3    1    5    5  503    0 -0.46065549395E+02  0.12913278368E+02 -0.21368456678E+02  0.52396550841E+02  0.00000000000E+00 0. -1.
         -4    1    5    5    0  503 -0.86971502200E+02  0.42317120150E+02 -0.21821670054E+03  0.23869082355E+03  0.00000000000E+00 0.  1.
         -1    1    6    6    0  502 -0.26090207884E+02 -0.11179814933E+04 -0.23909114015E+03  0.11435593083E+04  0.00000000000E+00 0.  1.
<mgrwt>
<rscale>  0 0.31116150E+04</rscale>
<asrwt>0</asrwt>
<pdfrwt beam="1">  1        2 0.22979254E+00 0.31116150E+04</pdfrwt>
<pdfrwt beam="2">  1       -2 0.24931538E+00 0.31116150E+04</pdfrwt>
<totfact> 0.70447019E-01</totfact>
</mgrwt>
</event>
<event>
12    1  0.1397649E-007  0.3308313E+04  0.7818608E-02  0.8160783E-01
         -1   -1    0    0    0  501 -0.00000000000E+00  0.00000000000E+00  0.21595783836E+04  0.21595783836E+04  0.00000000000E+00 0.  1.
          1   -1    0    0  501    0  0.00000000000E+00 -0.00000000000E+00 -0.12670222898E+04  0.12670222898E+04  0.00000000000E+00 0. -1.
         23    2    1    2    0    0 -0.28385977886E+02  0.33359268915E+03 -0.11383975440E+04  0.11901290923E+04  0.91479189677E+02 0.  0.
        254    2    1    2    0    0  0.28385977886E+02 -0.33359268915E+03  0.20309536378E+04  0.22364715810E+04  0.87460997474E+03 0.  0.
        -24    2    4    4    0    0 -0.37822011585E+03 -0.24815964138E+03  0.68228952626E+03  0.82280372828E+03  0.82784744884E+02 0.  0.
         24    2    4    4    0    0  0.40660609374E+03 -0.85433047772E+02  0.13486641115E+04  0.14136678528E+04  0.83274191999E+02 0.  0.
         11    1    3    3    0    0 -0.44098444734E+02  0.70353754901E+02 -0.25097188527E+03  0.26435054540E+03  0.00000000000E+00 0. -1.
        -11    1    3    3    0    0  0.15712466848E+02  0.26323893425E+03 -0.88742565872E+03  0.92577854689E+03  0.00000000000E+00 0.  1.
          2    1    6    6  502    0  0.22447767244E+03 -0.86668193776E+02  0.71943943451E+03  0.75861367056E+03  0.00000000000E+00 0. -1.
          1    1    5    5  503    0 -0.43611167599E+02 -0.63667277700E+02  0.99445718419E+02  0.12587655501E+03  0.00000000000E+00 0. -1.
         -2    1    5    5    0  503 -0.33460894825E+03 -0.18449236368E+03  0.58284380784E+03  0.69692717327E+03  0.00000000000E+00 0.  1.
         -1    1    6    6    0  502  0.18212842130E+03  0.12351460037E+01  0.62922467703E+03  0.65505418219E+03  0.00000000000E+00 0.  1.
<mgrwt>
<rscale>  0 0.33083131E+04</rscale>
<asrwt>0</asrwt>
<pdfrwt beam="1">  1        1 0.19492651E+00 0.33083131E+04</pdfrwt>
<pdfrwt beam="2">  1       -1 0.33224283E+00 0.33083131E+04</pdfrwt>
<totfact> 0.16111049E-01</totfact>
</mgrwt>
</event>
<event>
12    1  0.1397649E-007  0.1357883E+04  0.7818608E-02  0.8984882E-01
          2   -1    0    0  501    0  0.00000000000E+00  0.00000000000E+00  0.13171432434E+04  0.13171432434E+04  0.00000000000E+00 0. -1.
         -2   -1    0    0    0  501 -0.00000000000E+00 -0.00000000000E+00 -0.34997089643E+03  0.34997089643E+03  0.00000000000E+00 0.  1.
         23    2    1    2    0    0 -0.21618253011E+03 -0.30275337120E+03  0.28727270077E+03  0.47882260646E+03  0.91383771777E+02 0.  0.
        254    2    1    2    0    0  0.21618253011E+03  0.30275337120E+03  0.67989964621E+03  0.11882915334E+04  0.90076564615E+03 0.  0.
        -24    2    4    4    0    0  0.39142070357E+03 -0.19172692898E+03  0.28797492438E+03  0.52849089097E+03  0.80023010959E+02 0.  0.
         24    2    4    4    0    0 -0.17523817346E+03  0.49448030018E+03  0.39192472183E+03  0.65980064241E+03  0.80701396737E+02 0.  0.
         13    1    3    3    0    0 -0.63667077628E+02 -0.48477345452E+02  0.27499820731E+02  0.84615541929E+02  0.00000000000E+00 0. -1.
        -13    1    3    3    0    0 -0.15251545249E+03 -0.25427602575E+03  0.25977288004E+03  0.39420706453E+03  0.00000000000E+00 0.  1.
          2    1    6    6  502    0 -0.15860337374E+03  0.47878914228E+03  0.38855512714E+03  0.63668607630E+03  0.00000000000E+00 0. -1.
          3    1    5    5  503    0  0.12139161538E+03 -0.55500022933E+02  0.46072067884E+02  0.14120485923E+03  0.00000000000E+00 0. -1.
         -4    1    5    5    0  503  0.27002908820E+03 -0.13622690605E+03  0.24190285649E+03  0.38728603174E+03  0.00000000000E+00 0.  1.
         -1    1    6    6    0  502 -0.16634799718E+02  0.15691157901E+02  0.33695946885E+01  0.23114566106E+02  0.00000000000E+00 0.  1.
<mgrwt>
<rscale>  0 0.13578834E+04</rscale>
<asrwt>0</asrwt>
<pdfrwt beam="1">  1        2 0.20263742E+00 0.13578834E+04</pdfrwt>
<pdfrwt beam="2">  1       -2 0.53841677E-01 0.13578834E+04</pdfrwt>
<totfact> 0.51240887E+01</totfact>
</mgrwt>
</event>
<event>
12    1  0.1397649E-007  0.1609021E+04  0.7818608E-02  0.8815025E-01
          1   -1    0    0  501    0  0.00000000000E+00  0.00000000000E+00  0.13785782170E+04  0.13785782170E+04  0.00000000000E+00 0. -1.
         -1   -1    0    0    0  501 -0.00000000000E+00 -0.00000000000E+00 -0.46949595173E+03  0.46949595173E+03  0.00000000000E+00 0.  1.
         23    2    1    2    0    0  0.33400783227E+03  0.39994193249E+03  0.10842071147E+03  0.54011676392E+03  0.91958069872E+02 0.  0.
        254    2    1    2    0    0 -0.33400783227E+03 -0.39994193249E+03  0.80066155379E+03  0.13079574048E+04  0.89340856704E+03 0.  0.
        -24    2    4    4    0    0 -0.62363255015E+03 -0.37574343469E+03  0.54714632325E+03  0.91421954114E+03  0.79546112614E+02 0.  0.
         24    2    4    4    0    0  0.28962471787E+03 -0.24198497792E+02  0.25351523054E+03  0.39373786366E+03  0.79318904838E+02 0.  0.
         13    1    3    3    0    0  0.66901290605E+02  0.34299984062E+02  0.32581535948E+01  0.75252157152E+02  0.00000000000E+00 0. -1.
        -13    1    3    3    0    0  0.26710654167E+03  0.36564194842E+03  0.10516255788E+03  0.46486460677E+03  0.00000000000E+00 0.  1.
          4    1    6    6  502    0  0.26331276279E+02  0.18662687142E+02  0.43837388711E+02  0.54436648049E+02  0.00000000000E+00 0. -1.
          1    1    5    5  503    0 -0.61203383793E+02 -0.29693679337E+02  0.25390314858E+02  0.72610170561E+02  0.00000000000E+00 0. -1.
         -2    1    5    5    0  503 -0.56242916635E+03 -0.34604975536E+03  0.52175600839E+03  0.84160937058E+03  0.00000000000E+00 0.  1.
         -3    1    6    6    0  502  0.26329344159E+03 -0.42861184934E+02  0.20967784183E+03  0.33930121561E+03  0.00000000000E+00 0.  1.
<mgrwt>
<rscale>  0 0.16090207E+04</rscale>
<asrwt>0</asrwt>
<pdfrwt beam="1">  1        1 0.21208895E+00 0.16090207E+04</pdfrwt>
<pdfrwt beam="2">  1       -1 0.72230147E-01 0.16090207E+04</pdfrwt>
<totfact> 0.14748766E+01</totfact>
</mgrwt>
</event>
<event>
12    1  0.1397649E-007  0.1327973E+04  0.7818608E-02  0.9007672E-01
         -2   -1    0    0    0  501 -0.00000000000E+00  0.00000000000E+00  0.26667110407E+03  0.26667110407E+03  0.00000000000E+00 0.  1.
          2   -1    0    0  501    0  0.00000000000E+00 -0.00000000000E+00 -0.16532641935E+04  0.16532641935E+04  0.00000000000E+00 0. -1.
         23    2    1    2    0    0 -0.16493298467E+03 -0.26050430614E+03 -0.13322831757E+03  0.34804255060E+03  0.91205534242E+02 0.  0.
        254    2    1    2    0    0  0.16493298467E+03  0.26050430614E+03 -0.12533647719E+04  0.15718927470E+04  0.89713888204E+03 0.  0.
        -24    2    4    4    0    0 -0.22476531926E+03  0.15536573951E+03 -0.36053696080E+02  0.28697884510E+03  0.79993917167E+02 0.  0.
         24    2    4    4    0    0  0.38969830393E+03  0.10513856664E+03 -0.12173110758E+04  0.12849139019E+04  0.78984768682E+02 0.  0.
         13    1    3    3    0    0 -0.11060313248E+02 -0.20220370810E+02  0.14000737005E+02  0.26966916055E+02  0.00000000000E+00 0. -1.
        -13    1    3    3    0    0 -0.15387267142E+03 -0.24028393533E+03 -0.14722905457E+03  0.32107563455E+03  0.00000000000E+00 0.  1.
          2    1    6    6  502    0  0.23709867133E+02  0.28271124389E+02 -0.93761001276E+02  0.10075981160E+03  0.00000000000E+00 0. -1.
          3    1    5    5  503    0 -0.76408034015E+02  0.15951731158E+02 -0.29015603588E+02  0.83273949351E+02  0.00000000000E+00 0. -1.
         -4    1    5    5    0  503 -0.14835728524E+03  0.13941400835E+03 -0.70380924923E+01  0.20370489575E+03  0.00000000000E+00 0.  1.
         -1    1    6    6    0  502  0.36598843679E+03  0.76867442248E+02 -0.11235500746E+04  0.11841540903E+04  0.00000000000E+00 0.  1.
<mgrwt>
<rscale>  0 0.13279726E+04</rscale>
<asrwt>0</asrwt>
<pdfrwt beam="1">  1        2 0.25434834E+00 0.13279726E+04</pdfrwt>
<pdfrwt beam="2">  1       -2 0.41026324E-01 0.13279726E+04</pdfrwt>
<totfact> 0.57309780E+01</totfact>
</mgrwt>
</event>
<event>
12    1  0.1397649E-007  0.1433244E+04  0.7818608E-02  0.8930101E-01
         -2   -1    0    0    0  501 -0.00000000000E+00  0.00000000000E+00  0.19233262400E+04  0.19233262400E+04  0.00000000000E+00 0.  1.
          2   -1    0    0  501    0  0.00000000000E+00 -0.00000000000E+00 -0.26700969438E+03  0.26700969438E+03  0.00000000000E+00 0. -1.
         23    2    1    2    0    0  0.14280032042E+03 -0.19673350698E+03 -0.31965468708E+02  0.26188820059E+03  0.92019748634E+02 0.  0.
        254    2    1    2    0    0 -0.14280032042E+03  0.19673350698E+03  0.16882820143E+04  0.19284477338E+04  0.89973245899E+03 0.  0.
        -24    2    4    4    0    0 -0.34446025690E+02  0.47076464153E+03  0.14898446605E+04  0.15649238736E+04  0.80893393792E+02 0.  0.
         24    2    4    4    0    0 -0.10835429472E+03 -0.27403113455E+03  0.19843735378E+03  0.36352386020E+03  0.77061648512E+02 0.  0.
         13    1    3    3    0    0  0.71987584494E+02 -0.40653012379E+02  0.15345020083E+02  0.84085369584E+02  0.00000000000E+00 0.  1.
        -13    1    3    3    0    0  0.70812735921E+02 -0.15608049461E+03 -0.47310488790E+02  0.17780283101E+03  0.00000000000E+00 0. -1.
          4    1    6    6  502    0 -0.10744786907E+03 -0.18505436546E+03  0.12266335332E+03  0.24665048346E+03  0.00000000000E+00 0. -1.
          3    1    5    5  503    0 -0.45002536899E+02  0.37260137310E+03  0.12615927004E+04  0.13162344599E+04  0.00000000000E+00 0. -1.
         -4    1    5    5    0  503  0.10556511209E+02  0.98163268431E+02  0.22825196007E+03  0.24868941367E+03  0.00000000000E+00 0.  1.
         -3    1    6    6    0  502 -0.90642565899E+00 -0.88976769085E+02  0.75774000461E+02  0.11687337674E+03  0.00000000000E+00 0.  1.
<mgrwt>
<rscale>  0 0.14332435E+04</rscale>
<asrwt>0</asrwt>
<pdfrwt beam="1">  1        2 0.41078416E-01 0.14332435E+04</pdfrwt>
<pdfrwt beam="2">  1       -2 0.29589634E+00 0.14332435E+04</pdfrwt>
<totfact> 0.41054189E+00</totfact>
</mgrwt>
</event>
<event>
12    1  0.1397649E-007  0.1796904E+04  0.7818608E-02  0.8707948E-01
         -1   -1    0    0    0  501 -0.00000000000E+00  0.00000000000E+00  0.29344420257E+03  0.29344420257E+03  0.00000000000E+00 0.  1.
          1   -1    0    0  501    0  0.00000000000E+00 -0.00000000000E+00 -0.27508319172E+04  0.27508319172E+04  0.00000000000E+00 0. -1.
         23    2    1    2    0    0  0.13248451289E+03 -0.38496572538E+03 -0.17512108099E+04  0.18002806533E+04  0.92305871867E+02 0.  0.
        254    2    1    2    0    0 -0.13248451289E+03  0.38496572538E+03 -0.70617690472E+03  0.12439954665E+04  0.93972769673E+03 0.  0.
        -24    2    4    4    0    0  0.37543481786E+03  0.32344955681E+03 -0.29024612707E+03  0.57978902883E+03  0.79634071929E+02 0.  0.
         24    2    4    4    0    0 -0.50791933075E+03  0.61516168574E+02 -0.41593077764E+03  0.66420643765E+03  0.80034333154E+02 0.  0.
         13    1    3    3    0    0  0.53883961070E+02 -0.22142931494E+03 -0.79553171106E+03  0.82752953184E+03  0.00000000000E+00 0.  1.
        -13    1    3    3    0    0  0.78600551821E+02 -0.16353641044E+03 -0.95567909883E+03  0.97275112142E+03  0.00000000000E+00 0. -1.
          4    1    6    6  502    0 -0.21078654301E+03 -0.14030529793E+02 -0.17205614983E+03  0.27245392487E+03  0.00000000000E+00 0. -1.
          1    1    5    5  503    0  0.15990294348E+02  0.30169454295E+02 -0.32955720185E+01  0.34303735668E+02  0.00000000000E+00 0. -1.
         -2    1    5    5    0  503  0.35944452351E+03  0.29328010251E+03 -0.28695055505E+03  0.54548529316E+03  0.00000000000E+00 0.  1.
         -3    1    6    6    0  502 -0.29713278773E+03  0.75546698367E+02 -0.24387462781E+03  0.39175251278E+03  0.00000000000E+00 0.  1.
<mgrwt>
<rscale>  0 0.17969036E+04</rscale>
<asrwt>0</asrwt>
<pdfrwt beam="1">  1        1 0.42320492E+00 0.17969036E+04</pdfrwt>
<pdfrwt beam="2">  1       -1 0.45145261E-01 0.17969036E+04</pdfrwt>
<totfact> 0.41587807E+00</totfact>
</mgrwt>
</event>
<event>
12    1  0.1397649E-007  0.2891064E+04  0.7818608E-02  0.8275541E-01
          1   -1    0    0  501    0  0.00000000000E+00  0.00000000000E+00  0.14433199252E+04  0.14433199252E+04  0.00000000000E+00 0. -1.
         -1   -1    0    0    0  501 -0.00000000000E+00 -0.00000000000E+00 -0.14477469805E+04  0.14477469805E+04  0.00000000000E+00 0.  1.
         23    2    1    2    0    0  0.10958599467E+04  0.63005179783E+03  0.32998822160E+03  0.13096179712E+04  0.91283696397E+02 0.  0.
        254    2    1    2    0    0 -0.10958599467E+04 -0.63005179783E+03 -0.33441527697E+03  0.15814489345E+04  0.88953519561E+03 0.  0.
        -24    2    4    4    0    0 -0.47723390688E+03  0.52459315527E+02 -0.43330327850E+03  0.65160238566E+03  0.79559764799E+02 0.  0.
         24    2    4    4    0    0 -0.61862603985E+03 -0.68251111336E+03  0.98888001531E+02  0.92984654886E+03  0.79474338900E+02 0.  0.
         13    1    3    3    0    0  0.15749746894E+03  0.12818217023E+03  0.45420262992E+02  0.20808441022E+03  0.00000000000E+00 0.  1.
        -13    1    3    3    0    0  0.93836247779E+03  0.50186962760E+03  0.28456795861E+03  0.11015335610E+04  0.00000000000E+00 0. -1.
          2    1    6    6  502    0 -0.34723828425E+03 -0.43925580462E+03  0.50593294309E+02  0.56220972009E+03  0.00000000000E+00 0. -1.
          1    1    5    5  503    0 -0.84884181239E+00 -0.62513547854E+01 -0.87970860518E+01  0.10825372607E+02  0.00000000000E+00 0. -1.
         -2    1    5    5    0  503 -0.47638506506E+03  0.58710670313E+02 -0.42450619245E+03  0.64077701305E+03  0.00000000000E+00 0.  1.
         -1    1    6    6    0  502 -0.27138775560E+03 -0.24325530874E+03  0.48294707222E+02  0.36763682877E+03  0.00000000000E+00 0.  1.
<mgrwt>
<rscale>  0 0.28910635E+04</rscale>
<asrwt>0</asrwt>
<pdfrwt beam="1">  1        1 0.22204922E+00 0.28910635E+04</pdfrwt>
<pdfrwt beam="2">  1       -1 0.22273030E+00 0.28910635E+04</pdfrwt>
<totfact> 0.64936224E-01</totfact>
</mgrwt>
</event>
<event>
12    1  0.1397649E-007  0.1631142E+04  0.7818608E-02  0.8801642E-01
         -1   -1    0    0    0  501 -0.00000000000E+00  0.00000000000E+00  0.19958911144E+03  0.19958911144E+03  0.00000000000E+00 0.  1.
          1   -1    0    0  501    0  0.00000000000E+00 -0.00000000000E+00 -0.33326259421E+04  0.33326259421E+04  0.00000000000E+00 0. -1.
         23    2    1    2    0    0  0.48393647174E+03  0.16970103433E+03 -0.15577367628E+04  0.16425607959E+04  0.92028235867E+02 0.  0.
        254    2    1    2    0    0 -0.48393647174E+03 -0.16970103433E+03 -0.15753000679E+04  0.18896542577E+04  0.90897192480E+03 0.  0.
        -24    2    4    4    0    0 -0.23365365373E+03  0.16566244204E+03 -0.44227313950E+02  0.30037904296E+03  0.78952134513E+02 0.  0.
         24    2    4    4    0    0 -0.25028281800E+03 -0.33536347637E+03 -0.15310727539E+04  0.15892752147E+04  0.80633616559E+02 0.  0.
         13    1    3    3    0    0  0.39535906623E+03  0.11014014255E+03 -0.13106075366E+04  0.13733651216E+04  0.00000000000E+00 0. -1.
        -13    1    3    3    0    0  0.88577405508E+02  0.59560891785E+02 -0.24712922620E+03  0.26919567426E+03  0.00000000000E+00 0.  1.
          2    1    6    6  502    0 -0.16815620321E+03 -0.22832775804E+03 -0.88701152461E+03  0.93123547965E+03  0.00000000000E+00 0. -1.
          3    1    5    5  503    0  0.59501679408E+01  0.13075327206E+01 -0.33781246869E+01  0.69660510147E+01  0.00000000000E+00 0. -1.
         -4    1    5    5    0  503 -0.23960382168E+03  0.16435490932E+03 -0.40849189263E+02  0.29341299194E+03  0.00000000000E+00 0.  1.
         -1    1    6    6    0  502 -0.82126614791E+02 -0.10703571833E+03 -0.64406122930E+03  0.65803973508E+03  0.00000000000E+00 0.  1.
<mgrwt>
<rscale>  0 0.16311417E+04</rscale>
<asrwt>0</asrwt>
<pdfrwt beam="1">  1        1 0.51271167E+00 0.16311417E+04</pdfrwt>
<pdfrwt beam="2">  1       -1 0.30706018E-01 0.16311417E+04</pdfrwt>
<totfact> 0.31844544E+00</totfact>
</mgrwt>
</event>
<event>
12    1  0.1397649E-007  0.2447835E+04  0.7818608E-02  0.8421809E-01
         -1   -1    0    0    0  501 -0.00000000000E+00  0.00000000000E+00  0.62262602943E+03  0.62262602943E+03  0.00000000000E+00 0.  1.
          1   -1    0    0  501    0  0.00000000000E+00 -0.00000000000E+00 -0.24058974438E+04  0.24058974438E+04  0.00000000000E+00 0. -1.
         23    2    1    2    0    0 -0.58519592486E+03  0.67208956782E+02 -0.18617143924E+04  0.19547943456E+04  0.90934814500E+02 0.  0.
        254    2    1    2    0    0  0.58519592486E+03 -0.67208956782E+02  0.78442978017E+02  0.10737291276E+04  0.89429839781E+03 0.  0.
        -24    2    4    4    0    0 -0.38998670085E+02 -0.25727931287E+03 -0.22078865738E+03  0.35054292690E+03  0.80119730858E+02 0.  0.
         24    2    4    4    0    0  0.62419459495E+03  0.19007035609E+03  0.29923163540E+03  0.72318620070E+03  0.87824123330E+02 0.  0.
         13    1    3    3    0    0 -0.12572884433E+03 -0.14303967441E+02 -0.48047014494E+03  0.49685400870E+03  0.00000000000E+00 0.  1.
        -13    1    3    3    0    0 -0.45946708053E+03  0.81512924224E+02 -0.13812442474E+04  0.14579403369E+04  0.00000000000E+00 0. -1.
          2    1    6    6  502    0  0.32856655216E+03  0.14180923795E+03  0.18240881303E+03  0.40167003154E+03  0.00000000000E+00 0. -1.
          1    1    5    5  503    0 -0.62869762078E+02 -0.15543060452E+03 -0.13570569762E+03  0.21570191508E+03  0.00000000000E+00 0. -1.
         -2    1    5    5    0  503  0.23871091993E+02 -0.10184870836E+03 -0.85082959762E+02  0.13484101182E+03  0.00000000000E+00 0.  1.
         -1    1    6    6    0  502  0.29562804279E+03  0.48261118135E+02  0.11682282237E+03  0.32151616916E+03  0.00000000000E+00 0.  1.
<mgrwt>
<rscale>  0 0.24478353E+04</rscale>
<asrwt>0</asrwt>
<pdfrwt beam="1">  1        1 0.37013806E+00 0.24478353E+04</pdfrwt>
<pdfrwt beam="2">  1       -1 0.95788621E-01 0.24478353E+04</pdfrwt>
<totfact> 0.14757997E+00</totfact>
</mgrwt>
</event>
<event>
12    1  0.1397649E-007  0.1443962E+04  0.7818608E-02  0.8922597E-01
         -2   -1    0    0    0  501 -0.00000000000E+00  0.00000000000E+00  0.49763127551E+03  0.49763127551E+03  0.00000000000E+00 0. -1.
          2   -1    0    0  501    0  0.00000000000E+00 -0.00000000000E+00 -0.10474756739E+04  0.10474756739E+04  0.00000000000E+00 0.  1.
         23    2    1    2    0    0  0.12981911151E+03  0.32017848547E+03 -0.46003283021E+03  0.58325520023E+03  0.95860103560E+02 0.  0.
        254    2    1    2    0    0 -0.12981911151E+03 -0.32017848547E+03 -0.89811568163E+02  0.96185174916E+03  0.89315474881E+03 0.  0.
        -24    2    4    4    0    0 -0.88214241812E+02 -0.19929354172E+02  0.37840166037E+03  0.39845706771E+03  0.86030730677E+02 0.  0.
         24    2    4    4    0    0 -0.41604869697E+02 -0.30024913130E+03 -0.46821322854E+03  0.56339468145E+03  0.79431943711E+02 0.  0.
         11    1    3    3    0    0 -0.91128085718E+01  0.43895671309E+02 -0.93498849233E+02  0.10369140778E+03  0.00000000000E+00 0. -1.
        -11    1    3    3    0    0  0.13893192008E+03  0.27628281416E+03 -0.36653398098E+03  0.47956379245E+03  0.00000000000E+00 0.  1.
          2    1    6    6  502    0 -0.32548022691E+02 -0.12790041491E+03 -0.27031038420E+03  0.30080823413E+03  0.00000000000E+00 0. -1.
          3    1    5    5  503    0 -0.68383600671E+02 -0.50077212733E+02  0.30656757700E+03  0.31806873996E+03  0.00000000000E+00 0. -1.
         -4    1    5    5    0  503 -0.19830641141E+02  0.30147858561E+02  0.71834083375E+02  0.80388327748E+02  0.00000000000E+00 0.  1.
         -1    1    6    6    0  502 -0.90568470066E+01 -0.17234871639E+03 -0.19790284434E+03  0.26258644732E+03  0.00000000000E+00 0.  1.
<mgrwt>
<rscale>  0 0.14439621E+04</rscale>
<asrwt>0</asrwt>
<pdfrwt beam="1">  1        2 0.16115010E+00 0.14439621E+04</pdfrwt>
<pdfrwt beam="2">  1       -2 0.76558659E-01 0.14439621E+04</pdfrwt>
<totfact> 0.34777920E+01</totfact>
</mgrwt>
</event>
<event>
12    1  0.1397649E-007  0.9888640E+03  0.7818608E-02  0.9320844E-01
          2   -1    0    0  501    0  0.00000000000E+00  0.00000000000E+00  0.19387670807E+04  0.19387670807E+04  0.00000000000E+00 0. -1.
         -2   -1    0    0    0  501 -0.00000000000E+00 -0.00000000000E+00 -0.12609198600E+03  0.12609198600E+03  0.00000000000E+00 0.  1.
         23    2    1    2    0    0  0.15036379314E+01 -0.62778127204E+02  0.16908073034E+03  0.20247245276E+03  0.91996992191E+02 0.  0.
        254    2    1    2    0    0 -0.15036379314E+01  0.62778127204E+02  0.16435943644E+04  0.18623866139E+04  0.87357776473E+03 0.  0.
        -24    2    4    4    0    0  0.29052281608E+03  0.34436818363E+03  0.96446875483E+03  0.10675203548E+04  0.80042340688E+02 0.  0.
         24    2    4    4    0    0 -0.29202645401E+03 -0.28159005642E+03  0.67912560954E+03  0.79486625915E+03  0.77642557183E+02 0.  0.
         11    1    3    3    0    0 -0.12784955311E+02 -0.75321047238E+02  0.16662112979E+03  0.18330116238E+03  0.00000000000E+00 0. -1.
        -11    1    3    3    0    0  0.14288593242E+02  0.12542920034E+02  0.24596005511E+01  0.19171290376E+02  0.00000000000E+00 0.  1.
          4    1    6    6  502    0 -0.25626218010E+03 -0.26339205893E+03  0.64430204027E+03  0.74173499361E+03  0.00000000000E+00 0. -1.
          1    1    5    5  503    0  0.16174413599E+03  0.17659686188E+03  0.60165784817E+03  0.64756450136E+03  0.00000000000E+00 0. -1.
         -2    1    5    5    0  503  0.12877868008E+03  0.16777132175E+03  0.36281090665E+03  0.41995585343E+03  0.00000000000E+00 0.  1.
         -3    1    6    6    0  502 -0.35764273904E+02 -0.18197997496E+02  0.34823569275E+02  0.53131265539E+02  0.00000000000E+00 0.  1.
<mgrwt>
<rscale>  0 0.98886398E+03</rscale>
<asrwt>0</asrwt>
<pdfrwt beam="1">  1        2 0.29827184E+00 0.98886398E+03</pdfrwt>
<pdfrwt beam="2">  1       -2 0.19398769E-01 0.98886398E+03</pdfrwt>
<totfact> 0.16329798E+02</totfact>
</mgrwt>
</event>
<event>
12    1  0.1397649E-007  0.1929046E+04  0.7818608E-02  0.8640532E-01
         -2   -1    0    0    0  501 -0.00000000000E+00  0.00000000000E+00  0.49371419301E+03  0.49371419301E+03  0.00000000000E+00 0.  1.
          2   -1    0    0  501    0  0.00000000000E+00 -0.00000000000E+00 -0.18842973801E+04  0.18842973801E+04  0.00000000000E+00 0. -1.
         23    2    1    2    0    0 -0.16095871216E+03  0.55191956349E+03 -0.11449610720E+04  0.12843743296E+04  0.90325248240E+02 0.  0.
        254    2    1    2    0    0  0.16095871216E+03 -0.55191956349E+03 -0.24562211504E+03  0.10936372435E+04  0.89732340065E+03 0.  0.
        -24    2    4    4    0    0  0.18975058184E+03  0.16426272798E+03  0.11503401561E+03  0.28723796739E+03  0.79279871648E+02 0.  0.
         24    2    4    4    0    0 -0.28791869675E+02 -0.71618229148E+03 -0.36065613065E+03  0.80639927610E+03  0.80379733342E+02 0.  0.
         13    1    3    3    0    0 -0.12352035284E+03  0.51039470144E+03 -0.10119117589E+04  0.11400550147E+04  0.00000000000E+00 0. -1.
        -13    1    3    3    0    0 -0.37438359318E+02  0.41524862052E+02 -0.13304931311E+03  0.14431931484E+03  0.00000000000E+00 0.  1.
          4    1    6    6  502    0 -0.13159432359E+02 -0.66014177809E+03 -0.31073437220E+03  0.72973706765E+03  0.00000000000E+00 0. -1.
          3    1    5    5  503    0  0.16465717612E+03  0.13656260169E+03  0.62682781166E+02  0.22291357267E+03  0.00000000000E+00 0. -1.
         -4    1    5    5    0  503  0.25093405721E+02  0.27700126297E+02  0.52351234447E+02  0.64324394717E+02  0.00000000000E+00 0.  1.
         -3    1    6    6    0  502 -0.15632437316E+02 -0.56040513391E+02 -0.49921758451E+02  0.76662208450E+02  0.00000000000E+00 0.  1.
<mgrwt>
<rscale>  0 0.19290457E+04</rscale>
<asrwt>0</asrwt>
<pdfrwt beam="1">  1        2 0.28989190E+00 0.19290457E+04</pdfrwt>
<pdfrwt beam="2">  1       -2 0.75956031E-01 0.19290457E+04</pdfrwt>
<totfact> 0.11237504E+01</totfact>
</mgrwt>
</event>
<event>
12    1  0.1397649E-007  0.1863323E+04  0.7818608E-02  0.8673331E-01
          3   -1    0    0  501    0  0.00000000000E+00  0.00000000000E+00  0.15131392883E+04  0.15131392883E+04  0.00000000000E+00 0. -1.
         -3   -1    0    0    0  501 -0.00000000000E+00 -0.00000000000E+00 -0.57363716433E+03  0.57363716433E+03  0.00000000000E+00 0.  1.
         23    2    1    2    0    0 -0.67725237407E+03 -0.18506405825E+03  0.51138072696E+03  0.87354031724E+03  0.92967489500E+02 0.  0.
        254    2    1    2    0    0  0.67725237407E+03  0.18506405825E+03  0.42812139699E+03  0.12132361354E+04  0.89203952030E+03 0.  0.
        -24    2    4    4    0    0  0.77914035181E+01 -0.15439362188E+03  0.42422346063E+03  0.45848067100E+03  0.79629672133E+02 0.  0.
         24    2    4    4    0    0  0.66946097055E+03  0.33945768013E+03  0.38979363577E+01  0.75475546437E+03  0.78937376478E+02 0.  0.
         13    1    3    3    0    0 -0.66356091925E+03 -0.16830702242E+03  0.48282308859E+03  0.83771026150E+03  0.00000000000E+00 0. -1.
        -13    1    3    3    0    0 -0.13691454813E+02 -0.16757035823E+02  0.28557638378E+02  0.35830055738E+02  0.00000000000E+00 0.  1.
          2    1    6    6  502    0  0.59230611224E+03  0.27687319541E+03  0.19912030668E+02  0.65412673535E+03  0.00000000000E+00 0. -1.
          1    1    5    5  503    0 -0.18938650372E+02 -0.23982810496E+01  0.58256509043E+02  0.61304527368E+02  0.00000000000E+00 0. -1.
         -2    1    5    5    0  503  0.26730053891E+02 -0.15199534083E+03  0.36596695159E+03  0.39717614363E+03  0.00000000000E+00 0.  1.
         -1    1    6    6    0  502  0.77154858308E+02  0.62584484719E+02 -0.16014094310E+02  0.10062872902E+03  0.00000000000E+00 0.  1.
<mgrwt>
<rscale>  0 0.18633228E+04</rscale>
<asrwt>0</asrwt>
<pdfrwt beam="1">  1        3 0.23279066E+00 0.18633228E+04</pdfrwt>
<pdfrwt beam="2">  1       -3 0.88251872E-01 0.18633228E+04</pdfrwt>
<totfact> 0.26653076E-01</totfact>
</mgrwt>
</event>
<event>
12    1  0.1397649E-007  0.1600882E+04  0.7818608E-02  0.8820006E-01
         -2   -1    0    0    0  501 -0.00000000000E+00  0.00000000000E+00  0.30963356222E+03  0.30963356222E+03  0.00000000000E+00 0.  1.
          2   -1    0    0  501    0  0.00000000000E+00 -0.00000000000E+00 -0.20692392298E+04  0.20692392298E+04  0.00000000000E+00 0. -1.
         23    2    1    2    0    0  0.20496891923E+03 -0.92996305310E+02 -0.13255347995E+04  0.13474430918E+04  0.88880877120E+02 0.  0.
        254    2    1    2    0    0 -0.20496891923E+03  0.92996305310E+02 -0.43407086811E+03  0.10314297003E+04  0.90816801164E+03 0.  0.
        -24    2    4    4    0    0 -0.29831771719E+03  0.45484035339E+03 -0.21257590745E+03  0.58981876145E+03  0.82610214058E+02 0.  0.
         24    2    4    4    0    0  0.93348797959E+02 -0.36184404808E+03 -0.22149496066E+03  0.44161093881E+03  0.79467543475E+02 0.  0.
         13    1    3    3    0    0  0.10185101990E+02  0.13680777088E+02 -0.53061413240E+02  0.55735209153E+02  0.00000000000E+00 0.  1.
        -13    1    3    3    0    0  0.19478381724E+03 -0.10667708240E+03 -0.12724733863E+04  0.12917078827E+04  0.00000000000E+00 0. -1.
          4    1    6    6  502    0  0.51502328973E+02 -0.22988910795E+03 -0.94770774067E+02  0.25393501425E+03  0.00000000000E+00 0. -1.
          1    1    5    5  503    0 -0.22855519306E+03  0.31639561828E+03 -0.18662151742E+03  0.43263293252E+03  0.00000000000E+00 0. -1.
         -2    1    5    5    0  503 -0.69762524136E+02  0.13844473511E+03 -0.25954390032E+02  0.15718582892E+03  0.00000000000E+00 0.  1.
         -3    1    6    6    0  502  0.41846468986E+02 -0.13195494012E+03 -0.12672418660E+03  0.18767592456E+03  0.00000000000E+00 0.  1.
<mgrwt>
<rscale>  0 0.16008821E+04</rscale>
<asrwt>0</asrwt>
<pdfrwt beam="1">  1        2 0.31834450E+00 0.16008821E+04</pdfrwt>
<pdfrwt beam="2">  1       -2 0.47635932E-01 0.16008821E+04</pdfrwt>
<totfact> 0.24487504E+01</totfact>
</mgrwt>
</event>
<event>
12    1  0.1431231E-007  0.1729270E+04  0.7818608E-02  0.8744845E-01
          3   -1    0    0  501    0  0.00000000000E+00  0.00000000000E+00  0.10977183873E+04  0.10977183873E+04  0.00000000000E+00 0. -1.
         -3   -1    0    0    0  501 -0.00000000000E+00 -0.00000000000E+00 -0.68104290966E+03  0.68104290966E+03  0.00000000000E+00 0.  1.
         23    2    1    2    0    0 -0.12213033342E+03  0.59661982028E+03  0.23615505937E+02  0.61590692137E+03  0.88952882909E+02 0.  0.
        254    2    1    2    0    0  0.12213033342E+03 -0.59661982028E+03  0.39305997170E+03  0.11628543756E+04  0.90932014668E+03 0.  0.
        -24    2    4    4    0    0 -0.82019025937E+02 -0.28149713502E+03  0.63805952228E+03  0.70670685802E+03  0.79667255285E+02 0.  0.
         24    2    4    4    0    0  0.20414935936E+03 -0.31512268526E+03 -0.24499955058E+03  0.45614751755E+03  0.84062538007E+02 0.  0.
         13    1    3    3    0    0 -0.34991660414E+01 -0.25998234651E+01 -0.13005289514E+01  0.45491340482E+01  0.00000000000E+00 0. -1.
        -13    1    3    3    0    0 -0.11863116738E+03  0.59921964374E+03  0.24916034888E+02  0.61135778732E+03  0.00000000000E+00 0.  1.
          4    1    6    6  502    0  0.71463417891E+02 -0.48288263487E+02 -0.45321609308E+02  0.97431128278E+02  0.00000000000E+00 0. -1.
          1    1    5    5  503    0 -0.44923894967E+02 -0.58263548348E+02  0.11156187701E+03  0.13363700763E+03  0.00000000000E+00 0. -1.
         -2    1    5    5    0  503 -0.37095130970E+02 -0.22323358667E+03  0.52649764527E+03  0.57306985040E+03  0.00000000000E+00 0.  1.
         -3    1    6    6    0  502  0.13268594147E+03 -0.26683442177E+03 -0.19967794127E+03  0.35871638928E+03  0.00000000000E+00 0.  1.
<mgrwt>
<rscale>  0 0.17292696E+04</rscale>
<asrwt>0</asrwt>
<pdfrwt beam="1">  1        3 0.16887975E+00 0.17292696E+04</pdfrwt>
<pdfrwt beam="2">  1       -3 0.10477583E+00 0.17292696E+04</pdfrwt>
<totfact> 0.45981622E-01</totfact>
</mgrwt>
</event>
<event>
12    1  0.1397649E-007  0.3039119E+04  0.7818608E-02  0.8232648E-01
          1   -1    0    0  501    0  0.00000000000E+00  0.00000000000E+00  0.12406024451E+04  0.12406024451E+04  0.00000000000E+00 0. -1.
         -1   -1    0    0    0  501 -0.00000000000E+00 -0.00000000000E+00 -0.18612422435E+04  0.18612422435E+04  0.00000000000E+00 0.  1.
         23    2    1    2    0    0 -0.41419748517E+03 -0.58273770033E+02  0.10662643538E+04  0.11489145850E+04  0.90164641504E+02 0.  0.
        254    2    1    2    0    0  0.41419748517E+03  0.58273770033E+02 -0.16869041522E+04  0.19529301036E+04  0.89069353971E+03 0.  0.
        -24    2    4    4    0    0  0.38685571525E+03 -0.85973601078E+02 -0.17335659631E+04  0.17801166155E+04  0.80718100988E+02 0.  0.
         24    2    4    4    0    0  0.27341769927E+02  0.14424737111E+03  0.46661810857E+02  0.17281348811E+03  0.78309007303E+02 0.  0.
         13    1    3    3    0    0 -0.34931277581E+03 -0.27626096306E+02  0.80461455255E+03  0.87760309635E+03  0.00000000000E+00 0. -1.
        -13    1    3    3    0    0 -0.64884709365E+02 -0.30647673728E+02  0.26164980121E+03  0.27131148867E+03  0.00000000000E+00 0.  1.
          4    1    6    6  502    0  0.45394318712E+02  0.13617312939E+03  0.51421652962E+02  0.15247279014E+03  0.00000000000E+00 0. -1.
          1    1    5    5  503    0  0.21393372339E+03 -0.31702417835E+02 -0.11039344745E+04  0.11249195550E+04  0.00000000000E+00 0. -1.
         -2    1    5    5    0  503  0.17292199186E+03 -0.54271183243E+02 -0.62963148855E+03  0.65519706041E+03  0.00000000000E+00 0.  1.
         -3    1    6    6    0  502 -0.18052548785E+02  0.80742417179E+01 -0.47598421048E+01  0.20340697968E+02  0.00000000000E+00 0.  1.
<mgrwt>
<rscale>  0 0.30391194E+04</rscale>
<asrwt>0</asrwt>
<pdfrwt beam="1">  1        1 0.19086192E+00 0.30391194E+04</pdfrwt>
<pdfrwt beam="2">  1       -1 0.28634496E+00 0.30391194E+04</pdfrwt>
<totfact> 0.34278809E-01</totfact>
</mgrwt>
</event>
<event>
12    1  0.1397649E-007  0.2759494E+04  0.7818608E-02  0.8315955E-01
          2   -1    0    0  501    0  0.00000000000E+00  0.00000000000E+00  0.18234127529E+04  0.18234127529E+04  0.00000000000E+00 0. -1.
         -2   -1    0    0    0  501 -0.00000000000E+00 -0.00000000000E+00 -0.10440326593E+04  0.10440326593E+04  0.00000000000E+00 0.  1.
         23    2    1    2    0    0  0.31810760564E+03  0.10363225374E+04  0.99666442024E+03  0.14759107871E+04  0.99074894412E+02 0.  0.
        254    2    1    2    0    0 -0.31810760564E+03 -0.10363225374E+04 -0.21728432669E+03  0.13915346251E+04  0.84498478336E+03 0.  0.
        -24    2    4    4    0    0 -0.29946348638E+03  0.96007966570E+01  0.36818813221E+02  0.31206993798E+03  0.79129426969E+02 0.  0.
         24    2    4    4    0    0 -0.18644119255E+02 -0.10459233340E+04 -0.25410313991E+03  0.10794646871E+04  0.79827196312E+02 0.  0.
         13    1    3    3    0    0  0.15949659913E+03  0.62878444760E+03  0.64440589609E+03  0.91436754404E+03  0.00000000000E+00 0. -1.
        -13    1    3    3    0    0  0.15861100651E+03  0.40753808975E+03  0.35225852415E+03  0.56154324305E+03  0.00000000000E+00 0.  1.
          4    1    6    6  502    0 -0.13083942516E+02 -0.10411856364E+04 -0.24921712671E+03  0.10706763728E+04  0.00000000000E+00 0. -1.
          3    1    5    5  503    0 -0.24816238649E+03  0.18669009626E+02  0.10314842081E+01  0.24886575889E+03  0.00000000000E+00 0. -1.
         -4    1    5    5    0  503 -0.51301099890E+02 -0.90682129691E+01  0.35787329013E+02  0.63204179088E+02  0.00000000000E+00 0.  1.
         -3    1    6    6    0  502 -0.55601767392E+01 -0.47376975814E+01 -0.48860132067E+01  0.87883143322E+01  0.00000000000E+00 0.  1.
<mgrwt>
<rscale>  0 0.27594945E+04</rscale>
<asrwt>0</asrwt>
<pdfrwt beam="1">  1        2 0.28052504E+00 0.27594945E+04</pdfrwt>
<pdfrwt beam="2">  1       -2 0.16062041E+00 0.27594945E+04</pdfrwt>
<totfact> 0.18225441E+00</totfact>
</mgrwt>
</event>
<event>
12    1  0.1397649E-007  0.4259228E+04  0.7818608E-02  0.7954201E-01
         -2   -1    0    0    0  501 -0.00000000000E+00  0.00000000000E+00  0.11438869794E+04  0.11438869794E+04  0.00000000000E+00 0.  1.
          2   -1    0    0  501    0  0.00000000000E+00 -0.00000000000E+00 -0.39647757739E+04  0.39647757739E+04  0.00000000000E+00 0. -1.
         23    2    1    2    0    0  0.65980709229E+02 -0.18946435742E+04 -0.43665036049E+03  0.19474638323E+04  0.89017489068E+02 0.  0.
        254    2    1    2    0    0 -0.65980709229E+02  0.18946435742E+04 -0.23842384340E+04  0.31611989210E+04  0.84531531419E+03 0.  0.
        -24    2    4    4    0    0 -0.39271700879E+03  0.12027662233E+04 -0.11780289430E+04  0.17306321475E+04  0.80387824398E+02 0.  0.
         24    2    4    4    0    0  0.32673629956E+03  0.69187735090E+03 -0.12062094911E+04  0.14305667735E+04  0.78288435352E+02 0.  0.
         11    1    3    3    0    0  0.70778417337E+02 -0.13720546329E+04 -0.34949319912E+03  0.14176350010E+04  0.00000000000E+00 0.  1.
        -11    1    3    3    0    0 -0.47977081079E+01 -0.52258894138E+03 -0.87157161366E+02  0.52982883126E+03  0.00000000000E+00 0. -1.
          4    1    6    6  502    0  0.28524724445E+03  0.54322720201E+03 -0.99526633071E+03  0.11691949591E+04  0.00000000000E+00 0. -1.
          3    1    5    5  503    0 -0.25981337346E+03  0.84095838360E+03 -0.86520575600E+03  0.12342183730E+04  0.00000000000E+00 0. -1.
         -4    1    5    5    0  503 -0.13290363533E+03  0.36180783974E+03 -0.31282318697E+03  0.49641377448E+03  0.00000000000E+00 0.  1.
         -3    1    6    6    0  502  0.41489055111E+02  0.14865014889E+03 -0.21094316036E+03  0.26137181440E+03  0.00000000000E+00 0.  1.
<mgrwt>
<rscale>  0 0.42592278E+04</rscale>
<asrwt>0</asrwt>
<pdfrwt beam="1">  1        2 0.60996550E+00 0.42592278E+04</pdfrwt>
<pdfrwt beam="2">  1       -2 0.17598261E+00 0.42592278E+04</pdfrwt>
<totfact> 0.54359567E-02</totfact>
</mgrwt>
</event>
<event>
12    1  0.1397649E-007  0.2314571E+04  0.7818608E-02  0.8472198E-01
         -1   -1    0    0    0  501 -0.00000000000E+00  0.00000000000E+00  0.77174514872E+03  0.77174514872E+03  0.00000000000E+00 0.  1.
          1   -1    0    0  501    0  0.00000000000E+00 -0.00000000000E+00 -0.17354303362E+04  0.17354303362E+04  0.00000000000E+00 0. -1.
         23    2    1    2    0    0 -0.71337724485E+03  0.27208254726E+03 -0.10742863346E+04  0.13209566304E+04  0.88877919961E+02 0.  0.
        254    2    1    2    0    0  0.71337724485E+03 -0.27208254726E+03  0.11060114707E+03  0.11862188546E+04  0.90108076844E+03 0.  0.
        -24    2    4    4    0    0  0.69403602129E+03 -0.53998680581E+03 -0.55355255290E+01  0.88293930594E+03  0.79242833401E+02 0.  0.
         24    2    4    4    0    0  0.19341223558E+02  0.26790425855E+03  0.11613667259E+03  0.30327954864E+03  0.79649125711E+02 0.  0.
         11    1    3    3    0    0 -0.63958237129E+03  0.21441427705E+03 -0.95743855345E+03  0.11712077849E+04  0.00000000000E+00 0. -1.
        -11    1    3    3    0    0 -0.73794873558E+02  0.57668270211E+02 -0.11684778114E+03  0.14974884544E+03  0.00000000000E+00 0.  1.
          4    1    6    6  502    0  0.38868054556E+02  0.10843723031E+03  0.22641165327E+02  0.11739668202E+03  0.00000000000E+00 0. -1.
          3    1    5    5  503    0  0.11512663706E+03 -0.10135295954E+03 -0.29647124049E+02  0.15622265179E+03  0.00000000000E+00 0. -1.
         -4    1    5    5    0  503  0.57890938423E+03 -0.43863384626E+03  0.24111598520E+02  0.72671665415E+03  0.00000000000E+00 0.  1.
         -3    1    6    6    0  502 -0.19526830998E+02  0.15946702823E+03  0.93495507268E+02  0.18588286662E+03  0.00000000000E+00 0.  1.
<mgrwt>
<rscale>  0 0.23145712E+04</rscale>
<asrwt>0</asrwt>
<pdfrwt beam="1">  1        1 0.26698928E+00 0.23145712E+04</pdfrwt>
<pdfrwt beam="2">  1       -1 0.11873003E+00 0.23145712E+04</pdfrwt>
<totfact> 0.25857168E+00</totfact>
</mgrwt>
</event>
<event>
12    1  0.1397649E-007  0.2405389E+04  0.7818608E-02  0.8437489E-01
          2   -1    0    0  501    0  0.00000000000E+00  0.00000000000E+00  0.11619027651E+04  0.11619027651E+04  0.00000000000E+00 0. -1.
         -2   -1    0    0    0  501 -0.00000000000E+00 -0.00000000000E+00 -0.12449185770E+04  0.12449185770E+04  0.00000000000E+00 0.  1.
         23    2    1    2    0    0 -0.98000471053E+03 -0.11467182356E+03  0.25148037577E+03  0.10222084144E+04  0.90048894219E+02 0.  0.
        254    2    1    2    0    0  0.98000471053E+03  0.11467182356E+03 -0.33449618770E+03  0.13846129277E+04  0.91197938591E+03 0.  0.
        -24    2    4    4    0    0  0.20129505827E+03  0.39266860803E+03 -0.32451329351E+03  0.55396325715E+03  0.82813503698E+02 0.  0.
         24    2    4    4    0    0  0.77870965226E+03 -0.27799678446E+03 -0.99828941828E+01  0.83064967059E+03  0.78792654368E+02 0.  0.
         11    1    3    3    0    0 -0.48765082608E+03 -0.40333605734E+02  0.16782253089E+03  0.51729539897E+03  0.00000000000E+00 0. -1.
        -11    1    3    3    0    0 -0.49235388445E+03 -0.74338217829E+02  0.83657844885E+02  0.50491301546E+03  0.00000000000E+00 0.  1.
          4    1    6    6  502    0  0.36610494162E+02  0.36395994053E+01  0.15119328657E+01  0.36822016615E+02  0.00000000000E+00 0. -1.
          1    1    5    5  503    0  0.64439626556E+02  0.62571641234E+02 -0.85854008918E+02  0.12425210905E+03  0.00000000000E+00 0. -1.
         -2    1    5    5    0  503  0.13685543171E+03  0.33009696679E+03 -0.23865928459E+03  0.42971114810E+03  0.00000000000E+00 0.  1.
         -3    1    6    6    0  502  0.74209915810E+03 -0.28163638387E+03 -0.11494827048E+02  0.79382765398E+03  0.00000000000E+00 0.  1.
<mgrwt>
<rscale>  0 0.24053892E+04</rscale>
<asrwt>0</asrwt>
<pdfrwt beam="1">  1        2 0.17875427E+00 0.24053892E+04</pdfrwt>
<pdfrwt beam="2">  1       -2 0.19152594E+00 0.24053892E+04</pdfrwt>
<totfact> 0.27170125E+00</totfact>
</mgrwt>
</event>
<event>
12    1  0.1397649E-007  0.1858975E+04  0.7818608E-02  0.8675551E-01
          1   -1    0    0  501    0  0.00000000000E+00  0.00000000000E+00  0.12018399135E+04  0.12018399135E+04  0.00000000000E+00 0. -1.
         -1   -1    0    0    0  501 -0.00000000000E+00 -0.00000000000E+00 -0.71885355273E+03  0.71885355273E+03  0.00000000000E+00 0.  1.
         23    2    1    2    0    0  0.10972322490E+03  0.56309498114E+03 -0.23820308664E+03  0.62738238330E+03  0.88049988755E+02 0.  0.
        254    2    1    2    0    0 -0.10972322490E+03 -0.56309498114E+03  0.72118944744E+03  0.12933110830E+04  0.90742723916E+03 0.  0.
        -24    2    4    4    0    0  0.31121648553E+03 -0.32892352722E+01  0.59381282921E+02  0.32652720940E+03  0.78913634958E+02 0.  0.
         24    2    4    4    0    0 -0.42093971043E+03 -0.55980574587E+03  0.66180816452E+03  0.96678387357E+03  0.78155605397E+02 0.  0.
         11    1    3    3    0    0  0.94078125979E+02  0.46577107431E+03 -0.15946110500E+03  0.50121974369E+03  0.00000000000E+00 0.  1.
        -11    1    3    3    0    0  0.15645098924E+02  0.97323906824E+02 -0.78741981645E+02  0.12616263961E+03  0.00000000000E+00 0. -1.
          4    1    6    6  502    0 -0.19641858054E+03 -0.28678487773E+03  0.37744263816E+03  0.51311672159E+03  0.00000000000E+00 0. -1.
          1    1    5    5  503    0  0.18830765306E+03 -0.35002799366E+02  0.15247089962E+02  0.19213912126E+03  0.00000000000E+00 0. -1.
         -2    1    5    5    0  503  0.12290883246E+03  0.31713564094E+02  0.44134192959E+02  0.13438808814E+03  0.00000000000E+00 0.  1.
         -3    1    6    6    0  502 -0.22452112989E+03 -0.27302086814E+03  0.28436552636E+03  0.45366715198E+03  0.00000000000E+00 0.  1.
<mgrwt>
<rscale>  0 0.18589749E+04</rscale>
<asrwt>0</asrwt>
<pdfrwt beam="1">  1        1 0.18489845E+00 0.18589749E+04</pdfrwt>
<pdfrwt beam="2">  1       -1 0.11059285E+00 0.18589749E+04</pdfrwt>
<totfact> 0.75370988E+00</totfact>
</mgrwt>
</event>
<event>
12    1  0.1397649E-007  0.1803441E+04  0.7818608E-02  0.8704472E-01
          1   -1    0    0  501    0  0.00000000000E+00  0.00000000000E+00  0.22681256485E+04  0.22681256485E+04  0.00000000000E+00 0. -1.
         -1   -1    0    0    0  501 -0.00000000000E+00 -0.00000000000E+00 -0.35848965102E+03  0.35848965102E+03  0.00000000000E+00 0.  1.
         23    2    1    2    0    0 -0.13267348904E+03 -0.63403956619E+03  0.46128868141E+03  0.80007497230E+03  0.87887925846E+02 0.  0.
        254    2    1    2    0    0  0.13267348904E+03  0.63403956619E+03  0.14483473160E+04  0.18265403272E+04  0.90494817135E+03 0.  0.
        -24    2    4    4    0    0 -0.24093149656E+03  0.16806519726E+03  0.10768391379E+04  0.11190148429E+04  0.79484545925E+02 0.  0.
         24    2    4    4    0    0  0.37360498560E+03  0.46597436893E+03  0.37150817809E+03  0.70752548431E+03  0.76558388147E+02 0.  0.
         11    1    3    3    0    0 -0.53499413265E+02 -0.18925562262E+03  0.18798785851E+03  0.27206490561E+03  0.00000000000E+00 0. -1.
        -11    1    3    3    0    0 -0.79174075773E+02 -0.44478394357E+03  0.27330082290E+03  0.52801006669E+03  0.00000000000E+00 0.  1.
          2    1    6    6  502    0  0.12207934570E+03  0.10732198703E+03  0.12342037843E+03  0.20409303114E+03  0.00000000000E+00 0. -1.
          1    1    5    5  503    0 -0.59711455363E+02  0.21253758917E+02  0.14166866873E+03  0.15520048926E+03  0.00000000000E+00 0. -1.
         -2    1    5    5    0  503 -0.18122004120E+03  0.14681143834E+03  0.93517046922E+03  0.96381435363E+03  0.00000000000E+00 0.  1.
         -1    1    6    6    0  502  0.25152563990E+03  0.35865238190E+03  0.24808779967E+03  0.50343245317E+03  0.00000000000E+00 0.  1.
<mgrwt>
<rscale>  0 0.18034407E+04</rscale>
<asrwt>0</asrwt>
<pdfrwt beam="1">  1        1 0.34894240E+00 0.18034407E+04</pdfrwt>
<pdfrwt beam="2">  1       -1 0.55152255E-01 0.18034407E+04</pdfrwt>
<totfact> 0.61384114E+00</totfact>
</mgrwt>
</event>
<event>
12    1  0.1397649E-007  0.1386065E+04  0.7818608E-02  0.8963968E-01
          2   -1    0    0  501    0  0.00000000000E+00  0.00000000000E+00  0.90483552950E+03  0.90483552950E+03  0.00000000000E+00 0. -1.
         -2   -1    0    0    0  501 -0.00000000000E+00 -0.00000000000E+00 -0.53080803228E+03  0.53080803228E+03  0.00000000000E+00 0.  1.
         23    2    1    2    0    0  0.23212508449E+02 -0.14888254252E+03 -0.26749364860E+03  0.32013166213E+03  0.90700590105E+02 0.  0.
        254    2    1    2    0    0 -0.23212508449E+02  0.14888254252E+03  0.64152114582E+03  0.11155118997E+04  0.90006254545E+03 0.  0.
        -24    2    4    4    0    0 -0.35913658627E+03  0.77668059074E+02 -0.92693496647E+01  0.37537684130E+03  0.76226223460E+02 0.  0.
         24    2    4    4    0    0  0.33592407782E+03  0.71214483445E+02  0.65079049548E+03  0.74013505835E+03  0.79719175129E+02 0.  0.
         13    1    3    3    0    0 -0.24038177291E+02 -0.72373078832E+02 -0.71693269193E+02  0.10466910411E+03  0.00000000000E+00 0. -1.
        -13    1    3    3    0    0  0.47250685740E+02 -0.76509463687E+02 -0.19580037940E+03  0.21546255802E+03  0.00000000000E+00 0.  1.
          4    1    6    6  502    0  0.26303964455E+03  0.78611778041E+02  0.45910206095E+03  0.53492463826E+03  0.00000000000E+00 0. -1.
          1    1    5    5  503    0 -0.29089192831E+03  0.44240760281E+02  0.17630615736E+02  0.29476464754E+03  0.00000000000E+00 0. -1.
         -2    1    5    5    0  503 -0.68244657957E+02  0.33427298794E+02 -0.26899965400E+02  0.80612193760E+02  0.00000000000E+00 0.  1.
         -3    1    6    6    0  502  0.72884433267E+02 -0.73972945955E+01  0.19168843454E+03  0.20521042009E+03  0.00000000000E+00 0.  1.
<mgrwt>
<rscale>  0 0.13860649E+04</rscale>
<asrwt>0</asrwt>
<pdfrwt beam="1">  1        2 0.13920547E+00 0.13860649E+04</pdfrwt>
<pdfrwt beam="2">  1       -2 0.81662774E-01 0.13860649E+04</pdfrwt>
<totfact> 0.37426799E+01</totfact>
</mgrwt>
</event>
<event>
12    1  0.1397649E-007  0.2311446E+04  0.7818608E-02  0.8473422E-01
          2   -1    0    0  501    0  0.00000000000E+00  0.00000000000E+00  0.18475411489E+04  0.18475411489E+04  0.00000000000E+00 0. -1.
         -2   -1    0    0    0  501 -0.00000000000E+00 -0.00000000000E+00 -0.72295863630E+03  0.72295863630E+03  0.00000000000E+00 0.  1.
         23    2    1    2    0    0  0.45451879197E+03 -0.24569294825E+03 -0.44513752341E+03  0.68823016620E+03  0.92525617277E+02 0.  0.
        254    2    1    2    0    0 -0.45451879197E+03  0.24569294825E+03  0.15697200360E+04  0.18822696190E+04  0.90109132173E+03 0.  0.
        -24    2    4    4    0    0 -0.63708992904E+03  0.34097105798E+03  0.14693157502E+04  0.16394553060E+04  0.82341280769E+02 0.  0.
         24    2    4    4    0    0  0.18257113708E+03 -0.95278109730E+02  0.10040428576E+03  0.24281431296E+03  0.80421587217E+02 0.  0.
         11    1    3    3    0    0  0.23200061852E+03 -0.81863190478E+02 -0.24360633028E+03  0.34622234634E+03  0.00000000000E+00 0. -1.
        -11    1    3    3    0    0  0.22251817344E+03 -0.16382975777E+03 -0.20153119313E+03  0.34200781986E+03  0.00000000000E+00 0.  1.
          2    1    6    6  502    0  0.14053716403E+03 -0.56312850657E+02  0.10660156861E+03  0.18516405173E+03  0.00000000000E+00 0. -1.
          1    1    5    5  503    0 -0.40103550992E+03  0.16913331082E+03  0.86953462302E+03  0.97238162142E+03  0.00000000000E+00 0. -1.
         -2    1    5    5    0  503 -0.23605441912E+03  0.17183774717E+03  0.59978112722E+03  0.66707368462E+03  0.00000000000E+00 0.  1.
         -1    1    6    6    0  502  0.42033973048E+02 -0.38965259073E+02 -0.61972828520E+01  0.57650261227E+02  0.00000000000E+00 0.  1.
<mgrwt>
<rscale>  0 0.23114462E+04</rscale>
<asrwt>0</asrwt>
<pdfrwt beam="1">  1        2 0.28423710E+00 0.23114462E+04</pdfrwt>
<pdfrwt beam="2">  1       -2 0.11122441E+00 0.23114462E+04</pdfrwt>
<totfact> 0.47043732E+00</totfact>
</mgrwt>
</event>
<event>
12    1  0.1397649E-007  0.1476967E+04  0.7818608E-02  0.8899916E-01
          2   -1    0    0  501    0  0.00000000000E+00  0.00000000000E+00  0.10570071155E+04  0.10570071155E+04  0.00000000000E+00 0. -1.
         -2   -1    0    0    0  501 -0.00000000000E+00 -0.00000000000E+00 -0.51594502859E+03  0.51594502859E+03  0.00000000000E+00 0.  1.
         23    2    1    2    0    0  0.15562734679E+03  0.33193025236E+03 -0.12066516258E+03  0.39749556950E+03  0.95105640271E+02 0.  0.
        254    2    1    2    0    0 -0.15562734679E+03 -0.33193025236E+03  0.66172724946E+03  0.11754565746E+04  0.89967640987E+03 0.  0.
        -24    2    4    4    0    0  0.19389291022E+02 -0.32192579673E+03  0.84574116253E+03  0.90881207933E+03  0.81542126222E+02 0.  0.
         24    2    4    4    0    0 -0.17501663781E+03 -0.10004455638E+02 -0.18401391307E+03  0.26664449522E+03  0.80667552240E+02 0.  0.
         11    1    3    3    0    0  0.14653488865E+03  0.27544393007E+03 -0.67120385368E+02  0.31913473382E+03  0.00000000000E+00 0.  1.
        -11    1    3    3    0    0  0.90924581413E+01  0.56486322297E+02 -0.53544777209E+02  0.78360835677E+02  0.00000000000E+00 0. -1.
          2    1    6    6  502    0 -0.53924835373E+02 -0.26398787573E+02 -0.22508271983E+02  0.64120247684E+02  0.00000000000E+00 0. -1.
          3    1    5    5  503    0 -0.26972645958E+01 -0.36946696855E+02  0.18851354000E+03  0.19211894339E+03  0.00000000000E+00 0. -1.
         -4    1    5    5    0  503  0.22086555618E+02 -0.28497909987E+03  0.65722762252E+03  0.71669313594E+03  0.00000000000E+00 0.  1.
         -1    1    6    6    0  502 -0.12109180244E+03  0.16394331935E+02 -0.16150564108E+03  0.20252424753E+03  0.00000000000E+00 0.  1.
<mgrwt>
<rscale>  0 0.14769666E+04</rscale>
<asrwt>0</asrwt>
<pdfrwt beam="1">  1        2 0.16261648E+00 0.14769666E+04</pdfrwt>
<pdfrwt beam="2">  1       -2 0.79376158E-01 0.14769666E+04</pdfrwt>
<totfact> 0.31558401E+01</totfact>
</mgrwt>
</event>
<event>
12    1  0.1397649E-007  0.1724038E+04  0.7818608E-02  0.8747772E-01
          2   -1    0    0  501    0  0.00000000000E+00  0.00000000000E+00  0.26057567653E+04  0.26057567653E+04  0.00000000000E+00 0. -1.
         -2   -1    0    0    0  501 -0.00000000000E+00 -0.00000000000E+00 -0.28516736999E+03  0.28516736999E+03  0.00000000000E+00 0.  1.
         23    2    1    2    0    0 -0.41425916337E+03 -0.28751955919E+03  0.14628908826E+04  0.15499181937E+04  0.88986074196E+02 0.  0.
        254    2    1    2    0    0  0.41425916337E+03  0.28751955919E+03  0.85769851279E+03  0.13410059417E+04  0.89909512588E+03 0.  0.
        -24    2    4    4    0    0 -0.26823870190E+03  0.18714119513E+02  0.14703416005E+03  0.31650416703E+03  0.79079858765E+02 0.  0.
         24    2    4    4    0    0  0.68249786526E+03  0.26880543968E+03  0.71066435274E+03  0.10245017746E+04  0.80624831669E+02 0.  0.
         13    1    3    3    0    0 -0.27092932651E+03 -0.23679746255E+03  0.10471422384E+04  0.11072409880E+04  0.00000000000E+00 0. -1.
        -13    1    3    3    0    0 -0.14332983686E+03 -0.50722096645E+02  0.41574864423E+03  0.44267720564E+03  0.00000000000E+00 0.  1.
          2    1    6    6  502    0  0.53215728186E+03  0.23237869185E+03  0.52485558412E+03  0.78272895260E+03  0.00000000000E+00 0. -1.
          1    1    5    5  503    0 -0.24650664065E+03  0.19250475600E+02  0.15668215067E+03  0.29272068774E+03  0.00000000000E+00 0. -1.
         -2    1    5    5    0  503 -0.21732061250E+02 -0.53635608689E+00 -0.96479906217E+01  0.23783479288E+02  0.00000000000E+00 0.  1.
         -1    1    6    6    0  502  0.15034058340E+03  0.36426747824E+02  0.18580876862E+03  0.24177282203E+03  0.00000000000E+00 0.  1.
<mgrwt>
<rscale>  0 0.17240381E+04</rscale>
<asrwt>0</asrwt>
<pdfrwt beam="1">  1        2 0.40088564E+00 0.17240381E+04</pdfrwt>
<pdfrwt beam="2">  1       -2 0.43871905E-01 0.17240381E+04</pdfrwt>
<totfact> 0.14158581E+01</totfact>
</mgrwt>
</event>
<event>
12    1  0.1397649E-007  0.1533259E+04  0.7818608E-02  0.8862632E-01
          1   -1    0    0  501    0  0.00000000000E+00  0.00000000000E+00  0.78321503114E+03  0.78321503114E+03  0.00000000000E+00 0. -1.
         -1   -1    0    0    0  501 -0.00000000000E+00 -0.00000000000E+00 -0.75039539258E+03  0.75039539258E+03  0.00000000000E+00 0.  1.
         23    2    1    2    0    0 -0.94945263017E+02 -0.24605989270E+03 -0.41320707379E+03  0.49945719189E+03  0.95693923180E+02 0.  0.
        254    2    1    2    0    0  0.94945263017E+02  0.24605989270E+03  0.44602671236E+03  0.10341532318E+04  0.89497095205E+03 0.  0.
        -24    2    4    4    0    0  0.43614983527E+03  0.22945746676E+03  0.46490965304E+03  0.68203375281E+03  0.78432433470E+02 0.  0.
         24    2    4    4    0    0 -0.34120457225E+03  0.16602425934E+02 -0.18882940682E+02  0.35211947902E+03  0.83278817156E+02 0.  0.
         11    1    3    3    0    0 -0.54130810677E+02 -0.33336559611E+02 -0.83035479975E+02  0.10457706157E+03  0.00000000000E+00 0. -1.
        -11    1    3    3    0    0 -0.40814452340E+02 -0.21272333309E+03 -0.33017159382E+03  0.39488013032E+03  0.00000000000E+00 0.  1.
          4    1    6    6  502    0 -0.33482268380E+03  0.27602021967E+02 -0.91115217285E+01  0.33608201534E+03  0.00000000000E+00 0. -1.
          3    1    5    5  503    0  0.14176711421E+03  0.49527278009E+02  0.10350583694E+03  0.18238509868E+03  0.00000000000E+00 0. -1.
         -2    1    5    5    0  503  0.29438272106E+03  0.17993018875E+03  0.36140381610E+03  0.49964865413E+03  0.00000000000E+00 0.  1.
         -1    1    6    6    0  502 -0.63818884473E+01 -0.10999596033E+02 -0.97714189536E+01  0.16037463684E+02  0.00000000000E+00 0.  1.
<mgrwt>
<rscale>  0 0.15332592E+04</rscale>
<asrwt>0</asrwt>
<pdfrwt beam="1">  1        1 0.12049462E+00 0.15332592E+04</pdfrwt>
<pdfrwt beam="2">  1       -1 0.11544545E+00 0.15332592E+04</pdfrwt>
<totfact> 0.15011369E+01</totfact>
</mgrwt>
</event>
<event>
12    1  0.1397649E-007  0.1597650E+04  0.7818608E-02  0.8821993E-01
         -2   -1    0    0    0  501 -0.00000000000E+00  0.00000000000E+00  0.42936456546E+03  0.42936456546E+03  0.00000000000E+00 0.  1.
          2   -1    0    0  501    0  0.00000000000E+00 -0.00000000000E+00 -0.14861997447E+04  0.14861997447E+04  0.00000000000E+00 0. -1.
         23    2    1    2    0    0 -0.18703626313E+03 -0.50000615649E+01 -0.93319451852E+03  0.95640972418E+03  0.94127502738E+02 0.  0.
        254    2    1    2    0    0  0.18703626313E+03  0.50000615649E+01 -0.12364066072E+03  0.95915458597E+03  0.93256792914E+03 0.  0.
        -24    2    4    4    0    0  0.10481620558E+03 -0.20976118472E+02 -0.52477992228E+03  0.54136763063E+03  0.79110746251E+02 0.  0.
         24    2    4    4    0    0  0.82220057548E+02  0.25976180037E+02  0.40113926155E+03  0.41778695534E+03  0.78729493220E+02 0.  0.
         13    1    3    3    0    0 -0.14360820515E+01 -0.36925095727E+01 -0.20158435888E+03  0.20162328909E+03  0.00000000000E+00 0. -1.
        -13    1    3    3    0    0 -0.18560018108E+03 -0.13075519921E+01 -0.73161015964E+03  0.75478643509E+03  0.00000000000E+00 0.  1.
          4    1    6    6  502    0  0.28292752315E+02 -0.20225230737E+02  0.22821409766E+03  0.23084889899E+03  0.00000000000E+00 0. -1.
          1    1    5    5  503    0  0.28883871364E+02  0.29877933902E+02 -0.17021022648E+03  0.17520984606E+03  0.00000000000E+00 0. -1.
         -2    1    5    5    0  503  0.75932334220E+02 -0.50854052374E+02 -0.35456969580E+03  0.36615778457E+03  0.00000000000E+00 0.  1.
         -3    1    6    6    0  502  0.53927305233E+02  0.46201410774E+02  0.17292516389E+03  0.18693805635E+03  0.00000000000E+00 0.  1.
<mgrwt>
<rscale>  0 0.15976502E+04</rscale>
<asrwt>0</asrwt>
<pdfrwt beam="1">  1        2 0.22864611E+00 0.15976502E+04</pdfrwt>
<pdfrwt beam="2">  1       -2 0.66056088E-01 0.15976502E+04</pdfrwt>
<totfact> 0.26134799E+01</totfact>
</mgrwt>
</event>
<event>
12    1  0.1397649E-007  0.2044913E+04  0.7818608E-02  0.8585906E-01
          1   -1    0    0  501    0  0.00000000000E+00  0.00000000000E+00  0.15398119914E+04  0.15398119914E+04  0.00000000000E+00 0. -1.
         -1   -1    0    0    0  501 -0.00000000000E+00 -0.00000000000E+00 -0.67892500977E+03  0.67892500977E+03  0.00000000000E+00 0.  1.
         23    2    1    2    0    0  0.25977507674E+03  0.18431776521E+03  0.11694727096E+04  0.12157061264E+04  0.93908668451E+02 0.  0.
        254    2    1    2    0    0 -0.25977507674E+03 -0.18431776521E+03 -0.30858572798E+03  0.10030308748E+04  0.89966085570E+03 0.  0.
        -24    2    4    4    0    0  0.14504549190E+03 -0.21857255565E+03  0.20584051466E+03  0.34279060274E+03  0.79516809865E+02 0.  0.
         24    2    4    4    0    0 -0.40482056864E+03  0.34254790438E+02 -0.51442624264E+03  0.66024027209E+03  0.78928919401E+02 0.  0.
         13    1    3    3    0    0  0.10840904456E+03  0.52179907553E+02  0.59681990697E+03  0.60882613697E+03  0.00000000000E+00 0. -1.
        -13    1    3    3    0    0  0.15136603218E+03  0.13213785766E+03  0.57265280267E+03  0.60687998940E+03  0.00000000000E+00 0.  1.
          4    1    6    6  502    0 -0.19159421808E+03  0.42587632479E+02 -0.19978925808E+03  0.28006748917E+03  0.00000000000E+00 0. -1.
          3    1    5    5  503    0  0.79155136976E+02 -0.16821195679E+03  0.17183911767E+03  0.25315900237E+03  0.00000000000E+00 0. -1.
         -4    1    5    5    0  503  0.65890354921E+02 -0.50360598857E+02  0.34001396989E+02  0.89631600377E+02  0.00000000000E+00 0.  1.
         -3    1    6    6    0  502 -0.21322635055E+03 -0.83328420413E+01 -0.31463698455E+03  0.38017278292E+03  0.00000000000E+00 0.  1.
<mgrwt>
<rscale>  0 0.20449126E+04</rscale>
<asrwt>0</asrwt>
<pdfrwt beam="1">  1        1 0.23689415E+00 0.20449126E+04</pdfrwt>
<pdfrwt beam="2">  1       -1 0.10445000E+00 0.20449126E+04</pdfrwt>
<totfact> 0.48891592E+00</totfact>
</mgrwt>
</event>
<event>
12    1  0.1397649E-007  0.1151232E+04  0.7818608E-02  0.9156648E-01
         -1   -1    0    0    0  501 -0.00000000000E+00  0.00000000000E+00  0.36109315819E+03  0.36109315819E+03  0.00000000000E+00 0.  1.
          1   -1    0    0  501    0  0.00000000000E+00 -0.00000000000E+00 -0.91758488593E+03  0.91758488593E+03  0.00000000000E+00 0. -1.
         23    2    1    2    0    0 -0.42546170884E+02 -0.11824154468E+03  0.78652354608E+02  0.17374257656E+03  0.90603810505E+02 0.  0.
        254    2    1    2    0    0  0.42546170884E+02  0.11824154468E+03 -0.63514408234E+03  0.11049354676E+04  0.89536760193E+03 0.  0.
        -24    2    4    4    0    0  0.13613633547E+03  0.22671488496E+03 -0.81600192627E+03  0.86169611343E+03  0.82026259974E+02 0.  0.
         24    2    4    4    0    0 -0.93590164582E+02 -0.10847334028E+03  0.18085784392E+03  0.24323935413E+03  0.77008046540E+02 0.  0.
         11    1    3    3    0    0  0.13398722294E+02 -0.53688554351E+02 -0.32095237361E+01  0.55428220881E+02  0.00000000000E+00 0. -1.
        -11    1    3    3    0    0 -0.55944893177E+02 -0.64552990333E+02  0.81861878345E+02  0.11831435568E+03  0.00000000000E+00 0.  1.
          2    1    6    6  502    0 -0.70529095919E+01 -0.64853797477E+02  0.82288727126E+02  0.10501044326E+03  0.00000000000E+00 0. -1.
          1    1    5    5  503    0  0.13664765084E+03  0.23324410835E+03 -0.79734812959E+03  0.84192602663E+03  0.00000000000E+00 0. -1.
         -2    1    5    5    0  503 -0.51131537736E+00 -0.65292233837E+01 -0.18653796678E+02  0.19770086796E+02  0.00000000000E+00 0.  1.
         -1    1    6    6    0  502 -0.86537254990E+02 -0.43619542803E+02  0.98569116799E+02  0.13822891088E+03  0.00000000000E+00 0.  1.
<mgrwt>
<rscale>  0 0.11512317E+04</rscale>
<asrwt>0</asrwt>
<pdfrwt beam="1">  1        1 0.14116690E+00 0.11512317E+04</pdfrwt>
<pdfrwt beam="2">  1       -1 0.55552794E-01 0.11512317E+04</pdfrwt>
<totfact> 0.57278194E+01</totfact>
</mgrwt>
</event>
<event>
12    1  0.1397649E-007  0.3147081E+04  0.7818608E-02  0.8202934E-01
          2   -1    0    0  501    0  0.00000000000E+00  0.00000000000E+00  0.87264398411E+03  0.87264398411E+03  0.00000000000E+00 0.  1.
         -2   -1    0    0    0  501 -0.00000000000E+00 -0.00000000000E+00 -0.28373880305E+04  0.28373880305E+04  0.00000000000E+00 0. -1.
         23    2    1    2    0    0  0.60863898980E+03 -0.31042407990E+03 -0.24076847242E+04  0.25043462437E+04  0.89441868020E+02 0.  0.
        254    2    1    2    0    0 -0.60863898980E+03  0.31042407990E+03  0.44294067776E+03  0.12056857710E+04  0.88920031773E+03 0.  0.
        -24    2    4    4    0    0 -0.45074975913E+03 -0.18661755374E+03  0.46341172871E+03  0.67764274452E+03  0.80298207756E+02 0.  0.
         24    2    4    4    0    0 -0.15788923067E+03  0.49704163364E+03 -0.20471050949E+02  0.52804302646E+03  0.80193385859E+02 0.  0.
         13    1    3    3    0    0  0.44478078887E+03 -0.24154534215E+03 -0.19079499948E+04  0.19739420673E+04  0.00000000000E+00 0. -1.
        -13    1    3    3    0    0  0.16385820093E+03 -0.68878737745E+02 -0.49973472939E+03  0.53040417635E+03  0.00000000000E+00 0.  1.
          2    1    6    6  502    0 -0.12305270196E+03  0.44927258404E+03 -0.35092182264E+02  0.46713946898E+03  0.00000000000E+00 0. -1.
          1    1    5    5  503    0 -0.33915590159E+03 -0.17306587093E+03  0.33697440981E+03  0.50845872412E+03  0.00000000000E+00 0. -1.
         -2    1    5    5    0  503 -0.11159385755E+03 -0.13551682812E+02  0.12643731890E+03  0.16918402040E+03  0.00000000000E+00 0.  1.
         -1    1    6    6    0  502 -0.34836528710E+02  0.47769049604E+02  0.14621131316E+02  0.60903557479E+02  0.00000000000E+00 0.  1.
<mgrwt>
<rscale>  0 0.31470809E+04</rscale>
<asrwt>0</asrwt>
<pdfrwt beam="1">  1        2 0.13425292E+00 0.31470809E+04</pdfrwt>
<pdfrwt beam="2">  1       -2 0.43652124E+00 0.31470809E+04</pdfrwt>
<totfact> 0.11021185E-01</totfact>
</mgrwt>
</event>
<event>
12    1  0.1397649E-007  0.1524730E+04  0.7818608E-02  0.8868172E-01
          3   -1    0    0  501    0  0.00000000000E+00  0.00000000000E+00  0.37363950940E+03  0.37363950940E+03  0.00000000000E+00 0. -1.
         -3   -1    0    0    0  501 -0.00000000000E+00 -0.00000000000E+00 -0.15555116584E+04  0.15555116584E+04  0.00000000000E+00 0.  1.
         23    2    1    2    0    0 -0.38130167398E+03  0.28259583003E+03 -0.22467396827E+03  0.53264260550E+03  0.89321797130E+02 0.  0.
        254    2    1    2    0    0  0.38130167398E+03 -0.28259583003E+03 -0.95719818071E+03  0.13965085623E+04  0.89930886668E+03 0.  0.
        -24    2    4    4    0    0  0.54527679859E+03 -0.29617031212E+03 -0.26369011509E+03  0.67960547358E+03  0.85366750317E+02 0.  0.
         24    2    4    4    0    0 -0.16397512461E+03  0.13574482093E+02 -0.69350806562E+03  0.71690308872E+03  0.76970731300E+02 0.  0.
         13    1    3    3    0    0 -0.11448659082E+02  0.56677497831E+01  0.82553066958E+01  0.15210038495E+02  0.00000000000E+00 0.  1.
        -13    1    3    3    0    0 -0.36985301489E+03  0.27692808025E+03 -0.23292927497E+03  0.51743256700E+03  0.00000000000E+00 0. -1.
          2    1    6    6  502    0 -0.46187943325E+01  0.16788577023E+02 -0.13428321810E+03  0.13540743053E+03  0.00000000000E+00 0. -1.
          1    1    5    5  503    0  0.26259424443E+03 -0.19106130149E+03 -0.13363781109E+03  0.35116836800E+03  0.00000000000E+00 0. -1.
         -2    1    5    5    0  503  0.28268255416E+03 -0.10510901064E+03 -0.13005230400E+03  0.32843710558E+03  0.00000000000E+00 0.  1.
         -1    1    6    6    0  502 -0.15935633028E+03 -0.32140949298E+01 -0.55922484752E+03  0.58149565818E+03  0.00000000000E+00 0.  1.
<mgrwt>
<rscale>  0 0.15247303E+04</rscale>
<asrwt>0</asrwt>
<pdfrwt beam="1">  1        3 0.57483002E-01 0.15247303E+04</pdfrwt>
<pdfrwt beam="2">  1       -3 0.23930948E+00 0.15247303E+04</pdfrwt>
<totfact> 0.63459191E-01</totfact>
</mgrwt>
</event>
<event>
12    1  0.1397649E-007  0.2516763E+04  0.7818608E-02  0.8397038E-01
         -2   -1    0    0    0  501 -0.00000000000E+00  0.00000000000E+00  0.13058859203E+04  0.13058859203E+04  0.00000000000E+00 0.  1.
          2   -1    0    0  501    0  0.00000000000E+00 -0.00000000000E+00 -0.12126048274E+04  0.12126048274E+04  0.00000000000E+00 0. -1.
         23    2    1    2    0    0  0.50419973678E+03 -0.68172306305E+03 -0.65401590480E+03  0.10746503018E+04  0.90403308785E+02 0.  0.
        254    2    1    2    0    0 -0.50419973678E+03  0.68172306305E+03  0.74729699769E+03  0.14438404458E+04  0.89847577651E+03 0.  0.
        -24    2    4    4    0    0 -0.10848343225E+03 -0.13419816308E+03  0.44442331441E+03  0.48412827709E+03  0.84203944360E+02 0.  0.
         24    2    4    4    0    0 -0.39571630453E+03  0.81592122613E+03  0.30287368329E+03  0.95971216873E+03  0.83642918821E+02 0.  0.
         13    1    3    3    0    0  0.75772071592E+01 -0.68462710458E+01  0.20961353105E+01  0.10424935434E+02  0.00000000000E+00 0.  1.
        -13    1    3    3    0    0  0.49662252962E+03 -0.67487679200E+03 -0.65611204011E+03  0.10642253664E+04  0.00000000000E+00 0. -1.
          4    1    6    6  502    0 -0.34530873501E+03  0.71443693343E+03  0.23478745027E+03  0.82751640535E+03  0.00000000000E+00 0. -1.
          1    1    5    5  503    0 -0.59614650750E+02 -0.12960697752E+03  0.31921844480E+03  0.34964595051E+03  0.00000000000E+00 0. -1.
         -2    1    5    5    0  503 -0.48868781498E+02 -0.45911855547E+01  0.12520486960E+03  0.13448232658E+03  0.00000000000E+00 0.  1.
         -3    1    6    6    0  502 -0.50407569517E+02  0.10148429270E+03  0.68086233015E+02  0.13219576338E+03  0.00000000000E+00 0.  1.
<mgrwt>
<rscale>  0 0.25167627E+04</rscale>
<asrwt>0</asrwt>
<pdfrwt beam="1">  1        2 0.18655459E+00 0.25167627E+04</pdfrwt>
<pdfrwt beam="2">  1       -2 0.20090553E+00 0.25167627E+04</pdfrwt>
<totfact> 0.21750630E+00</totfact>
</mgrwt>
</event>
<event>
12    1  0.1397649E-007  0.2748386E+04  0.7818608E-02  0.8319474E-01
          2   -1    0    0  501    0  0.00000000000E+00  0.00000000000E+00  0.16798693111E+04  0.16798693111E+04  0.00000000000E+00 0. -1.
         -2   -1    0    0    0  501 -0.00000000000E+00 -0.00000000000E+00 -0.11241390750E+04  0.11241390750E+04  0.00000000000E+00 0.  1.
         23    2    1    2    0    0  0.21575206475E+03 -0.11740026080E+04  0.37361536312E+02  0.11978426632E+04  0.92736638961E+02 0.  0.
        254    2    1    2    0    0 -0.21575206475E+03  0.11740026080E+04  0.51836869972E+03  0.16061657229E+04  0.94139850407E+03 0.  0.
        -24    2    4    4    0    0 -0.48679514021E+03  0.61043407567E+03  0.57529547395E+03  0.97313030554E+03  0.80115166661E+02 0.  0.
         24    2    4    4    0    0  0.27104307546E+03  0.56356853237E+03 -0.56926774232E+02  0.63303541737E+03  0.80120799964E+02 0.  0.
         13    1    3    3    0    0  0.11254376695E+03 -0.46664405207E+03  0.52097202279E+02  0.48284250983E+03  0.00000000000E+00 0. -1.
        -13    1    3    3    0    0  0.10320829779E+03 -0.70735855597E+03 -0.14735665967E+02  0.71500015335E+03  0.00000000000E+00 0.  1.
          4    1    6    6  502    0  0.50178629436E+02  0.48438143549E+02 -0.77952524346E+00  0.69747804712E+02  0.00000000000E+00 0. -1.
          1    1    5    5  503    0 -0.18884579306E+03  0.29669591952E+03  0.24075375129E+03  0.42620836568E+03  0.00000000000E+00 0. -1.
         -2    1    5    5    0  503 -0.29794934715E+03  0.31373815615E+03  0.33454172266E+03  0.54692193986E+03  0.00000000000E+00 0.  1.
         -3    1    6    6    0  502  0.22086444603E+03  0.51513038882E+03 -0.56147248989E+02  0.56328761266E+03  0.00000000000E+00 0.  1.
<mgrwt>
<rscale>  0 0.27483862E+04</rscale>
<asrwt>0</asrwt>
<pdfrwt beam="1">  1        2 0.25844143E+00 0.27483862E+04</pdfrwt>
<pdfrwt beam="2">  1       -2 0.17294447E+00 0.27483862E+04</pdfrwt>
<totfact> 0.17866358E+00</totfact>
</mgrwt>
</event>
<event>
12    1  0.1397649E-007  0.1425628E+04  0.7818608E-02  0.8935474E-01
         -1   -1    0    0    0  501 -0.00000000000E+00  0.00000000000E+00  0.18250582693E+03  0.18250582693E+03  0.00000000000E+00 0.  1.
          1   -1    0    0  501    0  0.00000000000E+00 -0.00000000000E+00 -0.27840410497E+04  0.27840410497E+04  0.00000000000E+00 0. -1.
         23    2    1    2    0    0  0.29568219616E+03  0.58562691242E+02 -0.17287401705E+03  0.36059317340E+03  0.96355907984E+02 0.  0.
        254    2    1    2    0    0 -0.29568219616E+03 -0.58562691242E+02 -0.24286612058E+04  0.26059537033E+04  0.89540041393E+03 0.  0.
        -24    2    4    4    0    0  0.14416090861E+03  0.31618519187E+03 -0.10289764637E+04  0.10895730980E+04  0.87301373472E+02 0.  0.
         24    2    4    4    0    0 -0.43984310477E+03 -0.37474788311E+03 -0.13996847421E+04  0.15163806053E+04  0.79967682773E+02 0.  0.
         13    1    3    3    0    0  0.13533599631E+02 -0.18724794324E+02 -0.19773335781E+02  0.30409884074E+02  0.00000000000E+00 0. -1.
        -13    1    3    3    0    0  0.28214859653E+03  0.77287485566E+02 -0.15310068127E+03  0.33018328933E+03  0.00000000000E+00 0.  1.
          4    1    6    6  502    0 -0.67410731683E+01 -0.26997118299E+02 -0.72489513353E+02  0.77646738567E+02  0.00000000000E+00 0. -1.
          1    1    5    5  503    0  0.82778654959E+02  0.14800180651E+03 -0.62703745638E+03  0.64956355513E+03  0.00000000000E+00 0. -1.
         -2    1    5    5    0  503  0.61382253653E+02  0.16818338536E+03 -0.40193900733E+03  0.44000954284E+03  0.00000000000E+00 0.  1.
         -1    1    6    6    0  502 -0.43310203160E+03 -0.34775076482E+03 -0.13271952287E+04  0.14387338667E+04  0.00000000000E+00 0.  1.
<mgrwt>
<rscale>  0 0.14256279E+04</rscale>
<asrwt>0</asrwt>
<pdfrwt beam="1">  1        1 0.42831401E+00 0.14256279E+04</pdfrwt>
<pdfrwt beam="2">  1       -1 0.28077819E-01 0.14256279E+04</pdfrwt>
<totfact> 0.95906328E+00</totfact>
</mgrwt>
</event>
<event>
12    1  0.1397649E-007  0.1622803E+04  0.7818608E-02  0.8806661E-01
          2   -1    0    0  501    0  0.00000000000E+00  0.00000000000E+00  0.99761428262E+03  0.99761428262E+03  0.00000000000E+00 0. -1.
         -2   -1    0    0    0  501 -0.00000000000E+00 -0.00000000000E+00 -0.65994675015E+03  0.65994675015E+03  0.00000000000E+00 0.  1.
         23    2    1    2    0    0 -0.63383391808E+02  0.39280000027E+01  0.68008735924E+03  0.68968750873E+03  0.95483820399E+02 0.  0.
        254    2    1    2    0    0  0.63383391808E+02 -0.39280000027E+01 -0.34241982676E+03  0.96787352404E+03  0.90304758304E+03 0.  0.
        -24    2    4    4    0    0  0.31353723275E+03 -0.23987907098E+03  0.86192152244E+02  0.41147188892E+03  0.77668933657E+02 0.  0.
         24    2    4    4    0    0 -0.25015384094E+03  0.23595107098E+03 -0.42861197901E+03  0.55640163511E+03  0.87319522310E+02 0.  0.
         11    1    3    3    0    0 -0.53651145337E+02  0.78572361039E+01  0.15005946752E+03  0.15955571237E+03  0.00000000000E+00 0.  1.
        -11    1    3    3    0    0 -0.97322464701E+01 -0.39292361013E+01  0.53002789172E+03  0.53013179637E+03  0.00000000000E+00 0. -1.
          2    1    6    6  502    0 -0.17009507210E+03  0.21080379378E+03 -0.32814197018E+03  0.42549703362E+03  0.00000000000E+00 0. -1.
          1    1    5    5  503    0  0.28643103732E+03 -0.23541024719E+03  0.64184435557E+02  0.37627166435E+03  0.00000000000E+00 0. -1.
         -2    1    5    5    0  503  0.27106195428E+02 -0.44688237863E+01  0.22007716687E+02  0.35200224579E+02  0.00000000000E+00 0.  1.
         -1    1    6    6    0  502 -0.80058768842E+02  0.25147277196E+02 -0.10047000882E+03  0.13090460149E+03  0.00000000000E+00 0.  1.
<mgrwt>
<rscale>  0 0.16228029E+04</rscale>
<asrwt>0</asrwt>
<pdfrwt beam="1">  1        2 0.15347912E+00 0.16228029E+04</pdfrwt>
<pdfrwt beam="2">  1       -2 0.10153027E+00 0.16228029E+04</pdfrwt>
<totfact> 0.19280891E+01</totfact>
</mgrwt>
</event>
<event>
12    1  0.1576325E-007  0.2257488E+04  0.7818608E-02  0.8494874E-01
          1   -1    0    0  501    0  0.00000000000E+00  0.00000000000E+00  0.14213987700E+04  0.14213987700E+04  0.00000000000E+00 0. -1.
         -1   -1    0    0    0  501 -0.00000000000E+00 -0.00000000000E+00 -0.89634456472E+03  0.89634456472E+03  0.00000000000E+00 0.  1.
         23    2    1    2    0    0  0.94237214593E+03  0.19925019192E+03  0.33249132255E+03  0.10233318624E+04  0.94295920830E+02 0.  0.
        254    2    1    2    0    0 -0.94237214593E+03 -0.19925019192E+03  0.19256288274E+03  0.12944114723E+04  0.84300337806E+03 0.  0.
        -24    2    4    4    0    0 -0.70334842019E+03  0.19256149108E+03 -0.10562919101E+03  0.74151003808E+03  0.83070346994E+02 0.  0.
         24    2    4    4    0    0 -0.23902372575E+03 -0.39181168300E+03  0.29819207376E+03  0.55290143423E+03  0.78311855580E+02 0.  0.
         13    1    3    3    0    0  0.93818331793E+03  0.19983170574E+03  0.32169252533E+03  0.10117345153E+04  0.00000000000E+00 0.  1.
        -13    1    3    3    0    0  0.41888280083E+01 -0.58151382061E+00  0.10798797223E+02  0.11597347105E+02  0.00000000000E+00 0. -1.
          2    1    6    6  502    0 -0.33343100535E+02 -0.97942308762E+02  0.39919768067E+02  0.11089655577E+03  0.00000000000E+00 0. -1.
          3    1    5    5  503    0 -0.28863254608E+03  0.59657757839E+02 -0.61320027933E+01  0.29479721197E+03  0.00000000000E+00 0. -1.
         -4    1    5    5    0  503 -0.41471587411E+03  0.13290373324E+03 -0.99497188220E+02  0.44671282611E+03  0.00000000000E+00 0.  1.
         -1    1    6    6    0  502 -0.20568062521E+03 -0.29386937423E+03  0.25827230569E+03  0.44200487846E+03  0.00000000000E+00 0.  1.
<mgrwt>
<rscale>  0 0.22574880E+04</rscale>
<asrwt>0</asrwt>
<pdfrwt beam="1">  1        1 0.21867673E+00 0.22574880E+04</pdfrwt>
<pdfrwt beam="2">  1       -1 0.13789916E+00 0.22574880E+04</pdfrwt>
<totfact> 0.29359309E+00</totfact>
</mgrwt>
</event>
<event>
12    1  0.2136487E-007  0.1921312E+04  0.7818608E-02  0.8644320E-01
          1   -1    0    0  501    0  0.00000000000E+00  0.00000000000E+00  0.14220681213E+04  0.14220681213E+04  0.00000000000E+00 0. -1.
         -1   -1    0    0    0  501 -0.00000000000E+00 -0.00000000000E+00 -0.64895600726E+03  0.64895600726E+03  0.00000000000E+00 0.  1.
         23    2    1    2    0    0 -0.52116410326E+03 -0.54490584337E+03  0.31023086266E+03  0.82030433083E+03  0.90119955467E+02 0.  0.
        254    2    1    2    0    0  0.52116410326E+03  0.54490584337E+03  0.46288125137E+03  0.12507197977E+04  0.88402859619E+03 0.  0.
        -24    2    4    4    0    0  0.35587166992E+03  0.64150288606E+03  0.64076329803E+03  0.97740219165E+03  0.81036052913E+02 0.  0.
         24    2    4    4    0    0  0.16529243334E+03 -0.96597042690E+02 -0.17788204666E+03  0.27331760607E+03  0.80049447767E+02 0.  0.
         11    1    3    3    0    0 -0.51988579341E+03 -0.54770087637E+03  0.30538467405E+03  0.81456570473E+03  0.00000000000E+00 0.  1.
        -11    1    3    3    0    0 -0.12783098514E+01  0.27950330065E+01  0.48461886064E+01  0.57386261067E+01  0.00000000000E+00 0. -1.
          2    1    6    6  502    0  0.14708598672E+03 -0.63191217876E+02 -0.17173848954E+03  0.23477973996E+03  0.00000000000E+00 0. -1.
          1    1    5    5  503    0  0.35999993538E+03  0.63646618949E+03  0.63758069430E+03  0.97015375358E+03  0.00000000000E+00 0. -1.
         -2    1    5    5    0  503 -0.41282654590E+01  0.50366965700E+01  0.31826037305E+01  0.72484380761E+01  0.00000000000E+00 0.  1.
         -1    1    6    6    0  502  0.18206446627E+02 -0.33405824814E+02 -0.61435571137E+01  0.38537866110E+02  0.00000000000E+00 0.  1.
<mgrwt>
<rscale>  0 0.19213117E+04</rscale>
<asrwt>0</asrwt>
<pdfrwt beam="1">  1        1 0.21877971E+00 0.19213117E+04</pdfrwt>
<pdfrwt beam="2">  1       -1 0.99839386E-01 0.19213117E+04</pdfrwt>
<totfact> 0.66234941E+00</totfact>
</mgrwt>
</event>
<event>
12    1  0.1397649E-007  0.1560018E+04  0.7818608E-02  0.8845494E-01
         -4   -1    0    0    0  501 -0.00000000000E+00  0.00000000000E+00  0.52461848827E+03  0.52461848827E+03  0.00000000000E+00 0.  1.
          4   -1    0    0  501    0  0.00000000000E+00 -0.00000000000E+00 -0.11597265105E+04  0.11597265105E+04  0.00000000000E+00 0. -1.
         23    2    1    2    0    0 -0.12792476539E+03  0.49415287625E+03 -0.26721068798E+03  0.58297812551E+03  0.88938924812E+02 0.  0.
        254    2    1    2    0    0  0.12792476539E+03 -0.49415287625E+03 -0.36789733424E+03  0.11013668733E+04  0.90394066744E+03 0.  0.
        -24    2    4    4    0    0  0.45420025116E+03 -0.24846963814E+03 -0.43342489357E+03  0.68001569381E+03  0.80803318193E+02 0.  0.
         24    2    4    4    0    0 -0.32627548577E+03 -0.24568323810E+03  0.65527559333E+02  0.42135117944E+03  0.80168630322E+02 0.  0.
         13    1    3    3    0    0 -0.11015323728E+03  0.36846312518E+03 -0.15890191007E+03  0.41611131602E+03  0.00000000000E+00 0. -1.
        -13    1    3    3    0    0 -0.17771528108E+02  0.12568975107E+03 -0.10830877791E+03  0.16686680949E+03  0.00000000000E+00 0.  1.
          2    1    6    6  502    0 -0.48961717630E+02 -0.69141240626E+02  0.33315645159E+02  0.91036768182E+02  0.00000000000E+00 0. -1.
          1    1    5    5  503    0  0.36379808053E+02  0.39872591634E+00 -0.43274937287E+02  0.56536445003E+02  0.00000000000E+00 0. -1.
         -2    1    5    5    0  503  0.41782044310E+03 -0.24886836406E+03 -0.39014995628E+03  0.62347924881E+03  0.00000000000E+00 0.  1.
         -1    1    6    6    0  502 -0.27731376814E+03 -0.17654199748E+03  0.32211914174E+02  0.33031441126E+03  0.00000000000E+00 0.  1.
<mgrwt>
<rscale>  0 0.15600179E+04</rscale>
<asrwt>0</asrwt>
<pdfrwt beam="1">  1        4 0.17841946E+00 0.15600179E+04</pdfrwt>
<pdfrwt beam="2">  1       -4 0.80710537E-01 0.15600179E+04</pdfrwt>
<totfact> 0.48236814E-01</totfact>
</mgrwt>
</event>
<event>
12    1  0.1397649E-007  0.1536636E+04  0.7818608E-02  0.8860449E-01
         -2   -1    0    0    0  501 -0.00000000000E+00  0.00000000000E+00  0.63919699359E+03  0.63919699359E+03  0.00000000000E+00 0. -1.
          2   -1    0    0  501    0  0.00000000000E+00 -0.00000000000E+00 -0.92352231505E+03  0.92352231505E+03  0.00000000000E+00 0.  1.
         23    2    1    2    0    0  0.28789885093E+03 -0.36523869154E+03  0.95579057971E+02  0.48352432917E+03  0.91517049868E+02 0.  0.
        254    2    1    2    0    0 -0.28789885093E+03  0.36523869154E+03 -0.37990437943E+03  0.10791949795E+04  0.89668802603E+03 0.  0.
        -24    2    4    4    0    0  0.28245455952E+03  0.30734314384E+03 -0.22123656954E+03  0.47905236847E+03  0.79405074002E+02 0.  0.
         24    2    4    4    0    0 -0.57035341044E+03  0.57895547699E+02 -0.15866780989E+03  0.60014261099E+03  0.79628966999E+02 0.  0.
         13    1    3    3    0    0  0.26645044232E+03 -0.30991522562E+03  0.56792451264E+02  0.41263624151E+03  0.00000000000E+00 0. -1.
        -13    1    3    3    0    0  0.21448408605E+02 -0.55323465919E+02  0.38786606706E+02  0.70888087665E+02  0.00000000000E+00 0.  1.
          2    1    6    6  502    0 -0.52112724875E+03  0.72445613382E+02 -0.15584066433E+03  0.54873334958E+03  0.00000000000E+00 0. -1.
          3    1    5    5  503    0  0.28025079651E+03  0.27891400888E+03 -0.19761154655E+03  0.44202246167E+03  0.00000000000E+00 0. -1.
         -4    1    5    5    0  503  0.22037630047E+01  0.28429134966E+02 -0.23625022986E+02  0.37029906797E+02  0.00000000000E+00 0.  1.
         -3    1    6    6    0  502 -0.49226161692E+02 -0.14550065683E+02 -0.28271455629E+01  0.51409261406E+02  0.00000000000E+00 0.  1.
<mgrwt>
<rscale>  0 0.15366362E+04</rscale>
<asrwt>0</asrwt>
<pdfrwt beam="1">  1        2 0.14208036E+00 0.15366362E+04</pdfrwt>
<pdfrwt beam="2">  1       -2 0.98337999E-01 0.15366362E+04</pdfrwt>
<totfact> 0.23415746E+01</totfact>
</mgrwt>
</event>
<event>
12    1  0.1397649E-007  0.1818226E+04  0.7818608E-02  0.8696667E-01
          1   -1    0    0  501    0  0.00000000000E+00  0.00000000000E+00  0.13186405310E+04  0.13186405310E+04  0.00000000000E+00 0.  1.
         -1   -1    0    0    0  501 -0.00000000000E+00 -0.00000000000E+00 -0.62677172459E+03  0.62677172459E+03  0.00000000000E+00 0. -1.
         23    2    1    2    0    0 -0.42750768427E+03 -0.45011446682E+03  0.53774927257E+03  0.82495412709E+03  0.77518889992E+02 0.  0.
        254    2    1    2    0    0  0.42750768427E+03  0.45011446682E+03  0.15411953383E+03  0.11204581285E+04  0.91994985389E+03 0.  0.
        -24    2    4    4    0    0 -0.35370574173E+02  0.10693667209E+03 -0.33414112519E+03  0.36100666212E+03  0.77388559860E+02 0.  0.
         24    2    4    4    0    0  0.46287825844E+03  0.34317779473E+03  0.48826065902E+03  0.75945146638E+03  0.79629000382E+02 0.  0.
         13    1    3    3    0    0 -0.42644290269E+02 -0.78473802454E+02  0.96192444120E+02  0.13126179745E+03  0.00000000000E+00 0. -1.
        -13    1    3    3    0    0 -0.38486339400E+03 -0.37164066436E+03  0.44155682845E+03  0.69369232964E+03  0.00000000000E+00 0.  1.
          4    1    6    6  502    0  0.12499441210E+03  0.73438302880E+02  0.84016102907E+02  0.16755743175E+03  0.00000000000E+00 0. -1.
          1    1    5    5  503    0  0.29237781406E+01 -0.87575599888E+01 -0.63827304476E+02  0.64491612883E+02  0.00000000000E+00 0. -1.
         -2    1    5    5    0  503 -0.38294352313E+02  0.11569423208E+03 -0.27031382071E+03  0.29651504924E+03  0.00000000000E+00 0.  1.
         -3    1    6    6    0  502  0.33788384634E+03  0.26973949185E+03  0.40424455612E+03  0.59189403463E+03  0.00000000000E+00 0.  1.
<mgrwt>
<rscale>  0 0.18182262E+04</rscale>
<asrwt>0</asrwt>
<pdfrwt beam="1">  1        1 0.20286777E+00 0.18182262E+04</pdfrwt>
<pdfrwt beam="2">  1       -1 0.96426419E-01 0.18182262E+04</pdfrwt>
<totfact> 0.85576599E+00</totfact>
</mgrwt>
</event>
<event>
12    1  0.1397649E-007  0.1440694E+04  0.7818608E-02  0.8924878E-01
         -1   -1    0    0    0  501 -0.00000000000E+00  0.00000000000E+00  0.99779518145E+03  0.99779518145E+03  0.00000000000E+00 0.  1.
          1   -1    0    0  501    0  0.00000000000E+00 -0.00000000000E+00 -0.52004655717E+03  0.52004655717E+03  0.00000000000E+00 0. -1.
         23    2    1    2    0    0 -0.75974998733E+02  0.37317622206E+03  0.36788962291E+03  0.53677508298E+03  0.88045567324E+02 0.  0.
        254    2    1    2    0    0  0.75974998733E+02 -0.37317622206E+03  0.10985900136E+03  0.98106665563E+03  0.89743528428E+03 0.  0.
        -24    2    4    4    0    0  0.39434345855E+03 -0.15064403727E+02  0.25151910334E+03  0.47487623869E+03  0.80696240102E+02 0.  0.
         24    2    4    4    0    0 -0.31836845982E+03 -0.35811181833E+03 -0.14166010197E+03  0.50619041694E+03  0.80985202815E+02 0.  0.
         11    1    3    3    0    0 -0.29794363149E+02  0.22410019835E+03  0.27167749415E+03  0.35343636458E+03  0.00000000000E+00 0.  1.
        -11    1    3    3    0    0 -0.46180635584E+02  0.14907602371E+03  0.96212128762E+02  0.18333871841E+03  0.00000000000E+00 0. -1.
          2    1    6    6  502    0 -0.27463512494E+02 -0.16259377808E+02  0.82140389762E+01  0.32955763100E+02  0.00000000000E+00 0. -1.
          1    1    5    5  503    0  0.10455967452E+03 -0.28489033356E+02  0.38641413486E+02  0.11505437581E+03  0.00000000000E+00 0. -1.
         -2    1    5    5    0  503  0.28978378403E+03  0.13424629629E+02  0.21287768985E+03  0.35982186288E+03  0.00000000000E+00 0.  1.
         -1    1    6    6    0  502 -0.29090494733E+03 -0.34185244052E+03 -0.14987414095E+03  0.47323465384E+03  0.00000000000E+00 0.  1.
<mgrwt>
<rscale>  0 0.14406942E+04</rscale>
<asrwt>0</asrwt>
<pdfrwt beam="1">  1        1 0.80007163E-01 0.14406942E+04</pdfrwt>
<pdfrwt beam="2">  1       -1 0.15350695E+00 0.14406942E+04</pdfrwt>
<totfact> 0.13366570E+01</totfact>
</mgrwt>
</event>
<event>
12    1  0.1397649E-007  0.1573340E+04  0.7818608E-02  0.8837096E-01
         -2   -1    0    0    0  501 -0.00000000000E+00  0.00000000000E+00  0.24758789744E+03  0.24758789744E+03  0.00000000000E+00 0. -1.
          2   -1    0    0  501    0  0.00000000000E+00 -0.00000000000E+00 -0.24995135754E+04  0.24995135754E+04  0.00000000000E+00 0.  1.
         23    2    1    2    0    0 -0.17624709973E+03  0.35029798963E+02  0.10188763584E+03  0.22529800345E+03  0.89933158748E+02 0.  0.
        254    2    1    2    0    0  0.17624709973E+03 -0.35029798963E+02 -0.23538133138E+04  0.25218034694E+04  0.88699802425E+03 0.  0.
        -24    2    4    4    0    0  0.92728600983E+02  0.34644869225E+03 -0.47230108433E+03  0.59857657161E+03  0.81242279795E+02 0.  0.
         24    2    4    4    0    0  0.83518498743E+02 -0.38147849121E+03 -0.18815122295E+04  0.19232268978E+04  0.78817839333E+02 0.  0.
         13    1    3    3    0    0 -0.11926853156E+03  0.29800191586E+02  0.18725213660E+02  0.12435299621E+03  0.00000000000E+00 0.  1.
        -13    1    3    3    0    0 -0.56978568164E+02  0.52296073775E+01  0.83162422178E+02  0.10094500724E+03  0.00000000000E+00 0. -1.
          2    1    6    6  502    0 -0.11198600652E+02 -0.11030460350E+03 -0.55673557539E+03  0.56766805011E+03  0.00000000000E+00 0. -1.
          1    1    5    5  503    0 -0.61756310982E+01  0.55284212310E+02 -0.42046527104E+02  0.69730861114E+02  0.00000000000E+00 0. -1.
         -2    1    5    5    0  503  0.98904232082E+02  0.29116447994E+03 -0.43025455723E+03  0.52884571050E+03  0.00000000000E+00 0.  1.
         -1    1    6    6    0  502  0.94717099395E+02 -0.27117388771E+03 -0.13247766541E+04  0.13555588477E+04  0.00000000000E+00 0.  1.
<mgrwt>
<rscale>  0 0.15733395E+04</rscale>
<asrwt>0</asrwt>
<pdfrwt beam="1">  1        2 0.38454054E+00 0.15733395E+04</pdfrwt>
<pdfrwt beam="2">  1       -2 0.38090447E-01 0.15733395E+04</pdfrwt>
<totfact> 0.21829196E+01</totfact>
</mgrwt>
</event>
<event>
12    1  0.1397649E-007  0.1683144E+04  0.7818608E-02  0.8771037E-01
          3   -1    0    0  501    0  0.00000000000E+00  0.00000000000E+00  0.89779967936E+03  0.89779967936E+03  0.00000000000E+00 0.  1.
         -3   -1    0    0    0  501 -0.00000000000E+00 -0.00000000000E+00 -0.78886575506E+03  0.78886575506E+03  0.00000000000E+00 0. -1.
         23    2    1    2    0    0 -0.12882261092E+02  0.55160167646E+03 -0.18940024716E+03  0.59041867876E+03  0.91057127529E+02 0.  0.
        254    2    1    2    0    0  0.12882261092E+02 -0.55160167646E+03  0.29833417146E+03  0.10962467557E+04  0.89906802264E+03 0.  0.
        -24    2    4    4    0    0  0.38720211153E+03 -0.25854724280E+03 -0.85951351079E+02  0.47983371572E+03  0.77978253712E+02 0.  0.
         24    2    4    4    0    0 -0.37431985044E+03 -0.29305443366E+03  0.38428552254E+03  0.61641303995E+03  0.79331087642E+02 0.  0.
         11    1    3    3    0    0 -0.19282933613E+02  0.46353628667E+03 -0.19196454319E+03  0.50208376436E+03  0.00000000000E+00 0.  1.
        -11    1    3    3    0    0  0.64006725214E+01  0.88065389788E+02  0.25642960301E+01  0.88334914396E+02  0.00000000000E+00 0. -1.
          4    1    6    6  502    0 -0.22148712320E+03 -0.22111047187E+03  0.24416401082E+03  0.39694136934E+03  0.00000000000E+00 0. -1.
          1    1    5    5  503    0  0.22351918226E+03 -0.10241201068E+03 -0.44452910895E+02  0.24985016721E+03  0.00000000000E+00 0. -1.
         -2    1    5    5    0  503  0.16368292928E+03 -0.15613523212E+03 -0.41498440184E+02  0.22998354851E+03  0.00000000000E+00 0.  1.
         -3    1    6    6    0  502 -0.15283272724E+03 -0.71943961790E+02  0.14012151172E+03  0.21947167061E+03  0.00000000000E+00 0.  1.
<mgrwt>
<rscale>  0 0.16831440E+04</rscale>
<asrwt>0</asrwt>
<pdfrwt beam="1">  1        3 0.13812303E+00 0.16831440E+04</pdfrwt>
<pdfrwt beam="2">  1       -3 0.12136396E+00 0.16831440E+04</pdfrwt>
<totfact> 0.54814736E-01</totfact>
</mgrwt>
</event>
<event>
12    1  0.1397649E-007  0.1773085E+04  0.7818608E-02  0.8720745E-01
         -2   -1    0    0    0  501 -0.00000000000E+00  0.00000000000E+00  0.52238596676E+03  0.52238596676E+03  0.00000000000E+00 0.  1.
          2   -1    0    0  501    0  0.00000000000E+00 -0.00000000000E+00 -0.15045533538E+04  0.15045533538E+04  0.00000000000E+00 0. -1.
         23    2    1    2    0    0 -0.38932448013E+03  0.41369892521E+03 -0.73973854581E+03  0.93731602437E+03  0.92886284444E+02 0.  0.
        254    2    1    2    0    0  0.38932448013E+03 -0.41369892521E+03 -0.24242884126E+03  0.10896232962E+04  0.89765630006E+03 0.  0.
        -24    2    4    4    0    0  0.32559393721E+03 -0.65316631590E+03 -0.18775904982E+01  0.73416446877E+03  0.79726367550E+02 0.  0.
         24    2    4    4    0    0  0.63730542927E+02  0.23946739069E+03 -0.24055125076E+03  0.35545882745E+03  0.84141906686E+02 0.  0.
         11    1    3    3    0    0 -0.30217165158E+03  0.30160452903E+03 -0.61280177146E+03  0.74685943125E+03  0.00000000000E+00 0. -1.
        -11    1    3    3    0    0 -0.87152828557E+02  0.11209439618E+03 -0.12693677435E+03  0.19045659312E+03  0.00000000000E+00 0.  1.
          2    1    6    6  502    0  0.36452488693E+02  0.14605114533E+03 -0.19929796228E+03  0.24975868104E+03  0.00000000000E+00 0. -1.
          3    1    5    5  503    0  0.31684518881E+03 -0.58822591002E+03  0.60502579674E+01  0.66815956217E+03  0.00000000000E+00 0. -1.
         -4    1    5    5    0  503  0.87487483974E+01 -0.64940405881E+02 -0.79278484656E+01  0.66004906604E+02  0.00000000000E+00 0.  1.
         -1    1    6    6    0  502  0.27278054234E+02  0.93416245361E+02 -0.41253288474E+02  0.10570014640E+03  0.00000000000E+00 0.  1.
<mgrwt>
<rscale>  0 0.17730849E+04</rscale>
<asrwt>0</asrwt>
<pdfrwt beam="1">  1        2 0.23146975E+00 0.17730849E+04</pdfrwt>
<pdfrwt beam="2">  1       -2 0.80367072E-01 0.17730849E+04</pdfrwt>
<totfact> 0.16333188E+01</totfact>
</mgrwt>
</event>
<event>
12    1  0.1397649E-007  0.1382441E+04  0.7818608E-02  0.8966628E-01
          3   -1    0    0  501    0  0.00000000000E+00  0.00000000000E+00  0.34531735932E+03  0.34531735932E+03  0.00000000000E+00 0. -1.
         -3   -1    0    0    0  501 -0.00000000000E+00 -0.00000000000E+00 -0.13836130293E+04  0.13836130293E+04  0.00000000000E+00 0.  1.
         23    2    1    2    0    0 -0.97378791812E+02 -0.32924312565E+03 -0.70100390254E+02  0.36238957502E+03  0.92349740070E+02 0.  0.
        254    2    1    2    0    0  0.97378791812E+02  0.32924312565E+03 -0.96819527977E+03  0.13665408136E+04  0.90119256027E+03 0.  0.
        -24    2    4    4    0    0 -0.68100358295E+01  0.52176035407E+03 -0.10012958335E+04  0.11319093947E+04  0.79657315828E+02 0.  0.
         24    2    4    4    0    0  0.10418882764E+03 -0.19251722843E+03  0.33100553752E+02  0.23463141892E+03  0.77704961475E+02 0.  0.
         13    1    3    3    0    0 -0.60015936492E+02 -0.74252439883E+02 -0.62779124761E+00  0.95476340438E+02  0.00000000000E+00 0. -1.
        -13    1    3    3    0    0 -0.37362855320E+02 -0.25499068576E+03 -0.69472599006E+02  0.26691323458E+03  0.00000000000E+00 0.  1.
          4    1    6    6  502    0  0.85693445579E+02 -0.17833694549E+03  0.47273087329E+01  0.19791356747E+03  0.00000000000E+00 0. -1.
          3    1    5    5  503    0  0.23765574504E+02  0.41541208848E+03 -0.75992367065E+03  0.86638097336E+03  0.00000000000E+00 0. -1.
         -4    1    5    5    0  503 -0.30575610334E+02  0.10634826559E+03 -0.24137216288E+03  0.26552842137E+03  0.00000000000E+00 0.  1.
         -3    1    6    6    0  502  0.18495382062E+02 -0.14180282937E+02  0.28373245019E+02  0.36717851444E+02  0.00000000000E+00 0.  1.
<mgrwt>
<rscale>  0 0.13824407E+04</rscale>
<asrwt>0</asrwt>
<pdfrwt beam="1">  1        3 0.53125748E-01 0.13824407E+04</pdfrwt>
<pdfrwt beam="2">  1       -3 0.21286354E+00 0.13824407E+04</pdfrwt>
<totfact> 0.10893950E+00</totfact>
</mgrwt>
</event>
<event>
12    1  0.1397649E-007  0.2573771E+04  0.7818608E-02  0.8377165E-01
         -2   -1    0    0    0  501 -0.00000000000E+00  0.00000000000E+00  0.94458432437E+03  0.94458432437E+03  0.00000000000E+00 0.  1.
          2   -1    0    0  501    0  0.00000000000E+00 -0.00000000000E+00 -0.17532311863E+04  0.17532311863E+04  0.00000000000E+00 0. -1.
         23    2    1    2    0    0  0.48150866234E+03 -0.30350696244E+03  0.66344140197E+03  0.87901614107E+03  0.92454390079E+02 0.  0.
        254    2    1    2    0    0 -0.48150866234E+03  0.30350696244E+03 -0.14720882639E+04  0.18187993696E+04  0.90389170920E+03 0.  0.
        -24    2    4    4    0    0 -0.11579153128E+02 -0.12064655244E+03 -0.10352147576E+04  0.10453962370E+04  0.80585548777E+02 0.  0.
         24    2    4    4    0    0 -0.46992950921E+03  0.42415351488E+03 -0.43687350629E+03  0.77340313254E+03  0.80956760749E+02 0.  0.
         11    1    3    3    0    0  0.24770186234E+03 -0.19565909493E+03  0.41311062956E+03  0.51990295854E+03  0.00000000000E+00 0. -1.
        -11    1    3    3    0    0  0.23380680000E+03 -0.10784786751E+03  0.25033077241E+03  0.35911318253E+03  0.00000000000E+00 0.  1.
          4    1    6    6  502    0 -0.46133182285E+03  0.42400470866E+03 -0.41958607723E+03  0.75409516637E+03  0.00000000000E+00 0. -1.
          3    1    5    5  503    0 -0.26949424700E+02 -0.42122276576E+02 -0.65213079272E+03  0.65404520371E+03  0.00000000000E+00 0. -1.
         -4    1    5    5    0  503  0.15370271572E+02 -0.78524275863E+02 -0.38308396488E+03  0.39135103334E+03  0.00000000000E+00 0.  1.
         -3    1    6    6    0  502 -0.85976863620E+01  0.14880621785E+00 -0.17287429054E+02  0.19307966164E+02  0.00000000000E+00 0.  1.
<mgrwt>
<rscale>  0 0.25737713E+04</rscale>
<asrwt>0</asrwt>
<pdfrwt beam="1">  1        2 0.26972787E+00 0.25737713E+04</pdfrwt>
<pdfrwt beam="2">  1       -2 0.14532067E+00 0.25737713E+04</pdfrwt>
<totfact> 0.26459506E+00</totfact>
</mgrwt>
</event>
<event>
12    1  0.1742575E-007  0.1964920E+04  0.7818608E-02  0.8623200E-01
         -1   -1    0    0    0  501 -0.00000000000E+00  0.00000000000E+00  0.35194229727E+03  0.35194229727E+03  0.00000000000E+00 0.  1.
          1   -1    0    0  501    0  0.00000000000E+00 -0.00000000000E+00 -0.27425740424E+04  0.27425740424E+04  0.00000000000E+00 0. -1.
         23    2    1    2    0    0 -0.70583350308E+03 -0.30928431294E+03 -0.10127329795E+04  0.12788115504E+04  0.12598878254E+03 0.  0.
        254    2    1    2    0    0  0.70583350308E+03  0.30928431294E+03 -0.13778987657E+04  0.18157047893E+04  0.89683953594E+03 0.  0.
        -24    2    4    4    0    0 -0.18560358697E+03  0.19151995923E+03 -0.36904971908E+03  0.46194742271E+03  0.77904684807E+02 0.  0.
         24    2    4    4    0    0  0.89143709004E+03  0.11776435371E+03 -0.10088490466E+04  0.13537573666E+04  0.79712485489E+02 0.  0.
         13    1    3    3    0    0 -0.26892799227E+02 -0.13583372197E+02 -0.94411734108E+02  0.99102503439E+02  0.00000000000E+00 0. -1.
        -13    1    3    3    0    0 -0.67894070385E+03 -0.29570094075E+03 -0.91832124536E+03  0.11797090469E+04  0.00000000000E+00 0.  1.
          2    1    6    6  502    0  0.75126326970E+02  0.24345603016E+02 -0.64181616529E+02  0.10176420437E+03  0.00000000000E+00 0. -1.
          1    1    5    5  503    0 -0.38586362342E+01 -0.62315390418E+01 -0.21481172770E+02  0.22697179032E+02  0.00000000000E+00 0. -1.
         -2    1    5    5    0  503 -0.18174495073E+03  0.19775149827E+03 -0.34756854631E+03  0.43925024368E+03  0.00000000000E+00 0.  1.
         -1    1    6    6    0  502  0.81631076307E+03  0.93418750697E+02 -0.94466743009E+03  0.12519931623E+04  0.00000000000E+00 0.  1.
<mgrwt>
<rscale>  0 0.19649202E+04</rscale>
<asrwt>0</asrwt>
<pdfrwt beam="1">  1        1 0.42193447E+00 0.19649202E+04</pdfrwt>
<pdfrwt beam="2">  1       -1 0.54144969E-01 0.19649202E+04</pdfrwt>
<totfact> 0.29376442E+00</totfact>
</mgrwt>
</event>
<event>
12    1  0.1397649E-007  0.1560070E+04  0.7818608E-02  0.8845461E-01
         -1   -1    0    0    0  501 -0.00000000000E+00  0.00000000000E+00  0.59402699155E+03  0.59402699155E+03  0.00000000000E+00 0.  1.
          1   -1    0    0  501    0  0.00000000000E+00 -0.00000000000E+00 -0.10242873699E+04  0.10242873699E+04  0.00000000000E+00 0. -1.
         23    2    1    2    0    0 -0.31547481736E+03 -0.35252751644E+03  0.70535974431E+02  0.48817392955E+03  0.97664996672E+02 0.  0.
        254    2    1    2    0    0  0.31547481736E+03  0.35252751644E+03 -0.50079635279E+03  0.11301404319E+04  0.89589084079E+03 0.  0.
        -24    2    4    4    0    0  0.52267118505E+03  0.51390468457E+03 -0.35054755659E+03  0.81638497141E+03  0.79483580707E+02 0.  0.
         24    2    4    4    0    0 -0.20719636769E+03 -0.16137716813E+03 -0.15024879620E+03  0.31375546049E+03  0.83035312074E+02 0.  0.
         13    1    3    3    0    0 -0.15164786881E+03 -0.20119883152E+03 -0.70300938886E+01  0.25204655947E+03  0.00000000000E+00 0. -1.
        -13    1    3    3    0    0 -0.16382694855E+03 -0.15132868492E+03  0.77566068320E+02  0.23612737009E+03  0.00000000000E+00 0.  1.
          4    1    6    6  502    0 -0.79267688009E+02 -0.10376142253E+03 -0.44099294727E+02  0.13782070586E+03  0.00000000000E+00 0. -1.
          3    1    5    5  503    0  0.37662042161E+03  0.40784524279E+03 -0.24059376216E+03  0.60503391842E+03  0.00000000000E+00 0. -1.
         -4    1    5    5    0  503  0.14605076343E+03  0.10605944178E+03 -0.10995379443E+03  0.21135105299E+03  0.00000000000E+00 0.  1.
         -3    1    6    6    0  502 -0.12792867968E+03 -0.57615745608E+02 -0.10614950147E+03  0.17593475464E+03  0.00000000000E+00 0.  1.
<mgrwt>
<rscale>  0 0.15600697E+04</rscale>
<asrwt>0</asrwt>
<pdfrwt beam="1">  1        1 0.15758267E+00 0.15600697E+04</pdfrwt>
<pdfrwt beam="2">  1       -1 0.91388769E-01 0.15600697E+04</pdfrwt>
<totfact> 0.16286541E+01</totfact>
</mgrwt>
</event>
<event>
12    1  0.1397649E-007  0.2919295E+04  0.7818608E-02  0.8267160E-01
          2   -1    0    0  501    0  0.00000000000E+00  0.00000000000E+00  0.13951948285E+04  0.13951948285E+04  0.00000000000E+00 0. -1.
         -2   -1    0    0    0  501 -0.00000000000E+00 -0.00000000000E+00 -0.15270779818E+04  0.15270779818E+04  0.00000000000E+00 0.  1.
         23    2    1    2    0    0 -0.93334136135E+03 -0.21134781821E+03 -0.96637407338E+03  0.13630972914E+04  0.91440577188E+02 0.  0.
        254    2    1    2    0    0  0.93334136135E+03  0.21134781821E+03  0.83449092013E+03  0.15591755189E+04  0.90490839635E+03 0.  0.
        -24    2    4    4    0    0  0.45175141709E+03 -0.11048071507E+03  0.85199541837E+03  0.97379955803E+03  0.78128452318E+02 0.  0.
         24    2    4    4    0    0  0.48158994426E+03  0.32182853328E+03 -0.17504498235E+02  0.58537596084E+03  0.82801744056E+02 0.  0.
         13    1    3    3    0    0 -0.67549934088E+03 -0.11575814887E+03 -0.71723706096E+03  0.99203241387E+03  0.00000000000E+00 0.  1.
        -13    1    3    3    0    0 -0.25784202048E+03 -0.95589669345E+02 -0.24913701241E+03  0.37106487757E+03  0.00000000000E+00 0. -1.
          4    1    6    6  502    0  0.68617525223E+02  0.25573220453E+02  0.19515780214E+02  0.75784035584E+02  0.00000000000E+00 0. -1.
          1    1    5    5  503    0  0.17095352049E+02  0.79956499454E+01  0.56795873661E+02  0.59849417246E+02  0.00000000000E+00 0. -1.
         -2    1    5    5    0  503  0.43465606504E+03 -0.11847636502E+03  0.79519954470E+03  0.91395014079E+03  0.00000000000E+00 0.  1.
         -3    1    6    6    0  502  0.41297241904E+03  0.29625531283E+03 -0.37020278449E+02  0.50959192525E+03  0.00000000000E+00 0.  1.
<mgrwt>
<rscale>  0 0.29192953E+04</rscale>
<asrwt>0</asrwt>
<pdfrwt beam="1">  1        2 0.21464536E+00 0.29192953E+04</pdfrwt>
<pdfrwt beam="2">  1       -2 0.23493508E+00 0.29192953E+04</pdfrwt>
<totfact> 0.99942452E-01</totfact>
</mgrwt>
</event>
<event>
12    1  0.1397649E-007  0.1488856E+04  0.7818608E-02  0.8891897E-01
          2   -1    0    0  501    0  0.00000000000E+00  0.00000000000E+00  0.13503026530E+04  0.13503026530E+04  0.00000000000E+00 0. -1.
         -2   -1    0    0    0  501 -0.00000000000E+00 -0.00000000000E+00 -0.41040680156E+03  0.41040680156E+03  0.00000000000E+00 0.  1.
         23    2    1    2    0    0  0.16248480860E+03 -0.16680323486E+02  0.81791608604E+03  0.83908861508E+03  0.91670245629E+02 0.  0.
        254    2    1    2    0    0 -0.16248480860E+03  0.16680323486E+02  0.12197976539E+03  0.92162083947E+03  0.89879161231E+03 0.  0.
        -24    2    4    4    0    0  0.16889568194E+03  0.35390544023E+03 -0.71028718618E+02  0.40574820141E+03  0.76234585852E+02 0.  0.
         24    2    4    4    0    0 -0.33138049054E+03 -0.33722511674E+03  0.19300848401E+03  0.51587263805E+03  0.73065004728E+02 0.  0.
         11    1    3    3    0    0  0.73840121843E+02  0.17713724350E+02  0.54099902471E+03  0.54630219143E+03  0.00000000000E+00 0. -1.
        -11    1    3    3    0    0  0.88644686760E+02 -0.34394047836E+02  0.27691706132E+03  0.29278642364E+03  0.00000000000E+00 0.  1.
          4    1    6    6  502    0 -0.67052762427E+02 -0.49824077687E+02  0.61919335645E+02  0.10398324766E+03  0.00000000000E+00 0. -1.
          1    1    5    5  503    0  0.11391928804E+03  0.18635165186E+03 -0.70152958779E+02  0.22940353085E+03  0.00000000000E+00 0. -1.
         -2    1    5    5    0  503  0.54976393902E+02  0.16755378837E+03 -0.87575983911E+00  0.17634467057E+03  0.00000000000E+00 0.  1.
         -3    1    6    6    0  502 -0.26432772812E+03 -0.28740103906E+03  0.13108914837E+03  0.41188939040E+03  0.00000000000E+00 0.  1.
<mgrwt>
<rscale>  0 0.14888565E+04</rscale>
<asrwt>0</asrwt>
<pdfrwt beam="1">  1        2 0.20773887E+00 0.14888565E+04</pdfrwt>
<pdfrwt beam="2">  1       -2 0.63139509E-01 0.14888565E+04</pdfrwt>
<totfact> 0.34724597E+01</totfact>
</mgrwt>
</event>
<event>
12    1  0.1397649E-007  0.1899010E+04  0.7818608E-02  0.8655349E-01
         -2   -1    0    0    0  501 -0.00000000000E+00  0.00000000000E+00  0.19436111941E+04  0.19436111941E+04  0.00000000000E+00 0.  1.
          2   -1    0    0  501    0  0.00000000000E+00 -0.00000000000E+00 -0.46385829884E+03  0.46385829884E+03  0.00000000000E+00 0. -1.
         23    2    1    2    0    0 -0.36667509030E+03  0.30650482257E+03 -0.14973638436E+03  0.50458258544E+03  0.61536758313E+02 0.  0.
        254    2    1    2    0    0  0.36667509030E+03 -0.30650482257E+03  0.16294892796E+04  0.19028869075E+04  0.85868937472E+03 0.  0.
        -24    2    4    4    0    0  0.14358975309E+03 -0.33384467518E+03  0.14762129539E+03  0.40207725753E+03  0.88339061764E+02 0.  0.
         24    2    4    4    0    0  0.22308533721E+03  0.27339852612E+02  0.14818679842E+04  0.15008096500E+04  0.77345637022E+02 0.  0.
         11    1    3    3    0    0  0.10358896394E+01  0.78745074661E+01 -0.44470651465E+01  0.91025998262E+01  0.00000000000E+00 0.  1.
        -11    1    3    3    0    0 -0.36771097994E+03  0.29863031510E+03 -0.14528931921E+03  0.49547998561E+03  0.00000000000E+00 0. -1.
          4    1    6    6  502    0  0.15322773768E+03  0.26314716605E+02  0.77115723293E+03  0.78667317344E+03  0.00000000000E+00 0. -1.
          3    1    5    5  503    0  0.43344195196E+02 -0.15156835741E+03  0.10589792402E+03  0.18991065409E+03  0.00000000000E+00 0. -1.
         -4    1    5    5    0  503  0.10024555789E+03 -0.18227631776E+03  0.41723371367E+02  0.21216660343E+03  0.00000000000E+00 0.  1.
         -3    1    6    6    0  502  0.69857599532E+02  0.10251360066E+01  0.71071075128E+03  0.71413647652E+03  0.00000000000E+00 0.  1.
<mgrwt>
<rscale>  0 0.18990105E+04</rscale>
<asrwt>0</asrwt>
<pdfrwt beam="1">  1        2 0.71362816E-01 0.18990105E+04</pdfrwt>
<pdfrwt beam="2">  1       -2 0.29901710E+00 0.18990105E+04</pdfrwt>
<totfact> 0.20301019E+00</totfact>
</mgrwt>
</event>
<event>
12    1  0.1397649E-007  0.2128822E+04  0.7818608E-02  0.8548652E-01
         -2   -1    0    0    0  501 -0.00000000000E+00  0.00000000000E+00  0.35265437696E+03  0.35265437696E+03  0.00000000000E+00 0. -1.
          2   -1    0    0  501    0  0.00000000000E+00 -0.00000000000E+00 -0.32126932510E+04  0.32126932510E+04  0.00000000000E+00 0.  1.
         23    2    1    2    0    0 -0.32275905342E+03 -0.80046732126E+03 -0.13219838902E+04  0.15814228639E+04  0.91299121194E+02 0.  0.
        254    2    1    2    0    0  0.32275905342E+03  0.80046732126E+03 -0.15380549838E+04  0.19839247641E+04  0.90852792867E+03 0.  0.
        -24    2    4    4    0    0  0.31167433957E+03 -0.10685121650E+03 -0.48761474317E+03  0.59362519659E+03  0.77875925973E+02 0.  0.
         24    2    4    4    0    0  0.11084713852E+02  0.90731853776E+03 -0.10504402407E+04  0.13902995675E+04  0.78475399196E+02 0.  0.
         11    1    3    3    0    0 -0.97555196435E+02 -0.16293048989E+03 -0.33428483303E+03  0.38446028466E+03  0.00000000000E+00 0. -1.
        -11    1    3    3    0    0 -0.22520385699E+03 -0.63753683137E+03 -0.98769905721E+03  0.11969625793E+04  0.00000000000E+00 0.  1.
          2    1    6    6  502    0 -0.27510647006E+02  0.27654254459E+03 -0.29262708498E+03  0.40356316176E+03  0.00000000000E+00 0. -1.
          3    1    5    5  503    0  0.73587623244E+02 -0.49727302360E+02 -0.17773515720E+03  0.19869003246E+03  0.00000000000E+00 0. -1.
         -4    1    5    5    0  503  0.23808671633E+03 -0.57123914137E+02 -0.30987958597E+03  0.39493516412E+03  0.00000000000E+00 0.  1.
         -1    1    6    6    0  502  0.38595360859E+02  0.63077599318E+03 -0.75781315567E+03  0.98673640571E+03  0.00000000000E+00 0.  1.
<mgrwt>
<rscale>  0 0.21288216E+04</rscale>
<asrwt>0</asrwt>
<pdfrwt beam="1">  1        2 0.49426053E+00 0.21288216E+04</pdfrwt>
<pdfrwt beam="2">  1       -2 0.54254517E-01 0.21288216E+04</pdfrwt>
<totfact> 0.37506921E+00</totfact>
</mgrwt>
</event>
<event>
12    1  0.1397649E-007  0.1195553E+04  0.7818608E-02  0.9116758E-01
         -1   -1    0    0    0  501 -0.00000000000E+00  0.00000000000E+00  0.12948173025E+03  0.12948173025E+03  0.00000000000E+00 0.  1.
          1   -1    0    0  501    0  0.00000000000E+00 -0.00000000000E+00 -0.27597460807E+04  0.27597460807E+04  0.00000000000E+00 0. -1.
         23    2    1    2    0    0 -0.38080311503E+01 -0.16340945908E+03 -0.97165346682E+03  0.98946284292E+03  0.90604114229E+02 0.  0.
        254    2    1    2    0    0  0.38080311503E+01  0.16340945908E+03 -0.16586108836E+04  0.18997649680E+04  0.91181122938E+03 0.  0.
        -24    2    4    4    0    0 -0.22042509387E+03 -0.29618371733E+03 -0.46979167668E+03  0.60306391423E+03  0.81669141953E+02 0.  0.
         24    2    4    4    0    0  0.22423312502E+03  0.45959317641E+03 -0.11888192069E+04  0.12967010538E+04  0.81462469645E+02 0.  0.
         13    1    3    3    0    0  0.26181482203E+02 -0.81017572680E+02 -0.29146527526E+03  0.30364670882E+03  0.00000000000E+00 0.  1.
        -13    1    3    3    0    0 -0.29989513353E+02 -0.82391886398E+02 -0.68018819156E+03  0.68581613410E+03  0.00000000000E+00 0. -1.
          4    1    6    6  502    0  0.98953227260E+02  0.18406657722E+03 -0.38996729419E+03  0.44243274808E+03  0.00000000000E+00 0. -1.
          1    1    5    5  503    0 -0.95897218103E+02 -0.10611793556E+03 -0.24335523518E+03  0.28227480082E+03  0.00000000000E+00 0. -1.
         -2    1    5    5    0  503 -0.12452787576E+03 -0.19006578177E+03 -0.22643644150E+03  0.32078911340E+03  0.00000000000E+00 0.  1.
         -3    1    6    6    0  502  0.12527989776E+03  0.27552659919E+03 -0.79885191274E+03  0.85426830571E+03  0.00000000000E+00 0.  1.
<mgrwt>
<rscale>  0 0.11955529E+04</rscale>
<asrwt>0</asrwt>
<pdfrwt beam="1">  1        1 0.42457627E+00 0.11955529E+04</pdfrwt>
<pdfrwt beam="2">  1       -1 0.19920269E-01 0.11955529E+04</pdfrwt>
<totfact> 0.18326744E+01</totfact>
</mgrwt>
</event>
<event>
12    1  0.1397649E-007  0.1502685E+04  0.7818608E-02  0.8882669E-01
         -2   -1    0    0    0  501 -0.00000000000E+00  0.00000000000E+00  0.56118153438E+03  0.56118153438E+03  0.00000000000E+00 0.  1.
          2   -1    0    0  501    0  0.00000000000E+00 -0.00000000000E+00 -0.10059409052E+04  0.10059409052E+04  0.00000000000E+00 0. -1.
         23    2    1    2    0    0  0.19862449215E+03  0.23811795118E+03 -0.51782682936E+03  0.61104203855E+03  0.95267518701E+02 0.  0.
        254    2    1    2    0    0 -0.19862449215E+03 -0.23811795118E+03  0.73067458569E+02  0.95608040100E+03  0.90144275032E+03 0.  0.
        -24    2    4    4    0    0  0.22393847120E+03  0.18071409188E+03  0.17665882252E+03  0.34683441819E+03  0.79244887404E+02 0.  0.
         24    2    4    4    0    0 -0.42256296335E+03 -0.41883204306E+03 -0.10359136395E+03  0.60924598281E+03  0.80434809605E+02 0.  0.
         13    1    3    3    0    0  0.14665878512E+03  0.22459574789E+03 -0.40072779630E+03  0.48221863916E+03  0.00000000000E+00 0. -1.
        -13    1    3    3    0    0  0.51965707029E+02  0.13522203293E+02 -0.11709903306E+03  0.12882339940E+03  0.00000000000E+00 0.  1.
          2    1    6    6  502    0 -0.41620280638E+03 -0.38993417170E+03 -0.93244661967E+02  0.57789964638E+03  0.00000000000E+00 0. -1.
          1    1    5    5  503    0  0.90232060792E+02  0.12218698977E+03  0.10129328565E+03  0.18257002761E+03  0.00000000000E+00 0. -1.
         -2    1    5    5    0  503  0.13370641040E+03  0.58527102117E+02  0.75365536869E+02  0.16426439058E+03  0.00000000000E+00 0.  1.
         -1    1    6    6    0  502 -0.63601569701E+01 -0.28897871359E+02 -0.10346701986E+02  0.31346336432E+02  0.00000000000E+00 0.  1.
<mgrwt>
<rscale>  0 0.15026849E+04</rscale>
<asrwt>0</asrwt>
<pdfrwt beam="1">  1        2 0.15476014E+00 0.15026849E+04</pdfrwt>
<pdfrwt beam="2">  1       -2 0.86335621E-01 0.15026849E+04</pdfrwt>
<totfact> 0.28051574E+01</totfact>
</mgrwt>
</event>
<event>
12    1  0.1397649E-007  0.1445414E+04  0.7818608E-02  0.8921586E-01
         -1   -1    0    0    0  501 -0.00000000000E+00  0.00000000000E+00  0.26951802241E+04  0.26951802241E+04  0.00000000000E+00 0.  1.
          1   -1    0    0  501    0  0.00000000000E+00 -0.00000000000E+00 -0.19379251900E+03  0.19379251900E+03  0.00000000000E+00 0. -1.
         23    2    1    2    0    0  0.96777707543E+02  0.22001680186E+03  0.81754041633E+02  0.27005162354E+03  0.92037157038E+02 0.  0.
        254    2    1    2    0    0 -0.96777707543E+02 -0.22001680186E+03  0.24196336635E+04  0.26189211195E+04  0.97280390998E+03 0.  0.
        -24    2    4    4    0    0  0.32860435357E+03 -0.19770400196E+03  0.19091534276E+04  0.19488767538E+04  0.78651749617E+02 0.  0.
         24    2    4    4    0    0 -0.42538206111E+03 -0.22312799897E+02  0.51048023586E+03  0.67004436577E+03  0.83196285649E+02 0.  0.
         13    1    3    3    0    0  0.88075218854E+02  0.12520599997E+03  0.84398985822E+02  0.17480553599E+03  0.00000000000E+00 0.  1.
        -13    1    3    3    0    0  0.87024886887E+01  0.94810801885E+02 -0.26449441886E+01  0.95246087548E+02  0.00000000000E+00 0. -1.
          2    1    6    6  502    0 -0.12536775497E+03 -0.43182683461E+02  0.13923373019E+03  0.19227025188E+03  0.00000000000E+00 0. -1.
          3    1    5    5  503    0  0.94027215355E+02 -0.96607836744E+02  0.58794273646E+03  0.60320050788E+03  0.00000000000E+00 0. -1.
         -4    1    5    5    0  503  0.23457713821E+03 -0.10109616522E+03  0.13212106911E+04  0.13456762459E+04  0.00000000000E+00 0.  1.
         -1    1    6    6    0  502 -0.30001430614E+03  0.20869883564E+02  0.37124650568E+03  0.47777411389E+03  0.00000000000E+00 0.  1.
<mgrwt>
<rscale>  0 0.14454145E+04</rscale>
<asrwt>0</asrwt>
<pdfrwt beam="1">  1        1 0.29814236E-01 0.14454145E+04</pdfrwt>
<pdfrwt beam="2">  1       -1 0.41464308E+00 0.14454145E+04</pdfrwt>
<totfact> 0.86210194E-01</totfact>
</mgrwt>
</event>
<event>
12    1  0.1397649E-007  0.1736347E+04  0.7818608E-02  0.8740902E-01
          2   -1    0    0  501    0  0.00000000000E+00  0.00000000000E+00  0.14367673885E+04  0.14367673885E+04  0.00000000000E+00 0.  1.
         -2   -1    0    0    0  501 -0.00000000000E+00 -0.00000000000E+00 -0.52459771149E+03  0.52459771149E+03  0.00000000000E+00 0. -1.
         23    2    1    2    0    0  0.16344392607E+03  0.25881596752E+03 -0.28926974532E+03  0.43085384178E+03  0.90875879140E+02 0.  0.
        254    2    1    2    0    0 -0.16344392607E+03 -0.25881596752E+03  0.12014394223E+04  0.15305112582E+04  0.89738977256E+03 0.  0.
        -24    2    4    4    0    0 -0.87860433217E+02 -0.23797996726E+02 -0.12768741448E+03  0.17578641424E+03  0.79441722309E+02 0.  0.
         24    2    4    4    0    0 -0.75583492849E+02 -0.23501797079E+03  0.13291268368E+04  0.13547248439E+04  0.88062157138E+02 0.  0.
         13    1    3    3    0    0  0.60091155241E+02  0.45130921782E+02 -0.11078318726E+03  0.13386807543E+03  0.00000000000E+00 0.  1.
        -13    1    3    3    0    0  0.10335277082E+03  0.21368504573E+03 -0.17848655806E+03  0.29698576635E+03  0.00000000000E+00 0. -1.
          4    1    6    6  502    0 -0.38119795568E+02 -0.18312343210E+03  0.11352487945E+04  0.11505551424E+04  0.00000000000E+00 0. -1.
          3    1    5    5  503    0 -0.10081764644E+03 -0.18488477383E+02 -0.12478707418E+03  0.16148633228E+03  0.00000000000E+00 0. -1.
         -4    1    5    5    0  503  0.12957213228E+02 -0.53095193435E+01 -0.29003402939E+01  0.14300081962E+02  0.00000000000E+00 0.  1.
         -3    1    6    6    0  502 -0.37463697282E+02 -0.51894538686E+02  0.19387804228E+03  0.20416970157E+03  0.00000000000E+00 0.  1.
<mgrwt>
<rscale>  0 0.17363466E+04</rscale>
<asrwt>0</asrwt>
<pdfrwt beam="1">  1        2 0.22104113E+00 0.17363466E+04</pdfrwt>
<pdfrwt beam="2">  1       -2 0.80707341E-01 0.17363466E+04</pdfrwt>
<totfact> 0.17728229E+01</totfact>
</mgrwt>
</event>
<event>
12    1  0.1397649E-007  0.1189639E+04  0.7818608E-02  0.9121974E-01
         -2   -1    0    0    0  501 -0.00000000000E+00  0.00000000000E+00  0.61572407774E+03  0.61572407774E+03  0.00000000000E+00 0.  1.
          2   -1    0    0  501    0  0.00000000000E+00 -0.00000000000E+00 -0.57462432300E+03  0.57462432300E+03  0.00000000000E+00 0. -1.
         23    2    1    2    0    0  0.17293829684E+03  0.16414103814E+03 -0.44966616195E+02  0.25880762625E+03  0.90052517565E+02 0.  0.
        254    2    1    2    0    0 -0.17293829684E+03 -0.16414103814E+03  0.86066370932E+02  0.93154077449E+03  0.89638767251E+03 0.  0.
        -24    2    4    4    0    0  0.79238529637E+02  0.32254162360E+03  0.15034311510E+03  0.37341780669E+03  0.80783429988E+02 0.  0.
         24    2    4    4    0    0 -0.25217682647E+03 -0.48668266173E+03 -0.64276744171E+02  0.55812296780E+03  0.83165992492E+02 0.  0.
         11    1    3    3    0    0  0.13728351706E+03  0.10802040055E+03 -0.69406307278E+02  0.18796916365E+03  0.00000000000E+00 0.  1.
        -11    1    3    3    0    0  0.35654779775E+02  0.56120637585E+02  0.24439691083E+02  0.70838462603E+02  0.00000000000E+00 0. -1.
          2    1    6    6  502    0 -0.64604467379E+02 -0.74460460263E+02  0.10358066325E+02  0.99123089570E+02  0.00000000000E+00 0. -1.
          3    1    5    5  503    0 -0.93647069846E+01  0.29801092681E+01  0.15492660253E+01  0.99488196976E+01  0.00000000000E+00 0. -1.
         -4    1    5    5    0  503  0.88603236622E+02  0.31956151433E+03  0.14879384908E+03  0.36346898699E+03  0.00000000000E+00 0.  1.
         -3    1    6    6    0  502 -0.18757235909E+03 -0.41222220147E+03 -0.74634810496E+02  0.45899987823E+03  0.00000000000E+00 0.  1.
<mgrwt>
<rscale>  0 0.11896387E+04</rscale>
<asrwt>0</asrwt>
<pdfrwt beam="1">  1        2 0.88403743E-01 0.11896387E+04</pdfrwt>
<pdfrwt beam="2">  1       -2 0.94726780E-01 0.11896387E+04</pdfrwt>
<totfact> 0.48424762E+01</totfact>
</mgrwt>
</event>
<event>
12    1  0.1397649E-007  0.1933139E+04  0.7818608E-02  0.8638534E-01
         -2   -1    0    0    0  501 -0.00000000000E+00  0.00000000000E+00  0.45438997016E+03  0.45438997016E+03  0.00000000000E+00 0.  1.
          2   -1    0    0  501    0  0.00000000000E+00 -0.00000000000E+00 -0.20560684058E+04  0.20560684058E+04  0.00000000000E+00 0. -1.
         23    2    1    2    0    0 -0.66074064913E+03  0.96987608692E+02 -0.10524115591E+04  0.12498857158E+04  0.93055957317E+02 0.  0.
        254    2    1    2    0    0  0.66074064913E+03 -0.96987608692E+02 -0.54926687659E+03  0.12605726602E+04  0.91725924813E+03 0.  0.
        -24    2    4    4    0    0  0.76172046555E+01 -0.77510357678E+02 -0.59033904011E+03  0.60079573158E+03  0.79934044407E+02 0.  0.
         24    2    4    4    0    0  0.65312344447E+03 -0.19477251014E+02  0.41072163515E+02  0.65977692862E+03  0.81664410246E+02 0.  0.
         11    1    3    3    0    0 -0.41842075208E+03  0.82184504894E+02 -0.74215790610E+03  0.85593725015E+03  0.00000000000E+00 0. -1.
        -11    1    3    3    0    0 -0.24231989705E+03  0.14803103799E+02 -0.31025365300E+03  0.39394846565E+03  0.00000000000E+00 0.  1.
          4    1    6    6  502    0  0.31095978205E+03 -0.46954127488E+02  0.39418677845E+01  0.31450948231E+03  0.00000000000E+00 0. -1.
          1    1    5    5  503    0  0.10098791306E+02 -0.28982049744E+02 -0.47021960067E+03  0.47122013714E+03  0.00000000000E+00 0. -1.
         -2    1    5    5    0  503 -0.24815866502E+01 -0.48528307934E+02 -0.12011943943E+03  0.12957559444E+03  0.00000000000E+00 0.  1.
         -3    1    6    6    0  502  0.34216366242E+03  0.27476876474E+02  0.37130295730E+02  0.34526744632E+03  0.00000000000E+00 0.  1.
<mgrwt>
<rscale>  0 0.19331393E+04</rscale>
<asrwt>0</asrwt>
<pdfrwt beam="1">  1        2 0.31631822E+00 0.19331393E+04</pdfrwt>
<pdfrwt beam="2">  1       -2 0.69906148E-01 0.19331393E+04</pdfrwt>
<totfact> 0.10827080E+01</totfact>
</mgrwt>
</event>
<event>
12    1  0.1397649E-007  0.1730100E+04  0.7818608E-02  0.8744381E-01
          2   -1    0    0  501    0  0.00000000000E+00  0.00000000000E+00  0.65060552579E+03  0.65060552579E+03  0.00000000000E+00 0. -1.
         -2   -1    0    0    0  501 -0.00000000000E+00 -0.00000000000E+00 -0.11501767826E+04  0.11501767826E+04  0.00000000000E+00 0.  1.
         23    2    1    2    0    0  0.34723322731E+03 -0.41345106778E+00 -0.72787600689E+03  0.81161690538E+03  0.91364296039E+02 0.  0.
        254    2    1    2    0    0 -0.34723322731E+03  0.41345106778E+00  0.22830475006E+03  0.98916540304E+03  0.89763803985E+03 0.  0.
        -24    2    4    4    0    0 -0.61256586052E+03  0.92802404658E+01 -0.19147326848E+02  0.61778576642E+03  0.77263035944E+02 0.  0.
         24    2    4    4    0    0  0.26533263321E+03 -0.88667893981E+01  0.24745207691E+03  0.37137963662E+03  0.78805316635E+02 0.  0.
         13    1    3    3    0    0  0.13997010161E+03 -0.22157772188E+02 -0.38644526465E+03  0.41160969228E+03  0.00000000000E+00 0.  1.
        -13    1    3    3    0    0  0.20726312570E+03  0.21744321120E+02 -0.34143074225E+03  0.40000721309E+03  0.00000000000E+00 0. -1.
          2    1    6    6  502    0  0.15261572748E+03 -0.22837395013E+02  0.18786686406E+03  0.24311944697E+03  0.00000000000E+00 0. -1.
          3    1    5    5  503    0 -0.30596456986E+02  0.38331893955E+01  0.15982698204E+02  0.34731587394E+02  0.00000000000E+00 0. -1.
         -4    1    5    5    0  503 -0.58196940354E+03  0.54470510704E+01 -0.35130025052E+02  0.58305417902E+03  0.00000000000E+00 0.  1.
         -1    1    6    6    0  502  0.11271690573E+03  0.13970605615E+02  0.59585212852E+02  0.12826018965E+03  0.00000000000E+00 0.  1.
<mgrwt>
<rscale>  0 0.17300998E+04</rscale>
<asrwt>0</asrwt>
<pdfrwt beam="1">  1        2 0.10009316E+00 0.17300998E+04</pdfrwt>
<pdfrwt beam="2">  1       -2 0.17695027E+00 0.17300998E+04</pdfrwt>
<totfact> 0.81106779E+00</totfact>
</mgrwt>
</event>
<event>
12    1  0.1397649E-007  0.1634969E+04  0.7818608E-02  0.8799348E-01
          2   -1    0    0  501    0  0.00000000000E+00  0.00000000000E+00  0.21075203522E+04  0.21075203522E+04  0.00000000000E+00 0.  1.
         -2   -1    0    0    0  501 -0.00000000000E+00 -0.00000000000E+00 -0.31709358115E+03  0.31709358115E+03  0.00000000000E+00 0. -1.
         23    2    1    2    0    0  0.32488807337E+03  0.47062339466E+03  0.53430038916E+03  0.78760872859E+03  0.88385313690E+02 0.  0.
        254    2    1    2    0    0 -0.32488807337E+03 -0.47062339466E+03  0.12561263819E+04  0.16370052048E+04  0.88028058783E+03 0.  0.
        -24    2    4    4    0    0  0.14337810875E+03 -0.52891743623E+03  0.52473594001E+03  0.76289149481E+03  0.79653560526E+02 0.  0.
         24    2    4    4    0    0 -0.46826618211E+03  0.58294041569E+02  0.73139044188E+03  0.87411370994E+03  0.80444930531E+02 0.  0.
         13    1    3    3    0    0  0.39932531432E+02  0.63515305866E+02  0.33703711675E+02  0.82248047554E+02  0.00000000000E+00 0. -1.
        -13    1    3    3    0    0  0.28495554193E+03  0.40710808879E+03  0.50059667749E+03  0.70536068104E+03  0.00000000000E+00 0.  1.
          2    1    6    6  502    0 -0.39943634645E+03  0.75057299633E+02  0.64529268831E+03  0.76261762809E+03  0.00000000000E+00 0. -1.
          1    1    5    5  503    0 -0.75491452573E+01 -0.75742996289E+02  0.72382102903E+02  0.10503884949E+03  0.00000000000E+00 0. -1.
         -2    1    5    5    0  503  0.15092725400E+03 -0.45317443994E+03  0.45235383710E+03  0.65785264532E+03  0.00000000000E+00 0.  1.
         -1    1    6    6    0  502 -0.68829835666E+02 -0.16763258064E+02  0.86097753569E+02  0.11149608185E+03  0.00000000000E+00 0.  1.
<mgrwt>
<rscale>  0 0.16349693E+04</rscale>
<asrwt>0</asrwt>
<pdfrwt beam="1">  1        2 0.32423389E+00 0.16349693E+04</pdfrwt>
<pdfrwt beam="2">  1       -2 0.48783629E-01 0.16349693E+04</pdfrwt>
<totfact> 0.22153953E+01</totfact>
</mgrwt>
</event>
<event>
12    1  0.1397649E-007  0.1851914E+04  0.7818608E-02  0.8679169E-01
         -2   -1    0    0    0  501 -0.00000000000E+00  0.00000000000E+00  0.26737673842E+03  0.26737673842E+03  0.00000000000E+00 0.  1.
          2   -1    0    0  501    0  0.00000000000E+00 -0.00000000000E+00 -0.32066978439E+04  0.32066978439E+04  0.00000000000E+00 0. -1.
         23    2    1    2    0    0  0.79015142943E+01 -0.45689634310E+03 -0.12547695333E+03  0.48226305381E+03  0.89534825562E+02 0.  0.
        254    2    1    2    0    0 -0.79015142943E+01  0.45689634310E+03 -0.28138441522E+04  0.29918115286E+04  0.90796509145E+03 0.  0.
        -24    2    4    4    0    0 -0.31139263533E+03 -0.13332125227E+03 -0.96652831039E+03  0.10273295422E+04  0.80554850206E+02 0.  0.
         24    2    4    4    0    0  0.30349112104E+03  0.59021759537E+03 -0.18473158418E+04  0.19644819863E+04  0.78421838869E+02 0.  0.
         13    1    3    3    0    0 -0.96623178031E+01 -0.17767447367E+03 -0.92525257168E+02  0.20055548407E+03  0.00000000000E+00 0. -1.
        -13    1    3    3    0    0  0.17563832097E+02 -0.27922186943E+03 -0.32951696163E+02  0.28170756973E+03  0.00000000000E+00 0.  1.
          2    1    6    6  502    0  0.15557901649E+03  0.37704883978E+03 -0.10775404338E+04  0.11521562587E+04  0.00000000000E+00 0. -1.
          1    1    5    5  503    0 -0.17945529650E+02 -0.31809388393E+02 -0.78511377410E+02  0.86590505294E+02  0.00000000000E+00 0. -1.
         -2    1    5    5    0  503 -0.29344710568E+03 -0.10151186388E+03 -0.88801693298E+03  0.94073903693E+03  0.00000000000E+00 0.  1.
         -1    1    6    6    0  502  0.14791210455E+03  0.21316875559E+03 -0.76977540800E+03  0.81232572765E+03  0.00000000000E+00 0.  1.
<mgrwt>
<rscale>  0 0.18519140E+04</rscale>
<asrwt>0</asrwt>
<pdfrwt beam="1">  1        2 0.49333814E+00 0.18519140E+04</pdfrwt>
<pdfrwt beam="2">  1       -2 0.41134882E-01 0.18519140E+04</pdfrwt>
<totfact> 0.67892642E+00</totfact>
</mgrwt>
</event>
<event>
12    1  0.1441265E-007  0.2351128E+04  0.7818608E-02  0.8458030E-01
         -2   -1    0    0    0  501 -0.00000000000E+00  0.00000000000E+00  0.95341507804E+03  0.95341507804E+03  0.00000000000E+00 0.  1.
          2   -1    0    0  501    0  0.00000000000E+00 -0.00000000000E+00 -0.14494747893E+04  0.14494747893E+04  0.00000000000E+00 0. -1.
         23    2    1    2    0    0  0.89772672353E+02  0.97271490581E+03 -0.38721765495E+03  0.10546797997E+04  0.90435318689E+02 0.  0.
        254    2    1    2    0    0 -0.89772672353E+02 -0.97271490581E+03 -0.10884205635E+03  0.13482100677E+04  0.92281654337E+03 0.  0.
        -24    2    4    4    0    0 -0.35242689719E+03 -0.13755162863E+03  0.17508742242E+03  0.42440486623E+03  0.79616057355E+02 0.  0.
         24    2    4    4    0    0  0.26265422484E+03 -0.83516327718E+03 -0.28392947877E+03  0.92380520146E+03  0.79467980706E+02 0.  0.
         11    1    3    3    0    0  0.38085323151E+02  0.41825430523E+03 -0.21484397562E+03  0.47174684900E+03  0.00000000000E+00 0.  1.
        -11    1    3    3    0    0  0.51687349201E+02  0.55446060058E+03 -0.17237367933E+03  0.58293295068E+03  0.00000000000E+00 0. -1.
          4    1    6    6  502    0  0.29324962109E+02 -0.14978783994E+03 -0.23735608847E+02  0.15446594940E+03  0.00000000000E+00 0. -1.
          3    1    5    5  503    0 -0.16462803122E+02 -0.68512205481E+01  0.31843125056E+02  0.36495858984E+02  0.00000000000E+00 0. -1.
         -4    1    5    5    0  503 -0.33596409407E+03 -0.13070040808E+03  0.14324429737E+03  0.38790900725E+03  0.00000000000E+00 0.  1.
         -3    1    6    6    0  502  0.23332926273E+03 -0.68537543724E+03 -0.26019386992E+03  0.76933925206E+03  0.00000000000E+00 0.  1.
<mgrwt>
<rscale>  0 0.23511283E+04</rscale>
<asrwt>0</asrwt>
<pdfrwt beam="1">  1        2 0.22299612E+00 0.23511283E+04</pdfrwt>
<pdfrwt beam="2">  1       -2 0.14667924E+00 0.23511283E+04</pdfrwt>
<totfact> 0.38923179E+00</totfact>
</mgrwt>
</event>
<event>
12    1  0.1397649E-007  0.1759841E+04  0.7818608E-02  0.8727952E-01
         -1   -1    0    0    0  501 -0.00000000000E+00  0.00000000000E+00  0.15634695950E+04  0.15634695950E+04  0.00000000000E+00 0. -1.
          1   -1    0    0  501    0  0.00000000000E+00 -0.00000000000E+00 -0.49521920182E+03  0.49521920182E+03  0.00000000000E+00 0.  1.
         23    2    1    2    0    0 -0.54980544660E+03 -0.10464054211E+03  0.10152986712E+02  0.56719157133E+03  0.91474167298E+02 0.  0.
        254    2    1    2    0    0  0.54980544660E+03  0.10464054211E+03  0.10580974065E+04  0.14914972255E+04  0.88980794552E+03 0.  0.
        -24    2    4    4    0    0 -0.15138268465E+03  0.23792919461E+03  0.50717843346E+03  0.58636749181E+03  0.84082419220E+02 0.  0.
         24    2    4    4    0    0  0.70118813126E+03 -0.13328865250E+03  0.55091897301E+03  0.90512973369E+03  0.79482448897E+02 0.  0.
         11    1    3    3    0    0 -0.19815835792E+03 -0.60447575439E+02  0.41871373689E+02  0.21136190793E+03  0.00000000000E+00 0. -1.
        -11    1    3    3    0    0 -0.35164708869E+03 -0.44192966671E+02 -0.31718386978E+02  0.35582966340E+03  0.00000000000E+00 0.  1.
          2    1    6    6  502    0  0.64528277604E+03 -0.10506271424E+03  0.48372661415E+03  0.81327699599E+03  0.00000000000E+00 0. -1.
          1    1    5    5  503    0 -0.12803901394E+03  0.20956410466E+03  0.48452521956E+03  0.54320879175E+03  0.00000000000E+00 0. -1.
         -2    1    5    5    0  503 -0.23343670711E+02  0.28365089952E+02  0.22653213905E+02  0.43158700055E+02  0.00000000000E+00 0.  1.
         -1    1    6    6    0  502  0.55905355222E+02 -0.28225938261E+02  0.67192358863E+02  0.91852737699E+02  0.00000000000E+00 0.  1.
<mgrwt>
<rscale>  0 0.17598411E+04</rscale>
<asrwt>0</asrwt>
<pdfrwt beam="1">  1        1 0.76187570E-01 0.17598411E+04</pdfrwt>
<pdfrwt beam="2">  1       -1 0.24053378E+00 0.17598411E+04</pdfrwt>
<totfact> 0.34201721E+00</totfact>
</mgrwt>
</event>
<event>
12    1  0.1397649E-007  0.1081117E+04  0.7818608E-02  0.9223794E-01
         -1   -1    0    0    0  501 -0.00000000000E+00  0.00000000000E+00  0.16835543351E+04  0.16835543351E+04  0.00000000000E+00 0.  1.
          1   -1    0    0  501    0  0.00000000000E+00 -0.00000000000E+00 -0.17356360227E+03  0.17356360227E+03  0.00000000000E+00 0. -1.
         23    2    1    2    0    0  0.87712650778E+02 -0.13071779746E+02  0.43991168113E+03  0.45779038634E+03  0.90473035206E+02 0.  0.
        254    2    1    2    0    0 -0.87712650778E+02  0.13071779746E+02  0.10700790517E+04  0.13993275510E+04  0.89732047655E+03 0.  0.
        -24    2    4    4    0    0  0.19069348300E+03 -0.36843925258E+03  0.49851988515E+03  0.65333417445E+03  0.78816117154E+02 0.  0.
         24    2    4    4    0    0 -0.27840613377E+03  0.38151103233E+03  0.57155916651E+03  0.74599337654E+03  0.82253230367E+02 0.  0.
         11    1    3    3    0    0  0.43918313201E+02 -0.52014385383E+02  0.23392312067E+03  0.24362746336E+03  0.00000000000E+00 0.  1.
        -11    1    3    3    0    0  0.43794337576E+02  0.38942605637E+02  0.20598856046E+03  0.21416292298E+03  0.00000000000E+00 0. -1.
          4    1    6    6  502    0 -0.50940492841E+02  0.63655967652E+02  0.15263672547E+03  0.17304619611E+03  0.00000000000E+00 0. -1.
          1    1    5    5  503    0  0.15146233169E+03 -0.24997959124E+03  0.29994223854E+03  0.41880303297E+03  0.00000000000E+00 0. -1.
         -2    1    5    5    0  503  0.39231151303E+02 -0.11845966134E+03  0.19857764660E+03  0.23453114149E+03  0.00000000000E+00 0.  1.
         -3    1    6    6    0  502 -0.22746564093E+03  0.31785506468E+03  0.41892244105E+03  0.57294718043E+03  0.00000000000E+00 0.  1.
<mgrwt>
<rscale>  0 0.10811175E+04</rscale>
<asrwt>0</asrwt>
<pdfrwt beam="1">  1        1 0.26702094E-01 0.10811175E+04</pdfrwt>
<pdfrwt beam="2">  1       -1 0.25900835E+00 0.10811175E+04</pdfrwt>
<totfact> 0.10939263E+01</totfact>
</mgrwt>
</event>
<event>
12    1  0.1397649E-007  0.2059459E+04  0.7818608E-02  0.8579315E-01
          2   -1    0    0  501    0  0.00000000000E+00  0.00000000000E+00  0.23911302356E+04  0.23911302356E+04  0.00000000000E+00 0. -1.
         -2   -1    0    0    0  501 -0.00000000000E+00 -0.00000000000E+00 -0.44344843411E+03  0.44344843411E+03  0.00000000000E+00 0.  1.
         23    2    1    2    0    0  0.14569126846E+03  0.24291564707E+03 -0.28365026597E+03  0.41094888844E+03  0.90485127101E+02 0.  0.
        254    2    1    2    0    0 -0.14569126846E+03 -0.24291564707E+03  0.22313320674E+04  0.24236297813E+04  0.90272064564E+03 0.  0.
        -24    2    4    4    0    0 -0.87931855390E+02 -0.56463452843E+03  0.16957748265E+04  0.17912676503E+04  0.80270611596E+02 0.  0.
         24    2    4    4    0    0 -0.57759413071E+02  0.32171888135E+03  0.53555724097E+03  0.63236213093E+03  0.78874063318E+02 0.  0.
         13    1    3    3    0    0  0.15081877916E+03  0.24337774029E+03 -0.26003190257E+03  0.38677592863E+03  0.00000000000E+00 0.  1.
        -13    1    3    3    0    0 -0.51275107008E+01 -0.46209321448E+00 -0.23618363403E+02  0.24172959809E+02  0.00000000000E+00 0. -1.
          4    1    6    6  502    0 -0.25524706425E+02  0.19251403903E+02  0.55430811779E+02  0.63989859234E+02  0.00000000000E+00 0. -1.
          1    1    5    5  503    0 -0.43941409584E+02 -0.87826521345E+02  0.28426650526E+03  0.30075204295E+03  0.00000000000E+00 0. -1.
         -4    1    5    5    0  503 -0.43990445806E+02 -0.47680800708E+03  0.14115083212E+04  0.14905156074E+04  0.00000000000E+00 0.  1.
         -3    1    6    6    0  502 -0.32234706646E+02  0.30246747745E+03  0.48012642919E+03  0.56837227170E+03  0.00000000000E+00 0.  1.
<mgrwt>
<rscale>  0 0.20594591E+04</rscale>
<asrwt>0</asrwt>
<pdfrwt beam="1">  1        2 0.36786618E+00 0.20594591E+04</pdfrwt>
<pdfrwt beam="2">  1       -2 0.68222837E-01 0.20594591E+04</pdfrwt>
<totfact> 0.73135348E+00</totfact>
</mgrwt>
</event>
<event>
12    1  0.1397649E-007  0.1169343E+04  0.7818608E-02  0.9140122E-01
          2   -1    0    0  501    0  0.00000000000E+00  0.00000000000E+00  0.78031390895E+03  0.78031390895E+03  0.00000000000E+00 0.  1.
         -2   -1    0    0    0  501 -0.00000000000E+00 -0.00000000000E+00 -0.43808117309E+03  0.43808117309E+03  0.00000000000E+00 0. -1.
         23    2    1    2    0    0  0.96106388606E+02 -0.13707824158E+03  0.28144307365E+03  0.33976316550E+03  0.90564466982E+02 0.  0.
        254    2    1    2    0    0 -0.96106388606E+02  0.13707824158E+03  0.60789662223E+02  0.87863191654E+03  0.86039048082E+03 0.  0.
        -24    2    4    4    0    0 -0.27232111415E+03 -0.15234260184E+03  0.31154618051E+03  0.44956536952E+03  0.87640979787E+02 0.  0.
         24    2    4    4    0    0  0.17621472554E+03  0.28942084343E+03 -0.25075651828E+03  0.42906654702E+03  0.80020098749E+02 0.  0.
         11    1    3    3    0    0  0.18008799198E+02 -0.74245206428E+02  0.18716364805E+03  0.20215562985E+03  0.00000000000E+00 0. -1.
        -11    1    3    3    0    0  0.78097589408E+02 -0.62833035154E+02  0.94279425594E+02  0.13760753565E+03  0.00000000000E+00 0.  1.
          4    1    6    6  502    0  0.59056152199E+02  0.73402734783E+02 -0.30395204067E+02  0.98992216949E+02  0.00000000000E+00 0. -1.
          1    1    5    5  503    0 -0.12099627539E+03 -0.53259406692E+02  0.75680479086E+02  0.15232924202E+03  0.00000000000E+00 0. -1.
         -2    1    5    5    0  503 -0.15132483876E+03 -0.99083195153E+02  0.23586570142E+03  0.29723612750E+03  0.00000000000E+00 0.  1.
         -3    1    6    6    0  502  0.11715857334E+03  0.21601810864E+03 -0.22036131422E+03  0.33007433007E+03  0.00000000000E+00 0.  1.
<mgrwt>
<rscale>  0 0.11693431E+04</rscale>
<asrwt>0</asrwt>
<pdfrwt beam="1">  1        2 0.12004829E+00 0.11693431E+04</pdfrwt>
<pdfrwt beam="2">  1       -2 0.67397104E-01 0.11693431E+04</pdfrwt>
<totfact> 0.71095958E+01</totfact>
</mgrwt>
</event>
<event>
12    1  0.1397649E-007  0.1508709E+04  0.7818608E-02  0.8878682E-01
          2   -1    0    0  501    0  0.00000000000E+00  0.00000000000E+00  0.73703388827E+03  0.73703388827E+03  0.00000000000E+00 0. -1.
         -2   -1    0    0    0  501 -0.00000000000E+00 -0.00000000000E+00 -0.77208227307E+03  0.77208227307E+03  0.00000000000E+00 0.  1.
         23    2    1    2    0    0 -0.16368482767E+03  0.45456434364E+03 -0.47497117660E+02  0.49379457856E+03  0.90308605942E+02 0.  0.
        254    2    1    2    0    0  0.16368482767E+03 -0.45456434364E+03  0.12448732866E+02  0.10153215828E+04  0.89291739831E+03 0.  0.
        -24    2    4    4    0    0  0.37033065755E+03 -0.33560671861E+03 -0.32041741423E+03  0.59839821371E+03  0.75076210140E+02 0.  0.
         24    2    4    4    0    0 -0.20664582988E+03 -0.11895762503E+03  0.33286614710E+03  0.41692336907E+03  0.78560856890E+02 0.  0.
         13    1    3    3    0    0 -0.70095297646E+02  0.17870775351E+03  0.25065686355E+02  0.19359261491E+03  0.00000000000E+00 0. -1.
        -13    1    3    3    0    0 -0.93589530019E+02  0.27585659013E+03 -0.72562804015E+02  0.30020196364E+03  0.00000000000E+00 0.  1.
          4    1    6    6  502    0 -0.56917483146E+02 -0.68563664775E+02  0.86042813270E+02  0.12387066533E+03  0.00000000000E+00 0. -1.
          3    1    5    5  503    0  0.30569814301E+02 -0.61099799110E+01 -0.29040089392E+02  0.42604837669E+02  0.00000000000E+00 0. -1.
         -4    1    5    5    0  503  0.33976084324E+03 -0.32949673870E+03 -0.29137732484E+03  0.55579337604E+03  0.00000000000E+00 0.  1.
         -3    1    6    6    0  502 -0.14972834673E+03 -0.50393960254E+02  0.24682333383E+03  0.29305270374E+03  0.00000000000E+00 0.  1.
<mgrwt>
<rscale>  0 0.15087091E+04</rscale>
<asrwt>0</asrwt>
<pdfrwt beam="1">  1        2 0.11338983E+00 0.15087091E+04</pdfrwt>
<pdfrwt beam="2">  1       -2 0.11878189E+00 0.15087091E+04</pdfrwt>
<totfact> 0.20169451E+01</totfact>
</mgrwt>
</event>
<event>
12    1  0.1397649E-007  0.4922252E+04  0.7818608E-02  0.7840614E-01
         -2   -1    0    0    0  501 -0.00000000000E+00  0.00000000000E+00  0.21168406813E+04  0.21168406813E+04  0.00000000000E+00 0. -1.
          2   -1    0    0  501    0  0.00000000000E+00 -0.00000000000E+00 -0.28614064370E+04  0.28614064370E+04  0.00000000000E+00 0.  1.
         23    2    1    2    0    0  0.40487606815E+03 -0.22231890976E+04 -0.11043744919E+04  0.25168921615E+04  0.92783295336E+02 0.  0.
        254    2    1    2    0    0 -0.40487606815E+03  0.22231890976E+04  0.35980873622E+03  0.24613549569E+04  0.90681392962E+03 0.  0.
        -24    2    4    4    0    0 -0.20409260337E+03  0.19934120790E+04  0.31019813288E+02  0.20056527657E+04  0.79594471914E+02 0.  0.
         24    2    4    4    0    0 -0.20078346478E+03  0.22977701853E+03  0.32878892294E+03  0.45570219122E+03  0.80317204006E+02 0.  0.
         11    1    3    3    0    0  0.16457117285E+03 -0.11007533023E+04 -0.51019971886E+03  0.12243550370E+04  0.00000000000E+00 0.  1.
        -11    1    3    3    0    0  0.24030489530E+03 -0.11224357952E+04 -0.59417477305E+03  0.12925371245E+04  0.00000000000E+00 0. -1.
          4    1    6    6  502    0 -0.13398431337E+03  0.10471278067E+03  0.14429310796E+03  0.22301807924E+03  0.00000000000E+00 0. -1.
          1    1    5    5  503    0 -0.19215016585E+03  0.19498559736E+04  0.21109682344E+02  0.19594146122E+04  0.00000000000E+00 0. -1.
         -4    1    5    5    0  503 -0.11942437527E+02  0.43556105473E+02  0.99101309435E+01  0.46238153438E+02  0.00000000000E+00 0.  1.
         -3    1    6    6    0  502 -0.66799151413E+02  0.12506423786E+03  0.18449581498E+03  0.23268411197E+03  0.00000000000E+00 0.  1.
<mgrwt>
<rscale>  0 0.49222521E+04</rscale>
<asrwt>0</asrwt>
<pdfrwt beam="1">  1        2 0.44021637E+00 0.49222521E+04</pdfrwt>
<pdfrwt beam="2">  1       -2 0.32566780E+00 0.49222521E+04</pdfrwt>
<totfact> 0.34316496E-02</totfact>
</mgrwt>
</event>
<event>
12    1  0.1397649E-007  0.1028271E+04  0.7818608E-02  0.9278070E-01
         -2   -1    0    0    0  501 -0.00000000000E+00  0.00000000000E+00  0.32306904486E+03  0.32306904486E+03  0.00000000000E+00 0.  1.
          2   -1    0    0  501    0  0.00000000000E+00 -0.00000000000E+00 -0.81820117511E+03  0.81820117511E+03  0.00000000000E+00 0. -1.
         23    2    1    2    0    0 -0.43977764468E+02 -0.13903406180E+01  0.22097749606E+02  0.10147821482E+03  0.88732974312E+02 0.  0.
        254    2    1    2    0    0  0.43977764468E+02  0.13903406180E+01 -0.51722987985E+03  0.10397920052E+04  0.90094655145E+03 0.  0.
        -24    2    4    4    0    0 -0.22532834846E+03 -0.88701350588E+02  0.16050600102E+03  0.30018456465E+03  0.75549998501E+02 0.  0.
         24    2    4    4    0    0  0.26930611293E+03  0.90091691206E+02 -0.67773588088E+03  0.73960744051E+03  0.83969914527E+02 0.  0.
         11    1    3    3    0    0  0.20183393691E+02  0.21176783667E+02 -0.19961331647E+01  0.29322518565E+02  0.00000000000E+00 0. -1.
        -11    1    3    3    0    0 -0.64161158159E+02 -0.22567124285E+02  0.24093882770E+02  0.72155696253E+02  0.00000000000E+00 0.  1.
          2    1    6    6  502    0  0.27134300813E+03  0.83193565828E+02 -0.62546454169E+03  0.68684357052E+03  0.00000000000E+00 0. -1.
          1    1    5    5  503    0 -0.18578211544E+03 -0.10195165583E+03  0.13619978727E+03  0.25191172382E+03  0.00000000000E+00 0. -1.
         -2    1    5    5    0  503 -0.39546233017E+02  0.13250305242E+02  0.24306213752E+02  0.48272840830E+02  0.00000000000E+00 0.  1.
         -1    1    6    6    0  502 -0.20368952003E+01  0.68981253779E+01 -0.52271339190E+02  0.52763869991E+02  0.00000000000E+00 0.  1.
<mgrwt>
<rscale>  0 0.10282713E+04</rscale>
<asrwt>0</asrwt>
<pdfrwt beam="1">  1        2 0.12587711E+00 0.10282713E+04</pdfrwt>
<pdfrwt beam="2">  1       -2 0.49702929E-01 0.10282713E+04</pdfrwt>
<totfact> 0.12762892E+02</totfact>
</mgrwt>
</event>
<event>
12    1  0.1397649E-007  0.1997829E+04  0.7818608E-02  0.8607636E-01
         -1   -1    0    0    0  501 -0.00000000000E+00  0.00000000000E+00  0.72989945952E+03  0.72989945952E+03  0.00000000000E+00 0.  1.
          1   -1    0    0  501    0  0.00000000000E+00 -0.00000000000E+00 -0.13670795554E+04  0.13670795554E+04  0.00000000000E+00 0. -1.
         23    2    1    2    0    0  0.11055129923E+01 -0.68347645104E+03  0.16260841902E+03  0.70828935414E+03  0.89950152672E+02 0.  0.
        254    2    1    2    0    0 -0.11055129923E+01  0.68347645104E+03 -0.79978851485E+03  0.13886896607E+04  0.90645243893E+03 0.  0.
        -24    2    4    4    0    0 -0.26416876223E+03  0.42553458292E+03 -0.32596203863E+01  0.50724425806E+03  0.80132989501E+02 0.  0.
         24    2    4    4    0    0  0.26306324924E+03  0.25794186812E+03 -0.79652889447E+03  0.88144540268E+03  0.82167133021E+02 0.  0.
         11    1    3    3    0    0  0.29181111357E+02 -0.27178510578E+03  0.30670986714E+02  0.27506252091E+03  0.00000000000E+00 0. -1.
        -11    1    3    3    0    0 -0.28075598365E+02 -0.41169134526E+03  0.13193743231E+03  0.43322683323E+03  0.00000000000E+00 0.  1.
          2    1    6    6  502    0  0.39890070287E+02  0.71594907816E+01 -0.11012698493E+03  0.11734747047E+03  0.00000000000E+00 0. -1.
          1    1    5    5  503    0 -0.10905805188E+03  0.14995436837E+03 -0.37466453322E+02  0.18916581720E+03  0.00000000000E+00 0. -1.
         -2    1    5    5    0  503 -0.15511071035E+03  0.27558021455E+03  0.34206832936E+02  0.31807844085E+03  0.00000000000E+00 0.  1.
         -1    1    6    6    0  502  0.22317317895E+03  0.25078237734E+03 -0.68640190954E+03  0.76409793221E+03  0.00000000000E+00 0.  1.
<mgrwt>
<rscale>  0 0.19978295E+04</rscale>
<asrwt>0</asrwt>
<pdfrwt beam="1">  1        1 0.21031993E+00 0.19978295E+04</pdfrwt>
<pdfrwt beam="2">  1       -1 0.11229222E+00 0.19978295E+04</pdfrwt>
<totfact> 0.54645745E+00</totfact>
</mgrwt>
</event>
<event>
12    1  0.1397649E-007  0.1139413E+04  0.7818608E-02  0.9167606E-01
         -1   -1    0    0    0  501 -0.00000000000E+00  0.00000000000E+00  0.27221162876E+03  0.27221162876E+03  0.00000000000E+00 0.  1.
          1   -1    0    0  501    0  0.00000000000E+00 -0.00000000000E+00 -0.11923286157E+04  0.11923286157E+04  0.00000000000E+00 0. -1.
         23    2    1    2    0    0  0.11447658965E+03  0.16571529503E+02 -0.37331918667E+03  0.40211088726E+03  0.94585650841E+02 0.  0.
        254    2    1    2    0    0 -0.11447658965E+03 -0.16571529503E+02 -0.54679780023E+03  0.10624293572E+04  0.90354236174E+03 0.  0.
        -24    2    4    4    0    0 -0.49239365974E+03 -0.11438023750E+03 -0.30548205314E+03  0.59662731821E+03  0.84323882494E+02 0.  0.
         24    2    4    4    0    0  0.37791707009E+03  0.97808707996E+02 -0.24131574709E+03  0.46580203895E+03  0.79689362356E+02 0.  0.
         11    1    3    3    0    0  0.11644257649E+03 -0.12543164092E+02 -0.26116429056E+03  0.28622192657E+03  0.00000000000E+00 0. -1.
        -11    1    3    3    0    0 -0.19659868398E+01  0.29114693594E+02 -0.11215489611E+03  0.11588896069E+03  0.00000000000E+00 0.  1.
          4    1    6    6  502    0  0.20848453096E+02 -0.60794160463E+01  0.13446468439E+01  0.21758340265E+02  0.00000000000E+00 0. -1.
          1    1    5    5  503    0 -0.15843523621E+03 -0.36196761321E+02 -0.53752172019E+02  0.17117600766E+03  0.00000000000E+00 0. -1.
         -2    1    5    5    0  503 -0.33395842353E+03 -0.78183476178E+02 -0.25172988113E+03  0.42545131055E+03  0.00000000000E+00 0.  1.
         -3    1    6    6    0  502  0.35706861699E+03  0.10388812404E+03 -0.24266039393E+03  0.44404369869E+03  0.00000000000E+00 0.  1.
<mgrwt>
<rscale>  0 0.11394134E+04</rscale>
<asrwt>0</asrwt>
<pdfrwt beam="1">  1        1 0.18343517E+00 0.11394134E+04</pdfrwt>
<pdfrwt beam="2">  1       -1 0.41878712E-01 0.11394134E+04</pdfrwt>
<totfact> 0.60187617E+01</totfact>
</mgrwt>
</event>
<event>
12    1  0.1397649E-007  0.1356446E+04  0.7818608E-02  0.8985963E-01
         -1   -1    0    0    0  501 -0.00000000000E+00  0.00000000000E+00  0.19327877022E+03  0.19327877022E+03  0.00000000000E+00 0.  1.
          1   -1    0    0  501    0  0.00000000000E+00 -0.00000000000E+00 -0.23799117971E+04  0.23799117971E+04  0.00000000000E+00 0. -1.
         23    2    1    2    0    0 -0.11375903312E+03 -0.31162792734E+03 -0.39741735143E+03  0.52562926078E+03  0.91063087265E+02 0.  0.
        254    2    1    2    0    0  0.11375903312E+03  0.31162792734E+03 -0.17892156754E+04  0.20475613065E+04  0.93870202301E+03 0.  0.
        -24    2    4    4    0    0 -0.58893360490E+02  0.31911404104E+03 -0.10122628021E+03  0.34890629852E+03  0.78655236573E+02 0.  0.
         24    2    4    4    0    0  0.17265239361E+03 -0.74861137019E+01 -0.16879893952E+04  0.16986550080E+04  0.79093279763E+02 0.  0.
         13    1    3    3    0    0 -0.52137665554E+02 -0.63439183180E+02 -0.57432944459E+02  0.10020683231E+03  0.00000000000E+00 0. -1.
        -13    1    3    3    0    0 -0.61621367564E+02 -0.24818874416E+03 -0.33998440697E+03  0.42542242848E+03  0.00000000000E+00 0.  1.
          2    1    6    6  502    0  0.16012409739E+03  0.44466275664E+01 -0.16368229780E+04  0.16446425023E+04  0.00000000000E+00 0. -1.
          3    1    5    5  503    0 -0.27756607444E+02  0.27893878745E+03 -0.68869313122E+02  0.28865248776E+03  0.00000000000E+00 0. -1.
         -4    1    5    5    0  503 -0.31136753047E+02  0.40175253590E+02 -0.32356967090E+02  0.60253810756E+02  0.00000000000E+00 0.  1.
         -1    1    6    6    0  502  0.12528296219E+02 -0.11932741268E+02 -0.51166417153E+02  0.54012505632E+02  0.00000000000E+00 0.  1.
<mgrwt>
<rscale>  0 0.13564460E+04</rscale>
<asrwt>0</asrwt>
<pdfrwt beam="1">  1        1 0.36614026E+00 0.13564460E+04</pdfrwt>
<pdfrwt beam="2">  1       -1 0.29735196E-01 0.13564460E+04</pdfrwt>
<totfact> 0.16682292E+01</totfact>
</mgrwt>
</event>
<event>
12    1  0.1397649E-007  0.1302324E+04  0.7818608E-02  0.9027724E-01
          1   -1    0    0  501    0  0.00000000000E+00  0.00000000000E+00  0.13091728666E+04  0.13091728666E+04  0.00000000000E+00 0. -1.
         -1   -1    0    0    0  501 -0.00000000000E+00 -0.00000000000E+00 -0.32387770207E+03  0.32387770207E+03  0.00000000000E+00 0.  1.
         23    2    1    2    0    0  0.16433078527E+03 -0.12840538048E+03 -0.70277684550E+02  0.23878948222E+03  0.92676400178E+02 0.  0.
        254    2    1    2    0    0 -0.16433078527E+03  0.12840538048E+03  0.10555728491E+04  0.13942610865E+04  0.88670028127E+03 0.  0.
        -24    2    4    4    0    0  0.24735096755E+03  0.34774252526E+03  0.44356570705E+03  0.62064165985E+03  0.79612614856E+02 0.  0.
         24    2    4    4    0    0 -0.41168175282E+03 -0.21933714478E+03  0.61200714207E+03  0.77361942665E+03  0.79646887294E+02 0.  0.
         11    1    3    3    0    0  0.33434759714E+02  0.95521251755E-01  0.14831875940E+02  0.36576998583E+02  0.00000000000E+00 0. -1.
        -11    1    3    3    0    0  0.13089602556E+03 -0.12850090173E+03 -0.85109560490E+02  0.20221248364E+03  0.00000000000E+00 0.  1.
          2    1    6    6  502    0 -0.93469666864E+02 -0.84278418904E+02  0.19314552141E+03  0.23053117567E+03  0.00000000000E+00 0. -1.
          1    1    5    5  503    0  0.17574232803E+02  0.72039893012E+02  0.60372264151E+02  0.95621180303E+02  0.00000000000E+00 0. -1.
         -2    1    5    5    0  503  0.22977673475E+03  0.27570263225E+03  0.38319344289E+03  0.52502047954E+03  0.00000000000E+00 0.  1.
         -1    1    6    6    0  502 -0.31821208596E+03 -0.13505872588E+03  0.41886162066E+03  0.54308825098E+03  0.00000000000E+00 0.  1.
<mgrwt>
<rscale>  0 0.13023239E+04</rscale>
<asrwt>0</asrwt>
<pdfrwt beam="1">  1        1 0.20141121E+00 0.13023239E+04</pdfrwt>
<pdfrwt beam="2">  1       -1 0.49827340E-01 0.13023239E+04</pdfrwt>
<totfact> 0.35357932E+01</totfact>
</mgrwt>
</event>
<event>
12    1  0.1397649E-007  0.2037118E+04  0.7818608E-02  0.8589461E-01
          1   -1    0    0  501    0  0.00000000000E+00  0.00000000000E+00  0.20671911776E+04  0.20671911776E+04  0.00000000000E+00 0.  1.
         -1   -1    0    0    0  501 -0.00000000000E+00 -0.00000000000E+00 -0.50187068068E+03  0.50187068068E+03  0.00000000000E+00 0. -1.
         23    2    1    2    0    0  0.81756082790E+02  0.58116426022E+03  0.13576305427E+04  0.14815908616E+04  0.86688155170E+02 0.  0.
        254    2    1    2    0    0 -0.81756082790E+02 -0.58116426022E+03  0.20768995425E+03  0.10874709967E+04  0.89164011639E+03 0.  0.
        -24    2    4    4    0    0 -0.19290471360E+03 -0.14054593806E+03 -0.30628783620E+03  0.39672433882E+03  0.81317729770E+02 0.  0.
         24    2    4    4    0    0  0.11114863081E+03 -0.44061832217E+03  0.51397779045E+03  0.69074665790E+03  0.80369474062E+02 0.  0.
         11    1    3    3    0    0 -0.14895818052E+02  0.91074855629E+02  0.25148451257E+03  0.26788238984E+03  0.00000000000E+00 0. -1.
        -11    1    3    3    0    0  0.96651900842E+02  0.49008940460E+03  0.11061460301E+04  0.12137084717E+04  0.00000000000E+00 0.  1.
          2    1    6    6  502    0 -0.11068313438E+02 -0.66516175403E+02  0.64387051213E+02  0.93234122061E+02  0.00000000000E+00 0. -1.
          3    1    5    5  503    0 -0.61739377525E+02 -0.87018433769E+02 -0.98316690632E+02  0.14508663002E+03  0.00000000000E+00 0. -1.
         -4    1    5    5    0  503 -0.13116533607E+03 -0.53527504286E+02 -0.20797114556E+03  0.25163770880E+03  0.00000000000E+00 0.  1.
         -1    1    6    6    0  502  0.12221694425E+03 -0.37410214677E+03  0.44959073923E+03  0.59751253583E+03  0.00000000000E+00 0.  1.
<mgrwt>
<rscale>  0 0.20371182E+04</rscale>
<asrwt>0</asrwt>
<pdfrwt beam="1">  1        1 0.31802941E+00 0.20371182E+04</pdfrwt>
<pdfrwt beam="2">  1       -1 0.77210875E-01 0.20371182E+04</pdfrwt>
<totfact> 0.41720845E+00</totfact>
</mgrwt>
</event>
<event>
12    1  0.1397649E-007  0.1560608E+04  0.7818608E-02  0.8845120E-01
         -2   -1    0    0    0  501 -0.00000000000E+00  0.00000000000E+00  0.20043234350E+04  0.20043234350E+04  0.00000000000E+00 0.  1.
          2   -1    0    0  501    0  0.00000000000E+00 -0.00000000000E+00 -0.30378067047E+03  0.30378067047E+03  0.00000000000E+00 0. -1.
         23    2    1    2    0    0 -0.15489796288E+03 -0.45812813834E+03  0.78223282083E+03  0.92410746340E+03  0.90618143204E+02 0.  0.
        254    2    1    2    0    0  0.15489796288E+03  0.45812813834E+03  0.91830994368E+03  0.13839966421E+04  0.91557565637E+03 0.  0.
        -24    2    4    4    0    0 -0.36720692473E+03  0.26980858199E+03  0.52173239161E+03  0.69733732997E+03  0.80231333220E+02 0.  0.
         24    2    4    4    0    0  0.52210488761E+03  0.18831955635E+03  0.39657755207E+03  0.68665931209E+03  0.78546082722E+02 0.  0.
         11    1    3    3    0    0  0.16653981216E+01 -0.39730096642E+02  0.32435040209E+02  0.51315552842E+02  0.00000000000E+00 0. -1.
        -11    1    3    3    0    0 -0.15656336100E+03 -0.41839804169E+03  0.74979778062E+03  0.87279191056E+03  0.00000000000E+00 0.  1.
          2    1    6    6  502    0  0.42292749205E+03  0.14760143843E+03  0.27988783323E+03  0.52819603117E+03  0.00000000000E+00 0. -1.
          1    1    5    5  503    0 -0.34125653722E+03  0.27030515522E+03  0.50356069136E+03  0.66565326636E+03  0.00000000000E+00 0. -1.
         -2    1    5    5    0  503 -0.25950387504E+02 -0.49657323334E+00  0.18171700251E+02  0.31684063606E+02  0.00000000000E+00 0.  1.
         -1    1    6    6    0  502  0.99177395560E+02  0.40718117921E+02  0.11668971884E+03  0.15846328092E+03  0.00000000000E+00 0.  1.
<mgrwt>
<rscale>  0 0.15606085E+04</rscale>
<asrwt>0</asrwt>
<pdfrwt beam="1">  1        2 0.46735489E-01 0.15606085E+04</pdfrwt>
<pdfrwt beam="2">  1       -2 0.30835744E+00 0.15606085E+04</pdfrwt>
<totfact> 0.29520641E+00</totfact>
</mgrwt>
</event>
<event>
12    1  0.1397649E-007  0.1484983E+04  0.7818608E-02  0.8894501E-01
         -2   -1    0    0    0  501 -0.00000000000E+00  0.00000000000E+00  0.45832218067E+03  0.45832218067E+03  0.00000000000E+00 0.  1.
          2   -1    0    0  501    0  0.00000000000E+00 -0.00000000000E+00 -0.12028522199E+04  0.12028522199E+04  0.00000000000E+00 0. -1.
         23    2    1    2    0    0  0.16212702622E+03  0.35169706744E+03  0.67805158076E+02  0.40354951509E+03  0.90987206751E+02 0.  0.
        254    2    1    2    0    0 -0.16212702622E+03 -0.35169706744E+03 -0.81233519733E+03  0.12576248855E+04  0.87849637446E+03 0.  0.
        -24    2    4    4    0    0  0.32108879786E+03 -0.12140539117E+03 -0.10664130961E+03  0.36828075623E+03  0.80131525490E+02 0.  0.
         24    2    4    4    0    0 -0.48321582408E+03 -0.23029167626E+03 -0.70569388772E+03  0.88934412927E+03  0.79983300245E+02 0.  0.
         13    1    3    3    0    0  0.58354444770E+02  0.21637313257E+03  0.13217813379E+02  0.22449339481E+03  0.00000000000E+00 0.  1.
        -13    1    3    3    0    0  0.10377258145E+03  0.13532393487E+03  0.54587344697E+02  0.17905612028E+03  0.00000000000E+00 0. -1.
          4    1    6    6  502    0 -0.46885841934E+03 -0.20410256857E+03 -0.66767920710E+03  0.84100035641E+03  0.00000000000E+00 0. -1.
          1    1    5    5  503    0  0.32122753679E+03 -0.12260635065E+03 -0.11291106828E+03  0.36189550557E+03  0.00000000000E+00 0. -1.
         -2    1    5    5    0  503 -0.13873893465E+00  0.12009594776E+01  0.62697586699E+01  0.63852506558E+01  0.00000000000E+00 0.  1.
         -1    1    6    6    0  502 -0.14357404740E+02 -0.26189107697E+02 -0.38014680616E+02  0.48343772869E+02  0.00000000000E+00 0.  1.
<mgrwt>
<rscale>  0 0.14849833E+04</rscale>
<asrwt>0</asrwt>
<pdfrwt beam="1">  1        2 0.18505419E+00 0.14849833E+04</pdfrwt>
<pdfrwt beam="2">  1       -2 0.70511106E-01 0.14849833E+04</pdfrwt>
<totfact> 0.33390851E+01</totfact>
</mgrwt>
</event>
<event>
12    1  0.1397649E-007  0.1761004E+04  0.7818608E-02  0.8727316E-01
          1   -1    0    0  501    0  0.00000000000E+00  0.00000000000E+00  0.31481291547E+03  0.31481291547E+03  0.00000000000E+00 0. -1.
         -1   -1    0    0    0  501 -0.00000000000E+00 -0.00000000000E+00 -0.24626806924E+04  0.24626806924E+04  0.00000000000E+00 0.  1.
         23    2    1    2    0    0 -0.10892831675E+03 -0.18784383385E+03 -0.17485689946E+04  0.17643117719E+04  0.90287404797E+02 0.  0.
        254    2    1    2    0    0  0.10892831675E+03  0.18784383385E+03 -0.39929878240E+03  0.10131818360E+04  0.90550937663E+03 0.  0.
        -24    2    4    4    0    0  0.35818840988E+03 -0.18719267216E+03 -0.37127141211E+03  0.55529426924E+03  0.84671308739E+02 0.  0.
         24    2    4    4    0    0 -0.24926009312E+03  0.37503650602E+03 -0.28027370292E+02  0.45788756680E+03  0.78054567320E+02 0.  0.
         11    1    3    3    0    0  0.84071629072E+01 -0.16749995405E+01 -0.20015791501E+03  0.20034140099E+03  0.00000000000E+00 0. -1.
        -11    1    3    3    0    0 -0.11733547966E+03 -0.18616883431E+03 -0.15484110796E+04  0.15639703709E+04  0.00000000000E+00 0.  1.
          2    1    6    6  502    0 -0.24939320127E+03  0.34214724109E+03 -0.19172838298E+02  0.42382697077E+03  0.00000000000E+00 0. -1.
          1    1    5    5  503    0  0.23100474699E+03 -0.90403394908E+02 -0.26706396458E+03  0.36449846107E+03  0.00000000000E+00 0. -1.
         -2    1    5    5    0  503  0.12718366288E+03 -0.96789277257E+02 -0.10420744752E+03  0.19079580817E+03  0.00000000000E+00 0.  1.
         -1    1    6    6    0  502  0.13310814836E+00  0.32889264927E+02 -0.88545319937E+01  0.34060596032E+02  0.00000000000E+00 0.  1.
<mgrwt>
<rscale>  0 0.17610039E+04</rscale>
<asrwt>0</asrwt>
<pdfrwt beam="1">  1        1 0.48432757E-01 0.17610039E+04</pdfrwt>
<pdfrwt beam="2">  1       -1 0.37887394E+00 0.17610039E+04</pdfrwt>
<totfact> 0.77856747E-01</totfact>
</mgrwt>
</event>
<event>
12    1  0.1397649E-007  0.2833056E+04  0.7818608E-02  0.8293079E-01
          2   -1    0    0  501    0  0.00000000000E+00  0.00000000000E+00  0.46422528656E+03  0.46422528656E+03  0.00000000000E+00 0. -1.
         -2   -1    0    0    0  501 -0.00000000000E+00 -0.00000000000E+00 -0.43223674038E+04  0.43223674038E+04  0.00000000000E+00 0.  1.
         23    2    1    2    0    0 -0.87403691907E+03 -0.35402260665E+02 -0.33063146578E+04  0.34212813501E+04  0.90860358163E+02 0.  0.
        254    2    1    2    0    0  0.87403691907E+03  0.35402260665E+02 -0.55182745951E+03  0.13653113403E+04  0.89127305290E+03 0.  0.
        -24    2    4    4    0    0 -0.16257845527E+03 -0.54275937489E+02 -0.17101865359E+03  0.25451670935E+03  0.78445802639E+02 0.  0.
         24    2    4    4    0    0  0.10366153743E+04  0.89678198154E+02 -0.38080880591E+03  0.11107946309E+04  0.78966776972E+02 0.  0.
         13    1    3    3    0    0 -0.30740309675E+02 -0.11125983942E+02 -0.78460638261E+02  0.84998975958E+02  0.00000000000E+00 0. -1.
        -13    1    3    3    0    0 -0.84329660939E+03 -0.24276276723E+02 -0.32278540195E+04  0.33362823742E+04  0.00000000000E+00 0.  1.
          4    1    6    6  502    0  0.85816179194E+03  0.10286466142E+03 -0.30655637414E+03  0.91706030894E+03  0.00000000000E+00 0. -1.
          3    1    5    5  503    0 -0.15898253541E+03 -0.48998121962E+02 -0.17894949447E+03  0.24433416481E+03  0.00000000000E+00 0. -1.
         -4    1    5    5    0  503 -0.35959198576E+01 -0.52778155266E+01  0.79308408733E+01  0.10182544540E+02  0.00000000000E+00 0.  1.
         -3    1    6    6    0  502  0.17845358240E+03 -0.13186463271E+02 -0.74252431770E+02  0.19373432197E+03  0.00000000000E+00 0.  1.
<mgrwt>
<rscale>  0 0.28330565E+04</rscale>
<asrwt>0</asrwt>
<pdfrwt beam="1">  1        2 0.71419273E-01 0.28330565E+04</pdfrwt>
<pdfrwt beam="2">  1       -2 0.66497962E+00 0.28330565E+04</pdfrwt>
<totfact> 0.17229459E-02</totfact>
</mgrwt>
</event>
<event>
12    1  0.1397649E-007  0.2913324E+04  0.7818608E-02  0.8268924E-01
          1   -1    0    0  501    0  0.00000000000E+00  0.00000000000E+00  0.22349084013E+04  0.22349084013E+04  0.00000000000E+00 0. -1.
         -1   -1    0    0    0  501 -0.00000000000E+00 -0.00000000000E+00 -0.94941876714E+03  0.94941876714E+03  0.00000000000E+00 0.  1.
         23    2    1    2    0    0 -0.69080852096E+03 -0.11070160900E+04  0.40374330723E+03  0.13687861159E+04  0.88688988636E+02 0.  0.
        254    2    1    2    0    0  0.69080852096E+03  0.11070160900E+04  0.88174632695E+03  0.18155410526E+04  0.90333365512E+03 0.  0.
        -24    2    4    4    0    0  0.28005488444E+03  0.59196612968E+03  0.94092057110E+03  0.11492224331E+04  0.80783925520E+02 0.  0.
         24    2    4    4    0    0  0.41075363652E+03  0.51504996030E+03 -0.59174244149E+02  0.66631861951E+03  0.80522667654E+02 0.  0.
         13    1    3    3    0    0 -0.51108490142E+03 -0.85381126095E+03  0.27283649912E+03  0.10318145187E+04  0.00000000000E+00 0. -1.
        -13    1    3    3    0    0 -0.17972361954E+03 -0.25320482903E+03  0.13090680811E+03  0.33697159713E+03  0.00000000000E+00 0.  1.
          4    1    6    6  502    0  0.51190842030E+02  0.28219405226E+02 -0.40008570735E+01  0.58590477011E+02  0.00000000000E+00 0. -1.
          1    1    5    5  503    0  0.19837341256E+03  0.32770270931E+03  0.53360209530E+03  0.65686549050E+03  0.00000000000E+00 0. -1.
         -2    1    5    5    0  503  0.81681471880E+02  0.26426342037E+03  0.40731847580E+03  0.49235694259E+03  0.00000000000E+00 0.  1.
         -3    1    6    6    0  502  0.35956279449E+03  0.48683055508E+03 -0.55173387075E+02  0.60772814249E+03  0.00000000000E+00 0.  1.
<mgrwt>
<rscale>  0 0.29133239E+04</rscale>
<asrwt>0</asrwt>
<pdfrwt beam="1">  1        1 0.34383206E+00 0.29133239E+04</pdfrwt>
<pdfrwt beam="2">  1       -1 0.14606443E+00 0.29133239E+04</pdfrwt>
<totfact> 0.66237581E-01</totfact>
</mgrwt>
</event>
<event>
12    1  0.1397649E-007  0.2517196E+04  0.7818608E-02  0.8396885E-01
          2   -1    0    0  501    0  0.00000000000E+00  0.00000000000E+00  0.30380091559E+04  0.30380091559E+04  0.00000000000E+00 0. -1.
         -2   -1    0    0    0  501 -0.00000000000E+00 -0.00000000000E+00 -0.52141670203E+03  0.52141670203E+03  0.00000000000E+00 0.  1.
         23    2    1    2    0    0  0.38920056523E+03  0.68699636847E+03  0.21703410987E+04  0.23111882251E+04  0.88144409916E+02 0.  0.
        254    2    1    2    0    0 -0.38920056523E+03 -0.68699636847E+03  0.34625135513E+03  0.12482376328E+04  0.90264394787E+03 0.  0.
        -24    2    4    4    0    0 -0.50245902116E+03 -0.24719193814E+02  0.56676665536E+02  0.51159701161E+03  0.73777716041E+02 0.  0.
         24    2    4    4    0    0  0.11325845593E+03 -0.66227717466E+03  0.28957468960E+03  0.73664062114E+03  0.85716800862E+02 0.  0.
         11    1    3    3    0    0  0.27258352976E+03  0.48519132635E+03  0.14072719408E+04  0.15133164636E+04  0.00000000000E+00 0.  1.
        -11    1    3    3    0    0  0.11661703547E+03  0.20180504212E+03  0.76306915795E+03  0.79787176150E+03  0.00000000000E+00 0. -1.
          4    1    6    6  502    0 -0.12129223860E+02 -0.11558090036E+03  0.42516540005E+02  0.12374861120E+03  0.00000000000E+00 0. -1.
          1    1    5    5  503    0 -0.28669828782E+03  0.18025803881E+02  0.14460107737E+02  0.28762811504E+03  0.00000000000E+00 0. -1.
         -2    1    5    5    0  503 -0.21576073334E+03 -0.42744997695E+02  0.42216557799E+02  0.22396889657E+03  0.00000000000E+00 0.  1.
         -3    1    6    6    0  502  0.12538767979E+03 -0.54669627430E+03  0.24705814959E+03  0.61289200995E+03  0.00000000000E+00 0.  1.
<mgrwt>
<rscale>  0 0.25171958E+04</rscale>
<asrwt>0</asrwt>
<pdfrwt beam="1">  1        2 0.46738602E+00 0.25171958E+04</pdfrwt>
<pdfrwt beam="2">  1       -2 0.80217955E-01 0.25171958E+04</pdfrwt>
<totfact> 0.20165685E+00</totfact>
</mgrwt>
</event>
<event>
12    1  0.1397649E-007  0.1600857E+04  0.7818608E-02  0.8820022E-01
         -2   -1    0    0    0  501 -0.00000000000E+00  0.00000000000E+00  0.72001780704E+03  0.72001780704E+03  0.00000000000E+00 0.  1.
          2   -1    0    0  501    0  0.00000000000E+00 -0.00000000000E+00 -0.88981902869E+03  0.88981902869E+03  0.00000000000E+00 0. -1.
         23    2    1    2    0    0 -0.45071100218E+02  0.38033414061E+02  0.48336939043E+03  0.49638272419E+03  0.96290688095E+02 0.  0.
        254    2    1    2    0    0  0.45071100218E+02 -0.38033414061E+02 -0.65317061208E+03  0.11134541115E+04  0.89981679544E+03 0.  0.
        -24    2    4    4    0    0 -0.16712483179E+02  0.22449467073E+03  0.13532898293E+03  0.27624973332E+03  0.85573461183E+02 0.  0.
         24    2    4    4    0    0  0.61783583397E+02 -0.26252808480E+03 -0.78849959501E+03  0.83720437821E+03  0.80258040665E+02 0.  0.
         13    1    3    3    0    0  0.18216785269E+02  0.38141743576E+02  0.11303657037E+03  0.12068102630E+03  0.00000000000E+00 0. -1.
        -13    1    3    3    0    0 -0.63287885486E+02 -0.10832951560E+00  0.37033282006E+03  0.37570169789E+03  0.00000000000E+00 0.  1.
          4    1    6    6  502    0  0.40694222515E+02 -0.23904479871E+03 -0.61917701834E+03  0.66496512358E+03  0.00000000000E+00 0. -1.
          1    1    5    5  503    0 -0.33357387215E+02  0.19396570903E+03  0.83400564756E+02  0.21375468594E+03  0.00000000000E+00 0. -1.
         -4    1    5    5    0  503  0.16644904036E+02  0.30528961704E+02  0.51928418172E+02  0.62495047379E+02  0.00000000000E+00 0.  1.
         -3    1    6    6    0  502  0.21089360882E+02 -0.23483286080E+02 -0.16932257666E+03  0.17223925463E+03  0.00000000000E+00 0.  1.
<mgrwt>
<rscale>  0 0.16008567E+04</rscale>
<asrwt>0</asrwt>
<pdfrwt beam="1">  1        2 0.13689523E+00 0.16008567E+04</pdfrwt>
<pdfrwt beam="2">  1       -2 0.11077197E+00 0.16008567E+04</pdfrwt>
<totfact> 0.18455358E+01</totfact>
</mgrwt>
</event>
<event>
12    1  0.1397649E-007  0.2287913E+04  0.7818608E-02  0.8482702E-01
         -2   -1    0    0    0  501 -0.00000000000E+00  0.00000000000E+00  0.30427721415E+03  0.30427721415E+03  0.00000000000E+00 0.  1.
          2   -1    0    0  501    0  0.00000000000E+00 -0.00000000000E+00 -0.43008016409E+04  0.43008016409E+04  0.00000000000E+00 0. -1.
         23    2    1    2    0    0  0.85701362613E+03 -0.29369841561E+03 -0.23753010901E+04  0.25437802473E+04  0.89618989202E+02 0.  0.
        254    2    1    2    0    0 -0.85701362613E+03  0.29369841561E+03 -0.16212233366E+04  0.20612986077E+04  0.89434653701E+03 0.  0.
        -24    2    4    4    0    0 -0.10220456309E+04  0.17048187778E+03 -0.14361847566E+04  0.17728603927E+04  0.82255544158E+02 0.  0.
         24    2    4    4    0    0  0.16503200477E+03  0.12321653784E+03 -0.18503858004E+03  0.28843821505E+03  0.80866865914E+02 0.  0.
         11    1    3    3    0    0  0.48128536573E+03 -0.19222918387E+03 -0.14562667659E+04  0.15457362504E+04  0.00000000000E+00 0. -1.
        -11    1    3    3    0    0  0.37572826039E+03 -0.10146923174E+03 -0.91903432418E+03  0.99804399686E+03  0.00000000000E+00 0.  1.
          4    1    6    6  502    0  0.91367584163E+02  0.42482957724E+02 -0.13442551585E+03  0.16799719177E+03  0.00000000000E+00 0. -1.
          1    1    5    5  503    0 -0.63774697116E+03  0.91224881001E+02 -0.82851645660E+03  0.10495154582E+04  0.00000000000E+00 0. -1.
         -2    1    5    5    0  503 -0.38429865974E+03  0.79256996774E+02 -0.60766829997E+03  0.72334493446E+03  0.00000000000E+00 0.  1.
         -3    1    6    6    0  502  0.73664420610E+02  0.80733580114E+02 -0.50613064199E+02  0.12044102328E+03  0.00000000000E+00 0.  1.
<mgrwt>
<rscale>  0 0.22879125E+04</rscale>
<asrwt>0</asrwt>
<pdfrwt beam="1">  1        2 0.66166178E+00 0.22879125E+04</pdfrwt>
<pdfrwt beam="2">  1       -2 0.46811880E-01 0.22879125E+04</pdfrwt>
<totfact> 0.74950221E-01</totfact>
</mgrwt>
</event>
<event>
12    1  0.1397649E-007  0.1261706E+04  0.7818608E-02  0.9060496E-01
          1   -1    0    0  501    0  0.00000000000E+00  0.00000000000E+00  0.11481899031E+04  0.11481899031E+04  0.00000000000E+00 0. -1.
         -1   -1    0    0    0  501 -0.00000000000E+00 -0.00000000000E+00 -0.34661136526E+03  0.34661136526E+03  0.00000000000E+00 0.  1.
         23    2    1    2    0    0 -0.29368859931E+03 -0.71769490086E+02  0.17189400689E+03  0.35958002100E+03  0.91358572830E+02 0.  0.
        254    2    1    2    0    0  0.29368859931E+03  0.71769490086E+02  0.62968453092E+03  0.11352212473E+04  0.89488592505E+03 0.  0.
        -24    2    4    4    0    0 -0.85736513760E+01 -0.21564339590E+03 -0.13076027968E+03  0.26438201005E+03  0.78892425496E+02 0.  0.
         24    2    4    4    0    0  0.30226225068E+03  0.28741288599E+03  0.76044481060E+03  0.87083923728E+03  0.78205063758E+02 0.  0.
         13    1    3    3    0    0 -0.27725380144E+03 -0.42306554827E+02  0.16413962896E+03  0.32496358687E+03  0.00000000000E+00 0.  1.
        -13    1    3    3    0    0 -0.16434797863E+02 -0.29462935259E+02  0.77543779249E+01  0.34616434130E+02  0.00000000000E+00 0. -1.
          2    1    6    6  502    0  0.27637001402E+03  0.23185958533E+03  0.67930979519E+03  0.76915606336E+03  0.00000000000E+00 0. -1.
          3    1    5    5  503    0  0.15580463746E+01 -0.16990206651E+03 -0.13545805932E+03  0.21729709052E+03  0.00000000000E+00 0. -1.
         -4    1    5    5    0  503 -0.10131697751E+02 -0.45741329392E+02  0.46977796351E+01  0.47084919532E+02  0.00000000000E+00 0.  1.
         -1    1    6    6    0  502  0.25892236666E+02  0.55553300657E+02  0.81135015411E+02  0.10168317392E+03  0.00000000000E+00 0.  1.
<mgrwt>
<rscale>  0 0.12617063E+04</rscale>
<asrwt>0</asrwt>
<pdfrwt beam="1">  1        1 0.17664460E+00 0.12617063E+04</pdfrwt>
<pdfrwt beam="2">  1       -1 0.53324826E-01 0.12617063E+04</pdfrwt>
<totfact> 0.40777250E+01</totfact>
</mgrwt>
</event>
<event>
12    1  0.1397649E-007  0.1519616E+04  0.7818608E-02  0.8871513E-01
          4   -1    0    0  501    0  0.00000000000E+00  0.00000000000E+00  0.77806936958E+03  0.77806936958E+03  0.00000000000E+00 0. -1.
         -4   -1    0    0    0  501 -0.00000000000E+00 -0.00000000000E+00 -0.74197484731E+03  0.74197484731E+03  0.00000000000E+00 0.  1.
         23    2    1    2    0    0  0.32849885106E+03  0.23726884190E+03  0.26077600255E+03  0.49005819511E+03  0.89134239242E+02 0.  0.
        254    2    1    2    0    0 -0.32849885106E+03 -0.23726884190E+03 -0.22468148028E+03  0.10299860218E+04  0.91988120918E+03 0.  0.
        -24    2    4    4    0    0  0.10733464756E+03 -0.29836010943E+03  0.22313932803E+03  0.39753192658E+03  0.87755293122E+02 0.  0.
         24    2    4    4    0    0 -0.43583349862E+03  0.61091267529E+02 -0.44782080831E+03  0.63245409521E+03  0.75971867827E+02 0.  0.
         11    1    3    3    0    0  0.80216587241E+02  0.91972684838E+02  0.43527734813E+02  0.12956982412E+03  0.00000000000E+00 0.  1.
        -11    1    3    3    0    0  0.24828226382E+03  0.14529615706E+03  0.21724826773E+03  0.36048837099E+03  0.00000000000E+00 0. -1.
          4    1    6    6  502    0 -0.31400950622E+03  0.45645464305E+02 -0.36838163289E+03  0.48620006773E+03  0.00000000000E+00 0. -1.
          3    1    5    5  503    0 -0.15360733960E+02 -0.43510868863E+02  0.30238855379E+02  0.55168253839E+02  0.00000000000E+00 0. -1.
         -4    1    5    5    0  503  0.12269538152E+03 -0.25484924056E+03  0.19290047265E+03  0.34236367274E+03  0.00000000000E+00 0.  1.
         -3    1    6    6    0  502 -0.12182399241E+03  0.15445803223E+02 -0.79439175411E+02  0.14625402748E+03  0.00000000000E+00 0.  1.
<mgrwt>
<rscale>  0 0.15196156E+04</rscale>
<asrwt>0</asrwt>
<pdfrwt beam="1">  1        4 0.11970298E+00 0.15196156E+04</pdfrwt>
<pdfrwt beam="2">  1       -4 0.11414998E+00 0.15196156E+04</pdfrwt>
<totfact> 0.61566889E-01</totfact>
</mgrwt>
</event>
<event>
12    1  0.1397649E-007  0.1733714E+04  0.7818608E-02  0.8742366E-01
          2   -1    0    0  501    0  0.00000000000E+00  0.00000000000E+00  0.29897908370E+04  0.29897908370E+04  0.00000000000E+00 0. -1.
         -2   -1    0    0    0  501 -0.00000000000E+00 -0.00000000000E+00 -0.25133552989E+03  0.25133552989E+03  0.00000000000E+00 0.  1.
         23    2    1    2    0    0  0.62456013624E+03  0.56438078477E+02  0.99792016075E+03  0.11821345352E+04  0.91306033028E+02 0.  0.
        254    2    1    2    0    0 -0.62456013624E+03 -0.56438078477E+02  0.17405351463E+04  0.20589918316E+04  0.90372791625E+03 0.  0.
        -24    2    4    4    0    0 -0.33441533583E+03  0.40568165385E+03  0.67694059542E+03  0.86093537921E+03  0.80931676991E+02 0.  0.
         24    2    4    4    0    0 -0.29014480041E+03 -0.46211973232E+03  0.10635945509E+04  0.11980564524E+04  0.79795001394E+02 0.  0.
         13    1    3    3    0    0  0.61450116566E+03  0.42625551216E+02  0.97877955973E+03  0.11564765656E+04  0.00000000000E+00 0. -1.
        -13    1    3    3    0    0  0.10058970572E+02  0.13812527261E+02  0.19140601011E+02  0.25657969627E+02  0.00000000000E+00 0.  1.
          4    1    6    6  502    0 -0.43825992220E+02 -0.71256424259E+02  0.23381253530E+03  0.24832739932E+03  0.00000000000E+00 0. -1.
          1    1    5    5  503    0 -0.74778674220E+02  0.52128839288E+02  0.14745369081E+03  0.17335471421E+03  0.00000000000E+00 0. -1.
         -2    1    5    5    0  503 -0.25963666161E+03  0.35355281456E+03  0.52948690461E+03  0.68758066501E+03  0.00000000000E+00 0.  1.
         -3    1    6    6    0  502 -0.24631880819E+03 -0.39086330806E+03  0.82978201561E+03  0.94972905309E+03  0.00000000000E+00 0.  1.
<mgrwt>
<rscale>  0 0.17337135E+04</rscale>
<asrwt>0</asrwt>
<pdfrwt beam="1">  1        2 0.45996780E+00 0.17337135E+04</pdfrwt>
<pdfrwt beam="2">  1       -2 0.38667007E-01 0.17337135E+04</pdfrwt>
<totfact> 0.10644136E+01</totfact>
</mgrwt>
</event>
<event>
12    1  0.1397649E-007  0.2442719E+04  0.7818608E-02  0.8423681E-01
          2   -1    0    0  501    0  0.00000000000E+00  0.00000000000E+00  0.26538579778E+04  0.26538579778E+04  0.00000000000E+00 0. -1.
         -2   -1    0    0    0  501 -0.00000000000E+00 -0.00000000000E+00 -0.56209431971E+03  0.56209431971E+03  0.00000000000E+00 0.  1.
         23    2    1    2    0    0 -0.92100986480E+03  0.44343302633E+03  0.56523106580E+03  0.11715261996E+04  0.89974767050E+02 0.  0.
        254    2    1    2    0    0  0.92100986480E+03 -0.44343302633E+03  0.15265325923E+04  0.20444260979E+04  0.89693048484E+03 0.  0.
        -24    2    4    4    0    0 -0.11497704224E+03 -0.26517319044E+03  0.26326657481E+03  0.39906320080E+03  0.80035040137E+02 0.  0.
         24    2    4    4    0    0  0.10359869070E+04 -0.17825983589E+03  0.12632660175E+04  0.16453628971E+04  0.79577582600E+02 0.  0.
         11    1    3    3    0    0 -0.78183622114E+03  0.34208799674E+03  0.48496237361E+03  0.98157046513E+03  0.00000000000E+00 0.  1.
        -11    1    3    3    0    0 -0.13917364366E+03  0.10134502959E+03  0.80268692193E+02  0.18995573447E+03  0.00000000000E+00 0. -1.
          2    1    6    6  502    0  0.17805658446E+03 -0.71871931691E+01  0.18530750119E+03  0.25708884265E+03  0.00000000000E+00 0. -1.
          1    1    5    5  503    0  0.82081978724E+01 -0.39297107924E+02  0.54760235882E+02  0.67899341951E+02  0.00000000000E+00 0. -1.
         -2    1    5    5    0  503 -0.12318524011E+03 -0.22587608252E+03  0.20850633893E+03  0.33116385885E+03  0.00000000000E+00 0.  1.
         -1    1    6    6    0  502  0.85793032258E+03 -0.17107264272E+03  0.10779585163E+04  0.13882740545E+04  0.00000000000E+00 0.  1.
<mgrwt>
<rscale>  0 0.24427186E+04</rscale>
<asrwt>0</asrwt>
<pdfrwt beam="1">  1        2 0.40828584E+00 0.24427186E+04</pdfrwt>
<pdfrwt beam="2">  1       -2 0.86476050E-01 0.24427186E+04</pdfrwt>
<totfact> 0.29360267E+00</totfact>
</mgrwt>
</event>
<event>
12    1  0.1397649E-007  0.1058755E+04  0.7818608E-02  0.9246352E-01
          2   -1    0    0  501    0  0.00000000000E+00  0.00000000000E+00  0.18785830849E+04  0.18785830849E+04  0.00000000000E+00 0. -1.
         -2   -1    0    0    0  501 -0.00000000000E+00 -0.00000000000E+00 -0.14917649914E+03  0.14917649914E+03  0.00000000000E+00 0.  1.
         23    2    1    2    0    0 -0.38179876348E+02  0.13107013252E+03  0.22098246096E+03  0.27501889547E+03  0.90360733825E+02 0.  0.
        254    2    1    2    0    0  0.38179876348E+02 -0.13107013252E+03  0.15084241248E+04  0.17527406886E+04  0.88211081983E+03 0.  0.
        -24    2    4    4    0    0  0.82913215391E+02  0.36772144362E+03  0.63349167129E+03  0.74142839969E+03  0.79439995475E+02 0.  0.
         24    2    4    4    0    0 -0.44733339043E+02 -0.49879157614E+03  0.87493245351E+03  0.10113122889E+04  0.80322097690E+02 0.  0.
         13    1    3    3    0    0  0.19738915698E+02  0.81499042310E+01  0.88902023336E+01  0.23131827197E+02  0.00000000000E+00 0.  1.
        -13    1    3    3    0    0 -0.57918792047E+02  0.12292022829E+03  0.21209225862E+03  0.25188706827E+03  0.00000000000E+00 0. -1.
          2    1    6    6  502    0 -0.54463951963E+02 -0.46148708006E+03  0.76799278546E+03  0.89763554165E+03  0.00000000000E+00 0. -1.
          3    1    5    5  503    0  0.58337257887E+02  0.29856683550E+03  0.56154601819E+03  0.63865430513E+03  0.00000000000E+00 0. -1.
         -4    1    5    5    0  503  0.24575957503E+02  0.69154608115E+02  0.71945653101E+02  0.10277409455E+03  0.00000000000E+00 0.  1.
         -1    1    6    6    0  502  0.97306129209E+01 -0.37304496076E+02  0.10693966806E+03  0.11367674723E+03  0.00000000000E+00 0.  1.
<mgrwt>
<rscale>  0 0.10587548E+04</rscale>
<asrwt>0</asrwt>
<pdfrwt beam="1">  1        2 0.28901276E+00 0.10587548E+04</pdfrwt>
<pdfrwt beam="2">  1       -2 0.22950232E-01 0.10587548E+04</pdfrwt>
<totfact> 0.13021472E+02</totfact>
</mgrwt>
</event>
<event>
12    1  0.1397649E-007  0.1231880E+04  0.7818608E-02  0.9085401E-01
          1   -1    0    0  501    0  0.00000000000E+00  0.00000000000E+00  0.47159317608E+03  0.47159317608E+03  0.00000000000E+00 0. -1.
         -1   -1    0    0    0  501 -0.00000000000E+00 -0.00000000000E+00 -0.80446933849E+03  0.80446933849E+03  0.00000000000E+00 0.  1.
         23    2    1    2    0    0 -0.17819023640E+03  0.22691407605E+03 -0.11676885190E+03  0.32467347827E+03  0.92391257485E+02 0.  0.
        254    2    1    2    0    0  0.17819023640E+03 -0.22691407605E+03 -0.21610731051E+03  0.95138903631E+03  0.88045270770E+03 0.  0.
        -24    2    4    4    0    0  0.16498834801E+03  0.21053314713E+03  0.19887121435E+03  0.34308301002E+03  0.81307015944E+02 0.  0.
         24    2    4    4    0    0  0.13201888385E+02 -0.43744722318E+03 -0.41497852487E+03  0.60830602630E+03  0.79339035797E+02 0.  0.
         11    1    3    3    0    0 -0.10853351785E+03  0.11990314917E+03 -0.16975354315E+02  0.16261750315E+03  0.00000000000E+00 0. -1.
        -11    1    3    3    0    0 -0.69656718551E+02  0.10701092687E+03 -0.99793497581E+02  0.16205597511E+03  0.00000000000E+00 0.  1.
          2    1    6    6  502    0 -0.39886294282E+01 -0.42906287965E+02 -0.13512166540E+02  0.45160130163E+02  0.00000000000E+00 0. -1.
          3    1    5    5  503    0  0.47648693977E+02  0.22421371065E+02  0.66643629621E+02  0.84938149775E+02  0.00000000000E+00 0. -1.
         -4    1    5    5    0  503  0.11733965404E+03  0.18811177607E+03  0.13222758473E+03  0.25814486024E+03  0.00000000000E+00 0.  1.
         -1    1    6    6    0  502  0.17190517813E+02 -0.39454093522E+03 -0.40146635833E+03  0.56314589613E+03  0.00000000000E+00 0.  1.
<mgrwt>
<rscale>  0 0.12318803E+04</rscale>
<asrwt>0</asrwt>
<pdfrwt beam="1">  1        1 0.72552797E-01 0.12318803E+04</pdfrwt>
<pdfrwt beam="2">  1       -1 0.12376451E+00 0.12318803E+04</pdfrwt>
<totfact> 0.27219165E+01</totfact>
</mgrwt>
</event>
<event>
12    1  0.1397649E-007  0.1766954E+04  0.7818608E-02  0.8724073E-01
          1   -1    0    0  501    0  0.00000000000E+00  0.00000000000E+00  0.16599811313E+04  0.16599811313E+04  0.00000000000E+00 0. -1.
         -1   -1    0    0    0  501 -0.00000000000E+00 -0.00000000000E+00 -0.47020514676E+03  0.47020514676E+03  0.00000000000E+00 0.  1.
         23    2    1    2    0    0  0.10098293657E+03  0.11809545963E+03  0.12135811139E+04  0.12268811026E+04  0.91181297032E+02 0.  0.
        254    2    1    2    0    0 -0.10098293657E+03 -0.11809545963E+03 -0.23805129271E+02  0.90330517552E+03  0.88952204294E+03 0.  0.
        -24    2    4    4    0    0 -0.37718034267E+03 -0.32818696473E+03 -0.14537549274E+03  0.52696623134E+03  0.81164526566E+02 0.  0.
         24    2    4    4    0    0  0.27619740610E+03  0.21009150511E+03  0.12157036346E+03  0.37633894418E+03  0.80176056167E+02 0.  0.
         11    1    3    3    0    0  0.99464379218E+02  0.90865448061E+02  0.11476752745E+04  0.11555553764E+04  0.00000000000E+00 0. -1.
        -11    1    3    3    0    0  0.15185573506E+01  0.27230011564E+02  0.65905839375E+02  0.71325726144E+02  0.00000000000E+00 0.  1.
          4    1    6    6  502    0  0.18010373822E+03  0.16182958689E+03  0.50201152418E+02  0.24727783446E+03  0.00000000000E+00 0. -1.
          3    1    5    5  503    0 -0.30076483830E+03 -0.26468241849E+03 -0.14922518347E+03  0.42753295311E+03  0.00000000000E+00 0. -1.
         -4    1    5    5    0  503 -0.76415504367E+02 -0.63504546238E+02  0.38496907312E+01  0.99433278229E+02  0.00000000000E+00 0.  1.
         -3    1    6    6    0  502  0.96093667881E+02  0.48261918217E+02  0.71369211046E+02  0.12906110972E+03  0.00000000000E+00 0.  1.
<mgrwt>
<rscale>  0 0.17669541E+04</rscale>
<asrwt>0</asrwt>
<pdfrwt beam="1">  1        1 0.25538171E+00 0.17669541E+04</pdfrwt>
<pdfrwt beam="2">  1       -1 0.72339254E-01 0.17669541E+04</pdfrwt>
<totfact> 0.92586118E+00</totfact>
</mgrwt>
</event>
<event>
12    1  0.1397649E-007  0.1404199E+04  0.7818608E-02  0.8950785E-01
          2   -1    0    0  501    0  0.00000000000E+00  0.00000000000E+00  0.38633297605E+03  0.38633297605E+03  0.00000000000E+00 0. -1.
         -2   -1    0    0    0  501 -0.00000000000E+00 -0.00000000000E+00 -0.12759547024E+04  0.12759547024E+04  0.00000000000E+00 0.  1.
         23    2    1    2    0    0 -0.41956854163E+02 -0.10526720323E+03 -0.74043737129E+03  0.75481206085E+03  0.93017120552E+02 0.  0.
        254    2    1    2    0    0  0.41956854163E+02  0.10526720323E+03 -0.14918435506E+03  0.90747561760E+03  0.88792705954E+03 0.  0.
        -24    2    4    4    0    0  0.20967183254E+03 -0.22149736757E+03 -0.35937216033E+03  0.47753967794E+03  0.76631802674E+02 0.  0.
         24    2    4    4    0    0 -0.16771497837E+03  0.32676457080E+03  0.21018780527E+03  0.42993593966E+03  0.75911791108E+02 0.  0.
         13    1    3    3    0    0 -0.42690203275E+02 -0.13549444284E+02 -0.12946842902E+03  0.13699677007E+03  0.00000000000E+00 0. -1.
        -13    1    3    3    0    0  0.73334911157E+00 -0.91717758943E+02 -0.61096894227E+03  0.61781529078E+03  0.00000000000E+00 0.  1.
          2    1    6    6  502    0 -0.31927345405E+02  0.12551184196E+03  0.48737108843E+02  0.13837587808E+03  0.00000000000E+00 0. -1.
          1    1    5    5  503    0  0.92904599766E+01 -0.47293523799E+02 -0.43808334765E+02  0.65131868043E+02  0.00000000000E+00 0. -1.
         -4    1    5    5    0  503  0.20038137256E+03 -0.17420384377E+03 -0.31556382557E+03  0.41240780989E+03  0.00000000000E+00 0.  1.
         -3    1    6    6    0  502 -0.13578763297E+03  0.20125272885E+03  0.16145069643E+03  0.29156006159E+03  0.00000000000E+00 0.  1.
<mgrwt>
<rscale>  0 0.14041985E+04</rscale>
<asrwt>0</asrwt>
<pdfrwt beam="1">  1        2 0.59435843E-01 0.14041985E+04</pdfrwt>
<pdfrwt beam="2">  1       -2 0.19630072E+00 0.14041985E+04</pdfrwt>
<totfact> 0.11309663E+01</totfact>
</mgrwt>
</event>
<event>
12    1  0.1397649E-007  0.1778994E+04  0.7818608E-02  0.8717551E-01
          2   -1    0    0  501    0  0.00000000000E+00  0.00000000000E+00  0.13308133640E+04  0.13308133640E+04  0.00000000000E+00 0. -1.
         -2   -1    0    0    0  501 -0.00000000000E+00 -0.00000000000E+00 -0.59452732259E+03  0.59452732259E+03  0.00000000000E+00 0.  1.
         23    2    1    2    0    0  0.30633398845E+03 -0.39481121907E+03  0.74232279417E+03  0.89944277506E+03  0.90762126820E+02 0.  0.
        254    2    1    2    0    0 -0.30633398845E+03  0.39481121907E+03 -0.60367527677E+01  0.10258979115E+04  0.89594289512E+03 0.  0.
        -24    2    4    4    0    0 -0.12615989120E+03 -0.23161684492E+03  0.19723623495E+03  0.33845879216E+03  0.78035508660E+02 0.  0.
         24    2    4    4    0    0 -0.18017409725E+03  0.62642806399E+03 -0.20327298772E+03  0.68743911938E+03  0.79861196077E+02 0.  0.
         11    1    3    3    0    0  0.13769514821E+03 -0.15807841163E+03  0.23634742554E+03  0.31592537666E+03  0.00000000000E+00 0.  1.
        -11    1    3    3    0    0  0.16863884025E+03 -0.23673280744E+03  0.50597536863E+03  0.58351739839E+03  0.00000000000E+00 0. -1.
          4    1    6    6  502    0 -0.17939112662E+03  0.60017482999E+03 -0.17853107338E+03  0.65135577608E+03  0.00000000000E+00 0. -1.
          3    1    5    5  503    0 -0.77733835568E+02 -0.20212679984E+03  0.17125540741E+03  0.27609093968E+03  0.00000000000E+00 0. -1.
         -2    1    5    5    0  503 -0.48426055635E+02 -0.29490045084E+02  0.25980827542E+02  0.62367852482E+02  0.00000000000E+00 0.  1.
         -3    1    6    6    0  502 -0.78297062862E+00  0.26253233995E+02 -0.24741914343E+02  0.36083343298E+02  0.00000000000E+00 0.  1.
<mgrwt>
<rscale>  0 0.17789940E+04</rscale>
<asrwt>0</asrwt>
<pdfrwt beam="1">  1        2 0.20474052E+00 0.17789940E+04</pdfrwt>
<pdfrwt beam="2">  1       -2 0.91465743E-01 0.17789940E+04</pdfrwt>
<totfact> 0.15272763E+01</totfact>
</mgrwt>
</event>
<event>
12    1  0.1397649E-007  0.1104875E+04  0.7818608E-02  0.9200454E-01
         -2   -1    0    0    0  501 -0.00000000000E+00  0.00000000000E+00  0.16827834184E+03  0.16827834184E+03  0.00000000000E+00 0.  1.
          2   -1    0    0  501    0  0.00000000000E+00 -0.00000000000E+00 -0.18135847006E+04  0.18135847006E+04  0.00000000000E+00 0. -1.
         23    2    1    2    0    0  0.28933739495E+01  0.59007463463E+02 -0.55726334322E+03  0.56792790226E+03  0.92246496458E+02 0.  0.
        254    2    1    2    0    0 -0.28933739495E+01 -0.59007463463E+02 -0.10880430155E+04  0.14139351401E+04  0.90104646084E+03 0.  0.
        -24    2    4    4    0    0 -0.16017264436E+03  0.37468817618E+03 -0.65906260037E+03  0.77883973088E+03  0.78621306399E+02 0.  0.
         24    2    4    4    0    0  0.15727927041E+03 -0.43369563965E+03 -0.42898041512E+03  0.63509540925E+03  0.80581049546E+02 0.  0.
         11    1    3    3    0    0 -0.36232105852E+02  0.98845937029E+01 -0.33057404218E+03  0.33270056816E+03  0.00000000000E+00 0. -1.
        -11    1    3    3    0    0  0.39125479802E+02  0.49122869760E+02 -0.22668930104E+03  0.23522733410E+03  0.00000000000E+00 0.  1.
          4    1    6    6  502    0 -0.27830833230E+01 -0.91595797922E+00 -0.14662091118E+02  0.14951971367E+02  0.00000000000E+00 0. -1.
          1    1    5    5  503    0 -0.66459236860E+02  0.10847873655E+03 -0.26704664785E+03  0.29580124843E+03  0.00000000000E+00 0. -1.
         -2    1    5    5    0  503 -0.93713407501E+02  0.26620943963E+03 -0.39201595253E+03  0.48303848245E+03  0.00000000000E+00 0.  1.
         -3    1    6    6    0  502  0.16006235373E+03 -0.43277968167E+03 -0.41431832400E+03  0.62014343789E+03  0.00000000000E+00 0.  1.
<mgrwt>
<rscale>  0 0.11048747E+04</rscale>
<asrwt>0</asrwt>
<pdfrwt beam="1">  1        2 0.27901301E+00 0.11048747E+04</pdfrwt>
<pdfrwt beam="2">  1       -2 0.25888978E-01 0.11048747E+04</pdfrwt>
<totfact> 0.11338454E+02</totfact>
</mgrwt>
</event>
<event>
12    1  0.1397649E-007  0.1727594E+04  0.7818608E-02  0.8745781E-01
          1   -1    0    0  501    0  0.00000000000E+00  0.00000000000E+00  0.68104416574E+03  0.68104416574E+03  0.00000000000E+00 0. -1.
         -1   -1    0    0    0  501 -0.00000000000E+00 -0.00000000000E+00 -0.10955905062E+04  0.10955905062E+04  0.00000000000E+00 0.  1.
         23    2    1    2    0    0  0.41821405263E+03 -0.29491664039E+03 -0.52379254899E+03  0.73779118133E+03  0.89990967698E+02 0.  0.
        254    2    1    2    0    0 -0.41821405263E+03  0.29491664039E+03  0.10924620855E+03  0.10388434906E+04  0.89743091393E+03 0.  0.
        -24    2    4    4    0    0 -0.30299599327E+03 -0.26661895803E+03 -0.99067500858E+02  0.42330462593E+03  0.80499663900E+02 0.  0.
         24    2    4    4    0    0 -0.11521805936E+03  0.56153559842E+03  0.20831370941E+03  0.61553886467E+03  0.83042536642E+02 0.  0.
         11    1    3    3    0    0  0.36143125809E+03 -0.28770598440E+03 -0.47474790900E+03  0.66241442080E+03  0.00000000000E+00 0.  1.
        -11    1    3    3    0    0  0.56782794547E+02 -0.72106559964E+01 -0.49044639993E+02  0.75376760534E+02  0.00000000000E+00 0. -1.
          4    1    6    6  502    0 -0.12676261385E+03  0.53752690767E+03  0.20283175412E+03  0.58834059627E+03  0.00000000000E+00 0. -1.
          3    1    5    5  503    0 -0.29423205204E+03 -0.23753422599E+03 -0.10478151587E+03  0.39239543197E+03  0.00000000000E+00 0. -1.
         -4    1    5    5    0  503 -0.87639412295E+01 -0.29084732035E+02  0.57140150079E+01  0.30909193955E+02  0.00000000000E+00 0.  1.
         -3    1    6    6    0  502  0.11544554493E+02  0.24008690750E+02  0.54819552879E+01  0.27198268397E+02  0.00000000000E+00 0.  1.
<mgrwt>
<rscale>  0 0.17275943E+04</rscale>
<asrwt>0</asrwt>
<pdfrwt beam="1">  1        1 0.10477603E+00 0.17275943E+04</pdfrwt>
<pdfrwt beam="2">  1       -1 0.16855238E+00 0.17275943E+04</pdfrwt>
<totfact> 0.67999455E+00</totfact>
</mgrwt>
</event>
<event>
12    1  0.1397649E-007  0.1761745E+04  0.7818608E-02  0.8726912E-01
         -1   -1    0    0    0  501 -0.00000000000E+00  0.00000000000E+00  0.92602391164E+03  0.92602391164E+03  0.00000000000E+00 0.  1.
          1   -1    0    0  501    0  0.00000000000E+00 -0.00000000000E+00 -0.83792239733E+03  0.83792239733E+03  0.00000000000E+00 0. -1.
         23    2    1    2    0    0 -0.56145533059E+03 -0.37318643900E+02  0.34312101153E+03  0.66551871292E+03  0.92511400720E+02 0.  0.
        254    2    1    2    0    0  0.56145533059E+03  0.37318643900E+02 -0.25501949722E+03  0.10984275961E+04  0.90823095652E+03 0.  0.
        -24    2    4    4    0    0  0.25556593811E+03  0.89745205171E+02 -0.57803408526E+03  0.64304744439E+03  0.77578743541E+02 0.  0.
         24    2    4    4    0    0  0.30588939248E+03 -0.52426561271E+02  0.32301458804E+03  0.45538015166E+03  0.81949946222E+02 0.  0.
         11    1    3    3    0    0 -0.50829358123E+03 -0.31258250324E+02  0.33917925735E+03  0.61186764218E+03  0.00000000000E+00 0.  1.
        -11    1    3    3    0    0 -0.53161749359E+02 -0.60603935762E+01  0.39417541791E+01  0.53651070737E+02  0.00000000000E+00 0. -1.
          2    1    6    6  502    0  0.57625421972E+02 -0.40600723041E+02  0.93311028484E+02  0.11694467070E+03  0.00000000000E+00 0. -1.
          1    1    5    5  503    0  0.23753168233E+02  0.11809825898E+01 -0.15990212538E+02  0.28658238222E+02  0.00000000000E+00 0. -1.
         -2    1    5    5    0  503  0.23181276988E+03  0.88564222582E+02 -0.56204387272E+03  0.61438920617E+03  0.00000000000E+00 0.  1.
         -1    1    6    6    0  502  0.24826397051E+03 -0.11825838230E+02  0.22970355955E+03  0.33843548096E+03  0.00000000000E+00 0.  1.
<mgrwt>
<rscale>  0 0.17617448E+04</rscale>
<asrwt>0</asrwt>
<pdfrwt beam="1">  1        1 0.12891114E+00 0.17617448E+04</pdfrwt>
<pdfrwt beam="2">  1       -1 0.14246522E+00 0.17617448E+04</pdfrwt>
<totfact> 0.77728851E+00</totfact>
</mgrwt>
</event>
<event>
12    1  0.1397649E-007  0.1703762E+04  0.7818608E-02  0.8759222E-01
         -1   -1    0    0    0  501 -0.00000000000E+00  0.00000000000E+00  0.30123257684E+03  0.30123257684E+03  0.00000000000E+00 0.  1.
          1   -1    0    0  501    0  0.00000000000E+00 -0.00000000000E+00 -0.24091048408E+04  0.24091048408E+04  0.00000000000E+00 0. -1.
         23    2    1    2    0    0 -0.59803082920E+03  0.13565469047E+03 -0.86958058074E+03  0.10679955934E+04  0.91657696766E+02 0.  0.
        254    2    1    2    0    0  0.59803082920E+03 -0.13565469047E+03 -0.12382916832E+04  0.16423418242E+04  0.88762453054E+03 0.  0.
        -24    2    4    4    0    0  0.59176640054E+03 -0.23546389525E+03 -0.32328051545E+03  0.71860606271E+03  0.79080104496E+02 0.  0.
         24    2    4    4    0    0  0.62644286594E+01  0.99809204779E+02 -0.91501116776E+03  0.92373576152E+03  0.77725154011E+02 0.  0.
         11    1    3    3    0    0 -0.20690610872E+03  0.89372712102E+02 -0.34288464183E+03  0.41032608630E+03  0.00000000000E+00 0. -1.
        -11    1    3    3    0    0 -0.39112472048E+03  0.46281978370E+02 -0.52669593892E+03  0.65766950709E+03  0.00000000000E+00 0.  1.
          2    1    6    6  502    0  0.31923296281E+02  0.93291004935E+02 -0.77461649686E+03  0.78086684246E+03  0.00000000000E+00 0. -1.
          3    1    5    5  503    0  0.52797430663E+03 -0.19910658679E+03 -0.31056049187E+03  0.64408704418E+03  0.00000000000E+00 0. -1.
         -4    1    5    5    0  503  0.63792093907E+02 -0.36357308462E+02 -0.12720023574E+02  0.74519018535E+02  0.00000000000E+00 0.  1.
         -1    1    6    6    0  502 -0.25658867622E+02  0.65181998443E+01 -0.14039467089E+03  0.14286891906E+03  0.00000000000E+00 0.  1.
<mgrwt>
<rscale>  0 0.17037616E+04</rscale>
<asrwt>0</asrwt>
<pdfrwt beam="1">  1        1 0.37063152E+00 0.17037616E+04</pdfrwt>
<pdfrwt beam="2">  1       -1 0.46343472E-01 0.17037616E+04</pdfrwt>
<totfact> 0.69122406E+00</totfact>
</mgrwt>
</event>
<event>
12    1  0.1397649E-007  0.1400438E+04  0.7818608E-02  0.8953502E-01
          1   -1    0    0  501    0  0.00000000000E+00  0.00000000000E+00  0.50839224988E+03  0.50839224988E+03  0.00000000000E+00 0. -1.
         -1   -1    0    0    0  501 -0.00000000000E+00 -0.00000000000E+00 -0.96442537919E+03  0.96442537919E+03  0.00000000000E+00 0.  1.
         23    2    1    2    0    0  0.30681592833E+03 -0.22006169532E+03 -0.10602651506E+02  0.38661431980E+03  0.82432107983E+02 0.  0.
        254    2    1    2    0    0 -0.30681592833E+03  0.22006169532E+03 -0.44543047780E+03  0.10862033093E+04  0.91589636690E+03 0.  0.
        -24    2    4    4    0    0 -0.62166421626E+03  0.72769189345E+02 -0.32700903129E+03  0.71065932816E+03  0.79624251759E+02 0.  0.
         24    2    4    4    0    0  0.31484828792E+03  0.14729250597E+03 -0.11842144651E+03  0.37554398111E+03  0.78645508663E+02 0.  0.
         13    1    3    3    0    0  0.17630240186E+03 -0.13613147848E+03 -0.46033100016E+02  0.22744969253E+03  0.00000000000E+00 0.  1.
        -13    1    3    3    0    0  0.13051352647E+03 -0.83930216840E+02  0.35430448510E+02  0.15916462727E+03  0.00000000000E+00 0. -1.
          4    1    6    6  502    0  0.22490234543E+03  0.11456375049E+03 -0.12075661394E+03  0.27980006740E+03  0.00000000000E+00 0. -1.
          3    1    5    5  503    0 -0.15725330827E+03  0.49631681662E+02 -0.10403727607E+03  0.19497605391E+03  0.00000000000E+00 0. -1.
         -4    1    5    5    0  503 -0.46441090798E+03  0.23137507683E+02 -0.22297175522E+03  0.51568327425E+03  0.00000000000E+00 0.  1.
         -3    1    6    6    0  502  0.89945942490E+02  0.32728755483E+02  0.23351674296E+01  0.95743913711E+02  0.00000000000E+00 0.  1.
<mgrwt>
<rscale>  0 0.14004376E+04</rscale>
<asrwt>0</asrwt>
<pdfrwt beam="1">  1        1 0.78214192E-01 0.14004376E+04</pdfrwt>
<pdfrwt beam="2">  1       -1 0.14837314E+00 0.14004376E+04</pdfrwt>
<totfact> 0.15174528E+01</totfact>
</mgrwt>
</event>
<event>
12    1  0.1397649E-007  0.1305146E+04  0.7818608E-02  0.9025495E-01
         -2   -1    0    0    0  501 -0.00000000000E+00  0.00000000000E+00  0.19894305863E+04  0.19894305863E+04  0.00000000000E+00 0.  1.
          2   -1    0    0  501    0  0.00000000000E+00 -0.00000000000E+00 -0.21405686474E+03  0.21405686474E+03  0.00000000000E+00 0. -1.
         23    2    1    2    0    0  0.14708107748E+03  0.16318567872E+03  0.38833577673E+02  0.24500063201E+03  0.10126625222E+03 0.  0.
        254    2    1    2    0    0 -0.14708107748E+03 -0.16318567872E+03  0.17365401439E+04  0.19584868190E+04  0.87854228119E+03 0.  0.
        -24    2    4    4    0    0 -0.30643477034E+03 -0.12650768318E+03  0.16837108890E+03  0.38001059975E+03  0.78439594378E+02 0.  0.
         24    2    4    4    0    0  0.15935369286E+03 -0.36677995544E+02  0.15681690550E+04  0.15784762193E+04  0.75459359907E+02 0.  0.
         13    1    3    3    0    0  0.71478383212E+02  0.13873766844E+03  0.51909350522E+02  0.16447455907E+03  0.00000000000E+00 0.  1.
        -13    1    3    3    0    0  0.75602694272E+02  0.24448010286E+02 -0.13075772849E+02  0.80526072943E+02  0.00000000000E+00 0. -1.
          4    1    6    6  502    0  0.79721277694E+02  0.20163720544E+02  0.72836214457E+03  0.73298940742E+03  0.00000000000E+00 0. -1.
          3    1    5    5  503    0 -0.14990102191E+03 -0.10286988311E+03  0.10087203477E+03  0.20791271394E+03  0.00000000000E+00 0. -1.
         -4    1    5    5    0  503 -0.15653374843E+03 -0.23637800068E+02  0.67499054133E+02  0.17209788581E+03  0.00000000000E+00 0.  1.
         -3    1    6    6    0  502  0.79632415167E+02 -0.56841716089E+02  0.83980691040E+03  0.84548681184E+03  0.00000000000E+00 0.  1.
<mgrwt>
<rscale>  0 0.13051456E+04</rscale>
<asrwt>0</asrwt>
<pdfrwt beam="1">  1        2 0.32931827E-01 0.13051456E+04</pdfrwt>
<pdfrwt beam="2">  1       -2 0.30606623E+00 0.13051456E+04</pdfrwt>
<totfact> 0.46124400E+00</totfact>
</mgrwt>
</event>
<event>
12    1  0.1397649E-007  0.1980915E+04  0.7818608E-02  0.8615596E-01
          2   -1    0    0  501    0  0.00000000000E+00  0.00000000000E+00  0.13797803755E+04  0.13797803755E+04  0.00000000000E+00 0.  1.
         -2   -1    0    0    0  501 -0.00000000000E+00 -0.00000000000E+00 -0.71098702687E+03  0.71098702687E+03  0.00000000000E+00 0. -1.
         23    2    1    2    0    0 -0.64204933541E+03  0.29501707451E+03 -0.84975396329E+02  0.71887928534E+03  0.10150953435E+03 0.  0.
        254    2    1    2    0    0  0.64204933541E+03 -0.29501707451E+03  0.75376874501E+03  0.13718881171E+04  0.90257811932E+03 0.  0.
        -24    2    4    4    0    0  0.10885498369E+03 -0.52779371187E+03  0.47107305769E+03  0.72013984721E+03  0.79220982640E+02 0.  0.
         24    2    4    4    0    0  0.53319435172E+03  0.23277663736E+03  0.28269568732E+03  0.65174826987E+03  0.79860979488E+02 0.  0.
         11    1    3    3    0    0 -0.34048416473E+03  0.11118479723E+03 -0.12839353644E+02  0.35840811175E+03  0.00000000000E+00 0.  1.
        -11    1    3    3    0    0 -0.30156517068E+03  0.18383227729E+03 -0.72136042684E+02  0.36047117360E+03  0.00000000000E+00 0. -1.
          4    1    6    6  502    0  0.15412533547E+03  0.76797410933E+02  0.12398118242E+03  0.21218811219E+03  0.00000000000E+00 0. -1.
          3    1    5    5  503    0 -0.37509565731E+01 -0.25690178973E+02  0.45482396324E+02  0.52370825335E+02  0.00000000000E+00 0. -1.
         -4    1    5    5    0  503  0.11260594026E+03 -0.50210353290E+03  0.42559066136E+03  0.66776902187E+03  0.00000000000E+00 0.  1.
         -3    1    6    6    0  502  0.37906901624E+03  0.15597922642E+03  0.15871450490E+03  0.43956015768E+03  0.00000000000E+00 0.  1.
<mgrwt>
<rscale>  0 0.19809149E+04</rscale>
<asrwt>0</asrwt>
<pdfrwt beam="1">  1        2 0.21227390E+00 0.19809149E+04</pdfrwt>
<pdfrwt beam="2">  1       -2 0.10938262E+00 0.19809149E+04</pdfrwt>
<totfact> 0.92125396E+00</totfact>
</mgrwt>
</event>
<event>
12    1  0.1397649E-007  0.2680079E+04  0.7818608E-02  0.8341498E-01
          1   -1    0    0  501    0  0.00000000000E+00  0.00000000000E+00  0.83659841128E+03  0.83659841128E+03  0.00000000000E+00 0. -1.
         -1   -1    0    0    0  501 -0.00000000000E+00 -0.00000000000E+00 -0.21464373199E+04  0.21464373199E+04  0.00000000000E+00 0.  1.
         23    2    1    2    0    0 -0.93190876296E+03  0.25909665924E+03 -0.13460471091E+04  0.16600634649E+04  0.91557993263E+02 0.  0.
        254    2    1    2    0    0  0.93190876296E+03 -0.25909665924E+03  0.36208200467E+02  0.13229722663E+04  0.90186449225E+03 0.  0.
        -24    2    4    4    0    0  0.55729423371E+03  0.42597533695E+02 -0.38104827667E+03  0.68122769355E+03  0.80510673209E+02 0.  0.
         24    2    4    4    0    0  0.37461452926E+03 -0.30169419294E+03  0.41725647713E+03  0.64174457279E+03  0.79860487179E+02 0.  0.
         13    1    3    3    0    0 -0.59448967382E+03  0.19985543051E+03 -0.91829862813E+03  0.11120398086E+04  0.00000000000E+00 0.  1.
        -13    1    3    3    0    0 -0.33741908914E+03  0.59241228739E+02 -0.42774848096E+03  0.54802365630E+03  0.00000000000E+00 0. -1.
          4    1    6    6  502    0  0.27205428837E+03 -0.21052787082E+03  0.24917904088E+03  0.42476548192E+03  0.00000000000E+00 0. -1.
          1    1    5    5  503    0  0.34964146725E+03  0.57557175859E+02 -0.26833547026E+03  0.44448386777E+03  0.00000000000E+00 0. -1.
         -2    1    5    5    0  503  0.20765276646E+03 -0.14959642164E+02 -0.11271280641E+03  0.23674382577E+03  0.00000000000E+00 0.  1.
         -3    1    6    6    0  502  0.10256024089E+03 -0.91166322115E+02  0.16807743625E+03  0.21697909087E+03  0.00000000000E+00 0.  1.
<mgrwt>
<rscale>  0 0.26800791E+04</rscale>
<asrwt>0</asrwt>
<pdfrwt beam="1">  1        1 0.12870745E+00 0.26800791E+04</pdfrwt>
<pdfrwt beam="2">  1       -1 0.33022112E+00 0.26800791E+04</pdfrwt>
<totfact> 0.37728810E-01</totfact>
</mgrwt>
</event>
<event>
12    1  0.1397649E-007  0.1448896E+04  0.7818608E-02  0.8919167E-01
         -2   -1    0    0    0  501 -0.00000000000E+00  0.00000000000E+00  0.23738089083E+03  0.23738089083E+03  0.00000000000E+00 0.  1.
          2   -1    0    0  501    0  0.00000000000E+00 -0.00000000000E+00 -0.22108965873E+04  0.22108965873E+04  0.00000000000E+00 0. -1.
         23    2    1    2    0    0  0.34756292791E+03  0.74428180650E+01 -0.17130303232E+03  0.39826819947E+03  0.91746637130E+02 0.  0.
        254    2    1    2    0    0 -0.34756292791E+03 -0.74428180650E+01 -0.18022126642E+04  0.20500092787E+04  0.91307840376E+03 0.  0.
        -24    2    4    4    0    0  0.94825551924E+02  0.36989530876E+03 -0.71014080101E+03  0.81021848292E+03  0.79621655716E+02 0.  0.
         24    2    4    4    0    0 -0.44238847984E+03 -0.37733812683E+03 -0.10920718631E+04  0.12397907958E+04  0.79803721187E+02 0.  0.
         13    1    3    3    0    0  0.17636071346E+03 -0.65415880201E+01 -0.13624608568E+03  0.22295490460E+03  0.00000000000E+00 0.  1.
        -13    1    3    3    0    0  0.17120221446E+03  0.13984406085E+02 -0.35056946646E+02  0.17531329486E+03  0.00000000000E+00 0. -1.
          2    1    6    6  502    0 -0.65207799058E+02 -0.95109797428E+02 -0.19480630565E+03  0.22637894634E+03  0.00000000000E+00 0. -1.
          1    1    5    5  503    0  0.32123331245E+02  0.40686198240E+02 -0.64193990384E+02  0.82511475195E+02  0.00000000000E+00 0. -1.
         -2    1    5    5    0  503  0.62702220679E+02  0.32920911052E+03 -0.64594681063E+03  0.72770700773E+03  0.00000000000E+00 0.  1.
         -1    1    6    6    0  502 -0.37718068078E+03 -0.28222832940E+03 -0.89726555749E+03  0.10134118494E+04  0.00000000000E+00 0.  1.
<mgrwt>
<rscale>  0 0.14488956E+04</rscale>
<asrwt>0</asrwt>
<pdfrwt beam="1">  1        2 0.34013793E+00 0.14488956E+04</pdfrwt>
<pdfrwt beam="2">  1       -2 0.36520137E-01 0.14488956E+04</pdfrwt>
<totfact> 0.34906707E+01</totfact>
</mgrwt>
</event>
<event>
12    1  0.1397649E-007  0.1867036E+04  0.7818608E-02  0.8671441E-01
          2   -1    0    0  501    0  0.00000000000E+00  0.00000000000E+00  0.25411561047E+04  0.25411561047E+04  0.00000000000E+00 0. -1.
         -2   -1    0    0    0  501 -0.00000000000E+00 -0.00000000000E+00 -0.34293690726E+03  0.34293690726E+03  0.00000000000E+00 0.  1.
         23    2    1    2    0    0 -0.23950177380E+03 -0.63352916272E+03  0.64064359918E+03  0.93675554854E+03  0.91468228786E+02 0.  0.
        254    2    1    2    0    0  0.23950177380E+03  0.63352916272E+03  0.15575755982E+04  0.19473374634E+04  0.95255506533E+03 0.  0.
        -24    2    4    4    0    0 -0.20275828908E+03  0.34086074932E+03  0.12821906413E+04  0.13445058795E+04  0.79913986024E+02 0.  0.
         24    2    4    4    0    0  0.44226006288E+03  0.29266841340E+03  0.27538495699E+03  0.60283158395E+03  0.79500192801E+02 0.  0.
         13    1    3    3    0    0 -0.20838200893E+03 -0.52469614902E+03  0.48485989580E+03  0.74418964585E+03  0.00000000000E+00 0.  1.
        -13    1    3    3    0    0 -0.31119764863E+02 -0.10883301369E+03  0.15578370339E+03  0.19256590268E+03  0.00000000000E+00 0. -1.
          4    1    6    6  502    0  0.37783828320E+03  0.27767207957E+03  0.25425698589E+03  0.53339494458E+03  0.00000000000E+00 0. -1.
          1    1    5    5  503    0 -0.20175225889E+03  0.33106020365E+03  0.11847906412E+04  0.12466088785E+04  0.00000000000E+00 0. -1.
         -2    1    5    5    0  503 -0.10060301939E+01  0.98005456662E+01  0.97400000017E+02  0.97897000952E+02  0.00000000000E+00 0.  1.
         -3    1    6    6    0  502  0.64421779676E+02  0.14996333830E+02  0.21127971098E+02  0.69436639375E+02  0.00000000000E+00 0.  1.
<mgrwt>
<rscale>  0 0.18670364E+04</rscale>
<asrwt>0</asrwt>
<pdfrwt beam="1">  1        2 0.39094708E+00 0.18670364E+04</pdfrwt>
<pdfrwt beam="2">  1       -2 0.52759526E-01 0.18670364E+04</pdfrwt>
<totfact> 0.10495147E+01</totfact>
</mgrwt>
</event>
<event>
12    1  0.1397649E-007  0.1179507E+04  0.7818608E-02  0.9130985E-01
          2   -1    0    0  501    0  0.00000000000E+00  0.00000000000E+00  0.29317227728E+03  0.29317227728E+03  0.00000000000E+00 0. -1.
         -2   -1    0    0    0  501 -0.00000000000E+00 -0.00000000000E+00 -0.11863648127E+04  0.11863648127E+04  0.00000000000E+00 0.  1.
         23    2    1    2    0    0  0.25446604100E+02 -0.57155508083E+02  0.87584436423E+02  0.14083613174E+03  0.90826762224E+02 0.  0.
        254    2    1    2    0    0 -0.25446604100E+02  0.57155508083E+02 -0.98077697188E+03  0.13387009583E+04  0.90900082804E+03 0.  0.
        -24    2    4    4    0    0 -0.25577567981E+03  0.36670989507E+03 -0.27668020280E+03  0.53173042179E+03  0.79296666467E+02 0.  0.
         24    2    4    4    0    0  0.23032907571E+03 -0.30955438699E+03 -0.70409676908E+03  0.80697053649E+03  0.81078880808E+02 0.  0.
         11    1    3    3    0    0 -0.39164942542E+01  0.19722712140E+02 -0.73127132627E+00  0.20121109790E+02  0.00000000000E+00 0. -1.
        -11    1    3    3    0    0  0.29363098354E+02 -0.76878220224E+02  0.88315707750E+02  0.12071502195E+03  0.00000000000E+00 0.  1.
          4    1    6    6  502    0  0.34608142389E+02 -0.93319432198E+01 -0.60744306972E+02  0.70531407992E+02  0.00000000000E+00 0. -1.
          3    1    5    5  503    0 -0.39162072131E+02  0.18657265252E+02 -0.17867668842E+02  0.46914976608E+02  0.00000000000E+00 0. -1.
         -4    1    5    5    0  503 -0.21661360768E+03  0.34805262982E+03 -0.25881253396E+03  0.48481544518E+03  0.00000000000E+00 0.  1.
         -3    1    6    6    0  502  0.19572093332E+03 -0.30022244377E+03 -0.64335246211E+03  0.73643912850E+03  0.00000000000E+00 0.  1.
<mgrwt>
<rscale>  0 0.11795071E+04</rscale>
<asrwt>0</asrwt>
<pdfrwt beam="1">  1        2 0.45103427E-01 0.11795071E+04</pdfrwt>
<pdfrwt beam="2">  1       -2 0.18251766E+00 0.11795071E+04</pdfrwt>
<totfact> 0.19372251E+01</totfact>
</mgrwt>
</event>
<event>
12    1  0.1397649E-007  0.2028453E+04  0.7818608E-02  0.8593432E-01
          1   -1    0    0  501    0  0.00000000000E+00  0.00000000000E+00  0.98149111252E+03  0.98149111252E+03  0.00000000000E+00 0. -1.
         -1   -1    0    0    0  501 -0.00000000000E+00 -0.00000000000E+00 -0.10480542110E+04  0.10480542110E+04  0.00000000000E+00 0.  1.
         23    2    1    2    0    0  0.47597278872E+03  0.59083350601E+02  0.61614662419E+03  0.78609109357E+03  0.90893382448E+02 0.  0.
        254    2    1    2    0    0 -0.47597278872E+03 -0.59083350601E+02 -0.68270972265E+03  0.12434542299E+04  0.92197880593E+03 0.  0.
        -24    2    4    4    0    0  0.20484403611E+03  0.20780183230E+03 -0.22378407392E+03  0.37646700267E+03  0.80656132555E+02 0.  0.
         24    2    4    4    0    0 -0.68081682483E+03 -0.26688518291E+03 -0.45892564874E+03  0.86698722725E+03  0.79466038793E+02 0.  0.
         13    1    3    3    0    0  0.43560454012E+03  0.29700055661E+02  0.57080706342E+03  0.71864741865E+03  0.00000000000E+00 0. -1.
        -13    1    3    3    0    0  0.40368248597E+02  0.29383294940E+02  0.45339560778E+02  0.67443674929E+02  0.00000000000E+00 0.  1.
          4    1    6    6  502    0 -0.45184094840E+03 -0.14320169366E+03 -0.27110660647E+03  0.54604556567E+03  0.00000000000E+00 0. -1.
          3    1    5    5  503    0  0.10182060205E+03  0.47938722486E+02 -0.84580954258E+02  0.14078172445E+03  0.00000000000E+00 0. -1.
         -4    1    5    5    0  503  0.10302343407E+03  0.15986310982E+03 -0.13920311966E+03  0.23568527822E+03  0.00000000000E+00 0.  1.
         -3    1    6    6    0  502 -0.22897587643E+03 -0.12368348925E+03 -0.18781904227E+03  0.32094166158E+03  0.00000000000E+00 0.  1.
<mgrwt>
<rscale>  0 0.20284535E+04</rscale>
<asrwt>0</asrwt>
<pdfrwt beam="1">  1        1 0.15099863E+00 0.20284535E+04</pdfrwt>
<pdfrwt beam="2">  1       -1 0.16123911E+00 0.20284535E+04</pdfrwt>
<totfact> 0.41411183E+00</totfact>
</mgrwt>
</event>
<event>
12    1  0.1397649E-007  0.1876488E+04  0.7818608E-02  0.8666649E-01
         -2   -1    0    0    0  501 -0.00000000000E+00  0.00000000000E+00  0.23012679799E+03  0.23012679799E+03  0.00000000000E+00 0.  1.
          2   -1    0    0  501    0  0.00000000000E+00 -0.00000000000E+00 -0.38252912278E+04  0.38252912278E+04  0.00000000000E+00 0. -1.
         23    2    1    2    0    0 -0.38533709326E+03 -0.53002441853E+03 -0.72743182246E+03  0.98330728224E+03  0.91244700170E+02 0.  0.
        254    2    1    2    0    0  0.38533709326E+03  0.53002441853E+03 -0.28677326074E+04  0.30721107436E+04  0.88575592217E+03 0.  0.
        -24    2    4    4    0    0  0.35472929719E+01  0.63056387910E+03 -0.12177268749E+04  0.13736629451E+04  0.80422360233E+02 0.  0.
         24    2    4    4    0    0  0.38178980029E+03 -0.10053946057E+03 -0.16500057325E+04  0.16984477985E+04  0.79588768835E+02 0.  0.
         13    1    3    3    0    0 -0.36122364339E+03 -0.47926303727E+03 -0.62509899210E+03  0.86655890127E+03  0.00000000000E+00 0.  1.
        -13    1    3    3    0    0 -0.24113449873E+02 -0.50761381250E+02 -0.10233283036E+03  0.11674838097E+03  0.00000000000E+00 0. -1.
          4    1    6    6  502    0  0.15882471912E+03 -0.50195250679E+01 -0.58800722607E+03  0.60910014361E+03  0.00000000000E+00 0. -1.
          1    1    5    5  503    0  0.14813765391E+02  0.26741258820E+03 -0.43709332344E+03  0.51262024284E+03  0.00000000000E+00 0. -1.
         -2    1    5    5    0  503 -0.11266472419E+02  0.36315129089E+03 -0.78063355146E+03  0.86104270228E+03  0.00000000000E+00 0.  1.
         -1    1    6    6    0  502  0.22296508116E+03 -0.95519935502E+02 -0.10619985064E+04  0.10893476548E+04  0.00000000000E+00 0.  1.
<mgrwt>
<rscale>  0 0.18764882E+04</rscale>
<asrwt>0</asrwt>
<pdfrwt beam="1">  1        2 0.58850638E+00 0.18764882E+04</pdfrwt>
<pdfrwt beam="2">  1       -2 0.35404121E-01 0.18764882E+04</pdfrwt>
<totfact> 0.33386757E+00</totfact>
</mgrwt>
</event>
<event>
12    1  0.1397649E-007  0.1597334E+04  0.7818608E-02  0.8822188E-01
         -1   -1    0    0    0  501 -0.00000000000E+00  0.00000000000E+00  0.21712047681E+03  0.21712047681E+03  0.00000000000E+00 0.  1.
          1   -1    0    0  501    0  0.00000000000E+00 -0.00000000000E+00 -0.29378568444E+04  0.29378568444E+04  0.00000000000E+00 0. -1.
         23    2    1    2    0    0 -0.24876615833E+03 -0.38760935489E+03 -0.37316319319E+03  0.60043505119E+03  0.95634033797E+02 0.  0.
        254    2    1    2    0    0  0.24876615833E+03  0.38760935489E+03 -0.23475731744E+04  0.25545422700E+04  0.89580175632E+03 0.  0.
        -24    2    4    4    0    0  0.13037112886E+02  0.57030059239E+03 -0.20351443956E+04  0.21151632880E+04  0.81794204254E+02 0.  0.
         24    2    4    4    0    0  0.23572904544E+03 -0.18269123750E+03 -0.31242877874E+03  0.43937898199E+03  0.80609409556E+02 0.  0.
         13    1    3    3    0    0 -0.12300409574E+03 -0.16428619963E+03 -0.22437207313E+03  0.30407694776E+03  0.00000000000E+00 0.  1.
        -13    1    3    3    0    0 -0.12576206259E+03 -0.22332315526E+03 -0.14879112006E+03  0.29635810343E+03  0.00000000000E+00 0. -1.
          4    1    6    6  502    0  0.18789470616E+03 -0.17863699431E+03 -0.27910988257E+03  0.38094346416E+03  0.00000000000E+00 0. -1.
          3    1    5    5  503    0  0.38852769498E+02  0.45927430195E+03 -0.16871158208E+04  0.17489431709E+04  0.00000000000E+00 0. -1.
         -4    1    5    5    0  503 -0.25815656612E+02  0.11102629044E+03 -0.34802857482E+03  0.36622011712E+03  0.00000000000E+00 0.  1.
         -3    1    6    6    0  502  0.47834339278E+02 -0.40542431868E+01 -0.33318896168E+02  0.58435517828E+02  0.00000000000E+00 0.  1.
<mgrwt>
<rscale>  0 0.15973339E+04</rscale>
<asrwt>0</asrwt>
<pdfrwt beam="1">  1        1 0.45197793E+00 0.15973339E+04</pdfrwt>
<pdfrwt beam="2">  1       -1 0.33403154E-01 0.15973339E+04</pdfrwt>
<totfact> 0.53951775E+00</totfact>
</mgrwt>
</event>
<event>
12    1  0.1397649E-007  0.1364489E+04  0.7818608E-02  0.8979932E-01
         -1   -1    0    0    0  501 -0.00000000000E+00  0.00000000000E+00  0.53270874906E+03  0.53270874906E+03  0.00000000000E+00 0.  1.
          1   -1    0    0  501    0  0.00000000000E+00 -0.00000000000E+00 -0.87375558939E+03  0.87375558939E+03  0.00000000000E+00 0. -1.
         23    2    1    2    0    0  0.13963879555E+01 -0.27580391396E+03  0.15662127972E+03  0.33010196581E+03  0.91473131113E+02 0.  0.
        254    2    1    2    0    0 -0.13963879555E+01  0.27580391396E+03 -0.49766812006E+03  0.10763623726E+04  0.91368082538E+03 0.  0.
        -24    2    4    4    0    0  0.14372727341E+03  0.35222204576E+03  0.14022840022E+03  0.41289776862E+03  0.78119552350E+02 0.  0.
         24    2    4    4    0    0 -0.14512366136E+03 -0.76418131804E+02 -0.63789652028E+03  0.66346460402E+03  0.79829206730E+02 0.  0.
         11    1    3    3    0    0 -0.76811997874E+01 -0.21128924413E+03  0.72097369572E+02  0.22338347346E+03  0.00000000000E+00 0.  1.
        -11    1    3    3    0    0  0.90775877429E+01 -0.64514669823E+02  0.84523910151E+02  0.10671849235E+03  0.00000000000E+00 0. -1.
          2    1    6    6  502    0 -0.12713316991E+03 -0.47204171174E+02 -0.58427016254E+03  0.59980221699E+03  0.00000000000E+00 0. -1.
          3    1    5    5  503    0  0.10043328047E+03  0.19907152061E+03  0.11778797005E+03  0.25217121175E+03  0.00000000000E+00 0. -1.
         -4    1    5    5    0  503  0.43293992936E+02  0.15315052515E+03  0.22440430175E+02  0.16072655687E+03  0.00000000000E+00 0.  1.
         -3    1    6    6    0  502 -0.17990491459E+02 -0.29213960629E+02 -0.53626357742E+02  0.63662387037E+02  0.00000000000E+00 0.  1.
<mgrwt>
<rscale>  0 0.13644885E+04</rscale>
<asrwt>0</asrwt>
<pdfrwt beam="1">  1        1 0.13442393E+00 0.13644885E+04</pdfrwt>
<pdfrwt beam="2">  1       -1 0.81955194E-01 0.13644885E+04</pdfrwt>
<totfact> 0.27715715E+01</totfact>
</mgrwt>
</event>
<event>
12    1  0.1397649E-007  0.1562791E+04  0.7818608E-02  0.8843739E-01
         -2   -1    0    0    0  501 -0.00000000000E+00  0.00000000000E+00  0.11186134762E+04  0.11186134762E+04  0.00000000000E+00 0.  1.
          2   -1    0    0  501    0  0.00000000000E+00 -0.00000000000E+00 -0.54583531325E+03  0.54583531325E+03  0.00000000000E+00 0. -1.
         23    2    1    2    0    0  0.98678146148E+02  0.91918216689E+02  0.72723250227E+03  0.74381821224E+03  0.78816783836E+02 0.  0.
        254    2    1    2    0    0 -0.98678146148E+02 -0.91918216689E+02 -0.15445433935E+03  0.92063057718E+03  0.89750664711E+03 0.  0.
        -24    2    4    4    0    0 -0.38022084416E+03  0.58848815110E+02  0.19654663322E+03  0.43938582902E+03  0.79989088874E+02 0.  0.
         24    2    4    4    0    0  0.28154269801E+03 -0.15076703180E+03 -0.35100097257E+03  0.48124474816E+03  0.79986475168E+02 0.  0.
         13    1    3    3    0    0  0.44675449982E+01  0.36947491340E+02  0.91211805942E+02  0.98512281559E+02  0.00000000000E+00 0. -1.
        -13    1    3    3    0    0  0.94210601149E+02  0.54970725350E+02  0.63602069633E+03  0.64530593068E+03  0.00000000000E+00 0.  1.
          4    1    6    6  502    0  0.51625504079E+02 -0.65516257541E+02 -0.10214262040E+03  0.13187375621E+03  0.00000000000E+00 0. -1.
          1    1    5    5  503    0 -0.14245655619E+03  0.59132410982E+02  0.92502375273E+02  0.17985327871E+03  0.00000000000E+00 0. -1.
         -2    1    5    5    0  503 -0.23776428797E+03 -0.28359587195E+00  0.10404425794E+03  0.25953255031E+03  0.00000000000E+00 0.  1.
         -3    1    6    6    0  502  0.22991719393E+03 -0.85250774258E+02 -0.24885835217E+03  0.34937099196E+03  0.00000000000E+00 0.  1.
<mgrwt>
<rscale>  0 0.15627908E+04</rscale>
<asrwt>0</asrwt>
<pdfrwt beam="1">  1        2 0.83974664E-01 0.15627908E+04</pdfrwt>
<pdfrwt beam="2">  1       -2 0.17209438E+00 0.15627908E+04</pdfrwt>
<totfact> 0.10991579E+01</totfact>
</mgrwt>
</event>
<event>
12    1  0.1397649E-007  0.1116916E+04  0.7818608E-02  0.9188859E-01
         -2   -1    0    0    0  501 -0.00000000000E+00  0.00000000000E+00  0.31958000845E+03  0.31958000845E+03  0.00000000000E+00 0.  1.
          2   -1    0    0  501    0  0.00000000000E+00 -0.00000000000E+00 -0.97589123383E+03  0.97589123383E+03  0.00000000000E+00 0. -1.
         23    2    1    2    0    0 -0.90440553080E+02  0.27810043468E+02  0.12835035541E+03  0.18156460956E+03  0.86827423958E+02 0.  0.
        254    2    1    2    0    0  0.90440553080E+02 -0.27810043468E+02 -0.78466158079E+03  0.11139066327E+04  0.78494668475E+03 0.  0.
        -24    2    4    4    0    0  0.88861721715E+02  0.13723530344E+02 -0.93268782413E+03  0.94032585862E+03  0.78875866007E+02 0.  0.
         24    2    4    4    0    0  0.15788313656E+01 -0.41533573812E+02  0.14802624334E+03  0.17358077410E+03  0.80566655377E+02 0.  0.
         13    1    3    3    0    0 -0.30024421414E+02 -0.25354454292E+02  0.75999639593E+02  0.85558514783E+02  0.00000000000E+00 0. -1.
        -13    1    3    3    0    0 -0.60416131666E+02  0.53164497759E+02  0.52350715818E+02  0.96006094776E+02  0.00000000000E+00 0.  1.
          4    1    6    6  502    0  0.14782756921E+02 -0.60429172890E+01 -0.43644047142E+01  0.16555808046E+02  0.00000000000E+00 0. -1.
          3    1    5    5  503    0  0.28434841582E+02 -0.25110954494E+02 -0.52418769498E+03  0.52555859789E+03  0.00000000000E+00 0. -1.
         -2    1    5    5    0  503  0.60426880133E+02  0.38834484838E+02 -0.40850012915E+03  0.41476726073E+03  0.00000000000E+00 0.  1.
         -3    1    6    6    0  502 -0.13203925556E+02 -0.35490656523E+02  0.15239064806E+03  0.15702496606E+03  0.00000000000E+00 0.  1.
<mgrwt>
<rscale>  0 0.11169160E+04</rscale>
<asrwt>0</asrwt>
<pdfrwt beam="1">  1        2 0.15013711E+00 0.11169160E+04</pdfrwt>
<pdfrwt beam="2">  1       -2 0.49166155E-01 0.11169160E+04</pdfrwt>
<totfact> 0.10140139E+02</totfact>
</mgrwt>
</event>
<event>
12    1  0.1397649E-007  0.1972125E+04  0.7818608E-02  0.8619765E-01
         -2   -1    0    0    0  501 -0.00000000000E+00  0.00000000000E+00  0.90101288652E+03  0.90101288652E+03  0.00000000000E+00 0.  1.
          2   -1    0    0  501    0  0.00000000000E+00 -0.00000000000E+00 -0.10791396863E+04  0.10791396863E+04  0.00000000000E+00 0. -1.
         23    2    1    2    0    0 -0.93138224754E+01  0.18434883159E+03  0.69532247593E+03  0.72530695317E+03  0.92334131213E+02 0.  0.
        254    2    1    2    0    0  0.93138224754E+01 -0.18434883159E+03 -0.87344927567E+03  0.12548456196E+04  0.88184616170E+03 0.  0.
        -24    2    4    4    0    0  0.41125386809E+03 -0.15590380252E+03 -0.26195820715E+03  0.51806213166E+03  0.79564629783E+02 0.  0.
         24    2    4    4    0    0 -0.40194004561E+03 -0.28445029072E+02 -0.61149106852E+03  0.73678348795E+03  0.81016426064E+02 0.  0.
         13    1    3    3    0    0  0.48402484376E+01  0.31764363013E+02  0.29354436612E+03  0.29529764246E+03  0.00000000000E+00 0. -1.
        -13    1    3    3    0    0 -0.14154070913E+02  0.15258446857E+03  0.40177810981E+03  0.43000931071E+03  0.00000000000E+00 0.  1.
          4    1    6    6  502    0 -0.38452898923E+02 -0.24282257151E+02 -0.47218475144E+02  0.65557896877E+02  0.00000000000E+00 0. -1.
          1    1    5    5  503    0  0.12851556312E+03 -0.16935926076E+02 -0.53138400977E+02  0.14009555744E+03  0.00000000000E+00 0. -1.
         -2    1    5    5    0  503  0.28273830497E+03 -0.13896787644E+03 -0.20881980617E+03  0.37796657422E+03  0.00000000000E+00 0.  1.
         -3    1    6    6    0  502 -0.36348714669E+03 -0.41627719205E+01 -0.56427259338E+03  0.67122559108E+03  0.00000000000E+00 0.  1.
<mgrwt>
<rscale>  0 0.19721245E+04</rscale>
<asrwt>0</asrwt>
<pdfrwt beam="1">  1        2 0.16602149E+00 0.19721245E+04</pdfrwt>
<pdfrwt beam="2">  1       -2 0.13861737E+00 0.19721245E+04</pdfrwt>
<totfact> 0.77026331E+00</totfact>
</mgrwt>
</event>
<event>
12    1  0.1397649E-007  0.2270575E+04  0.7818608E-02  0.8489614E-01
         -1   -1    0    0    0  501 -0.00000000000E+00  0.00000000000E+00  0.56797628906E+03  0.56797628906E+03  0.00000000000E+00 0.  1.
          1   -1    0    0  501    0  0.00000000000E+00 -0.00000000000E+00 -0.22692448938E+04  0.22692448938E+04  0.00000000000E+00 0. -1.
         23    2    1    2    0    0  0.33617980074E+03 -0.59256001796E+03  0.12246779056E+03  0.69862370783E+03  0.94511862303E+02 0.  0.
        254    2    1    2    0    0 -0.33617980074E+03  0.59256001796E+03 -0.18237363952E+04  0.21385974750E+04  0.88512173588E+03 0.  0.
        -24    2    4    4    0    0 -0.28842299949E+02  0.75028204529E+03 -0.13533660793E+04  0.15498777408E+04  0.82257163714E+02 0.  0.
         24    2    4    4    0    0 -0.30733750079E+03 -0.15772202733E+03 -0.47037031596E+03  0.58871973422E+03  0.77524925178E+02 0.  0.
         11    1    3    3    0    0  0.14835752914E+03 -0.35573616435E+03  0.62419760206E+02  0.39045409659E+03  0.00000000000E+00 0.  1.
        -11    1    3    3    0    0  0.18782227159E+03 -0.23682385361E+03  0.60048030349E+02  0.30816961124E+03  0.00000000000E+00 0. -1.
          4    1    6    6  502    0 -0.14856630463E+03 -0.50945663456E+02 -0.16067721018E+03  0.22468772411E+03  0.00000000000E+00 0. -1.
          3    1    5    5  503    0 -0.19387755370E+02  0.91794125816E+02 -0.12726075586E+03  0.15810549192E+03  0.00000000000E+00 0. -1.
         -4    1    5    5    0  503 -0.94545445793E+01  0.65848791948E+03 -0.12261053234E+04  0.13917722488E+04  0.00000000000E+00 0.  1.
         -1    1    6    6    0  502 -0.15877119616E+03 -0.10677636388E+03 -0.30969310578E+03  0.36403201010E+03  0.00000000000E+00 0.  1.
<mgrwt>
<rscale>  0 0.22705746E+04</rscale>
<asrwt>0</asrwt>
<pdfrwt beam="1">  1        1 0.34911460E+00 0.22705746E+04</pdfrwt>
<pdfrwt beam="2">  1       -1 0.87380966E-01 0.22705746E+04</pdfrwt>
<totfact> 0.22816417E+00</totfact>
</mgrwt>
</event>
<event>
12    1  0.1397649E-007  0.1371212E+04  0.7818608E-02  0.8974924E-01
          2   -1    0    0  501    0  0.00000000000E+00  0.00000000000E+00  0.19789513379E+04  0.19789513379E+04  0.00000000000E+00 0. -1.
         -2   -1    0    0    0  501 -0.00000000000E+00 -0.00000000000E+00 -0.23752767678E+03  0.23752767678E+03  0.00000000000E+00 0.  1.
         23    2    1    2    0    0  0.15184150914E+03 -0.33797254421E+03  0.52643946980E+03  0.65025670411E+03  0.91727756617E+02 0.  0.
        254    2    1    2    0    0 -0.15184150914E+03  0.33797254421E+03  0.12149841914E+04  0.15662223106E+04  0.91628841336E+03 0.  0.
        -24    2    4    4    0    0 -0.14548702654E+03 -0.68321325963E+02 -0.87886087960E+02  0.19918349720E+03  0.78203725148E+02 0.  0.
         24    2    4    4    0    0 -0.63544826053E+01  0.40629387017E+03  0.13028702793E+04  0.13670388134E+04  0.78797615725E+02 0.  0.
         11    1    3    3    0    0  0.13419509365E+02 -0.19596265536E+02  0.57381308224E+01  0.24434054103E+02  0.00000000000E+00 0.  1.
        -11    1    3    3    0    0  0.13842199978E+03 -0.31837627867E+03  0.52070133898E+03  0.62582265001E+03  0.00000000000E+00 0. -1.
          2    1    6    6  502    0  0.23765025079E+02  0.76762751756E+02  0.19815719686E+03  0.21383070673E+03  0.00000000000E+00 0. -1.
          1    1    5    5  503    0 -0.10324668597E+03 -0.71792907234E+02 -0.33324479168E+02  0.13009466017E+03  0.00000000000E+00 0. -1.
         -2    1    5    5    0  503 -0.42240340563E+02  0.34715812712E+01 -0.54561608792E+02  0.69088837024E+02  0.00000000000E+00 0.  1.
         -1    1    6    6    0  502 -0.30119507684E+02  0.32953111842E+03  0.11047130825E+04  0.11532081067E+04  0.00000000000E+00 0.  1.
<mgrwt>
<rscale>  0 0.13712122E+04</rscale>
<asrwt>0</asrwt>
<pdfrwt beam="1">  1        2 0.30445404E+00 0.13712122E+04</pdfrwt>
<pdfrwt beam="2">  1       -2 0.36542721E-01 0.13712122E+04</pdfrwt>
<totfact> 0.47231216E+01</totfact>
</mgrwt>
</event>
<event>
12    1  0.1397649E-007  0.2099034E+04  0.7818608E-02  0.8561669E-01
          2   -1    0    0  501    0  0.00000000000E+00  0.00000000000E+00  0.22914120074E+04  0.22914120074E+04  0.00000000000E+00 0. -1.
         -2   -1    0    0    0  501 -0.00000000000E+00 -0.00000000000E+00 -0.48070177957E+03  0.48070177957E+03  0.00000000000E+00 0.  1.
         23    2    1    2    0    0  0.45919064855E+02 -0.15617346787E+03  0.17953810227E+04  0.18045899565E+04  0.81567039878E+02 0.  0.
        254    2    1    2    0    0 -0.45919064855E+02  0.15617346787E+03  0.15329205177E+02  0.96752383047E+03  0.95360823476E+03 0.  0.
        -24    2    4    4    0    0 -0.11072808945E+03 -0.26741023734E+03  0.31689029363E+03  0.43767616990E+03  0.85860507081E+02 0.  0.
         24    2    4    4    0    0  0.64809024598E+02  0.42358370521E+03 -0.30156108845E+03  0.52984766057E+03  0.78588092930E+02 0.  0.
         13    1    3    3    0    0  0.30819467117E+02 -0.52038473684E+02  0.33445117201E+03  0.33987560777E+03  0.00000000000E+00 0.  1.
        -13    1    3    3    0    0  0.15099597738E+02 -0.10413499419E+03  0.14609298507E+04  0.14647143487E+04  0.00000000000E+00 0. -1.
          2    1    6    6  502    0  0.34006316548E+02  0.71193997569E+02 -0.80513934406E+02  0.11272758530E+03  0.00000000000E+00 0. -1.
          1    1    5    5  503    0  0.77712270039E+01 -0.16038781984E+02  0.23838200061E+01  0.17981020396E+02  0.00000000000E+00 0. -1.
         -2    1    5    5    0  503 -0.11849931646E+03 -0.25137145536E+03  0.31450647362E+03  0.41969514950E+03  0.00000000000E+00 0.  1.
         -1    1    6    6    0  502  0.30802708050E+02  0.35238970764E+03 -0.22104715404E+03  0.41712007526E+03  0.00000000000E+00 0.  1.
<mgrwt>
<rscale>  0 0.20990339E+04</rscale>
<asrwt>0</asrwt>
<pdfrwt beam="1">  1        2 0.35252492E+00 0.20990339E+04</pdfrwt>
<pdfrwt beam="2">  1       -2 0.73954121E-01 0.20990339E+04</pdfrwt>
<totfact> 0.69605690E+00</totfact>
</mgrwt>
</event>
<event>
12    1  0.1397649E-007  0.1325988E+04  0.7818608E-02  0.9009207E-01
         -2   -1    0    0    0  501 -0.00000000000E+00  0.00000000000E+00  0.10819231663E+04  0.10819231663E+04  0.00000000000E+00 0.  1.
          2   -1    0    0  501    0  0.00000000000E+00 -0.00000000000E+00 -0.40627740451E+03  0.40627740451E+03  0.00000000000E+00 0. -1.
         23    2    1    2    0    0 -0.27398011203E+03 -0.19725389983E+03  0.30075709405E+03  0.46163296959E+03  0.93144866790E+02 0.  0.
        254    2    1    2    0    0  0.27398011203E+03  0.19725389983E+03  0.37488866777E+03  0.10265676012E+04  0.89404995606E+03 0.  0.
        -24    2    4    4    0    0  0.10003969619E+03  0.54195741667E+03  0.26268689602E+03  0.61556735528E+03  0.78695496967E+02 0.  0.
         24    2    4    4    0    0  0.17394041584E+03 -0.34470351685E+03  0.11220177175E+03  0.41100024597E+03  0.85183224955E+02 0.  0.
         11    1    3    3    0    0 -0.26646387099E+03 -0.17704479961E+03  0.24846885832E+03  0.40507360956E+03  0.00000000000E+00 0. -1.
        -11    1    3    3    0    0 -0.75162410396E+01 -0.20209100221E+02  0.52288235731E+02  0.56559360030E+02  0.00000000000E+00 0.  1.
          4    1    6    6  502    0  0.14556948668E+03 -0.27531259005E+03  0.12381706627E+03  0.33513902129E+03  0.00000000000E+00 0. -1.
          3    1    5    5  503    0  0.90022492777E+02  0.39968717989E+03  0.16004554998E+03  0.43985050761E+03  0.00000000000E+00 0. -1.
         -4    1    5    5    0  503  0.10017203410E+02  0.14227023678E+03  0.10264134604E+03  0.17571684767E+03  0.00000000000E+00 0.  1.
         -3    1    6    6    0  502  0.28370929162E+02 -0.69390926796E+02 -0.11615294517E+02  0.75861224679E+02  0.00000000000E+00 0.  1.
<mgrwt>
<rscale>  0 0.13259878E+04</rscale>
<asrwt>0</asrwt>
<pdfrwt beam="1">  1        2 0.62504216E-01 0.13259878E+04</pdfrwt>
<pdfrwt beam="2">  1       -2 0.16644972E+00 0.13259878E+04</pdfrwt>
<totfact> 0.17255728E+01</totfact>
</mgrwt>
</event>
<event>
12    1  0.1397649E-007  0.1489922E+04  0.7818608E-02  0.8891182E-01
         -2   -1    0    0    0  501 -0.00000000000E+00  0.00000000000E+00  0.27924422516E+03  0.27924422516E+03  0.00000000000E+00 0.  1.
          2   -1    0    0  501    0  0.00000000000E+00 -0.00000000000E+00 -0.19873893934E+04  0.19873893934E+04  0.00000000000E+00 0. -1.
         23    2    1    2    0    0 -0.15685984941E+03 -0.20170101052E+03  0.41429250292E+02  0.27416629084E+03  0.90346346075E+02 0.  0.
        254    2    1    2    0    0  0.15685984941E+03  0.20170101052E+03 -0.17495744186E+04  0.19924673277E+04  0.91849175066E+03 0.  0.
        -24    2    4    4    0    0 -0.18385101183E+03 -0.26589940559E+03 -0.39103509763E+03  0.51355181871E+03  0.79519396862E+02 0.  0.
         24    2    4    4    0    0  0.34071086124E+03  0.46760041612E+03 -0.13585393209E+04  0.14789155090E+04  0.82631448089E+02 0.  0.
         11    1    3    3    0    0 -0.16256937597E+03 -0.16238068837E+03  0.45464619657E+02  0.23422920740E+03  0.00000000000E+00 0.  1.
        -11    1    3    3    0    0  0.57095265586E+01 -0.39320322150E+02 -0.40353693645E+01  0.39937083436E+02  0.00000000000E+00 0. -1.
          2    1    6    6  502    0  0.62523133172E+02  0.81771781652E+02 -0.17008996085E+03  0.19881237697E+03  0.00000000000E+00 0. -1.
          3    1    5    5  503    0 -0.57459773112E+02 -0.28933703146E+02 -0.76973323982E+02  0.10031788130E+03  0.00000000000E+00 0. -1.
         -4    1    5    5    0  503 -0.12639123872E+03 -0.23696570245E+03 -0.31406177365E+03  0.41323393741E+03  0.00000000000E+00 0.  1.
         -1    1    6    6    0  502  0.27818772807E+03  0.38582863446E+03 -0.11884493601E+04  0.12801031321E+04  0.00000000000E+00 0.  1.
<mgrwt>
<rscale>  0 0.14899222E+04</rscale>
<asrwt>0</asrwt>
<pdfrwt beam="1">  1        2 0.30575222E+00 0.14899222E+04</pdfrwt>
<pdfrwt beam="2">  1       -2 0.42960649E-01 0.14899222E+04</pdfrwt>
<totfact> 0.33739093E+01</totfact>
</mgrwt>
</event>
<event>
12    1  0.1397649E-007  0.2500219E+04  0.7818608E-02  0.8402907E-01
          1   -1    0    0  501    0  0.00000000000E+00  0.00000000000E+00  0.11986390276E+04  0.11986390276E+04  0.00000000000E+00 0. -1.
         -1   -1    0    0    0  501 -0.00000000000E+00 -0.00000000000E+00 -0.13037903210E+04  0.13037903210E+04  0.00000000000E+00 0.  1.
         23    2    1    2    0    0 -0.44094029686E+03 -0.33907301261E+03  0.89022712466E+03  0.10538826133E+04  0.93623585403E+02 0.  0.
        254    2    1    2    0    0  0.44094029686E+03  0.33907301261E+03 -0.99537841806E+03  0.14485467354E+04  0.89337035787E+03 0.  0.
        -24    2    4    4    0    0  0.28316548809E+03  0.60722605039E+03 -0.87676682217E+03  0.11063602307E+04  0.80042049599E+02 0.  0.
         24    2    4    4    0    0  0.15777480877E+03 -0.26815303777E+03 -0.11861159589E+03  0.34218650473E+03  0.78892023617E+02 0.  0.
         13    1    3    3    0    0 -0.10287893786E+03 -0.10556586787E+03  0.30592734375E+03  0.33958764402E+03  0.00000000000E+00 0.  1.
        -13    1    3    3    0    0 -0.33806135900E+03 -0.23350714475E+03  0.58429978091E+03  0.71429496923E+03  0.00000000000E+00 0. -1.
          4    1    6    6  502    0  0.62702067730E+02 -0.59670535928E+02 -0.61077634459E+02  0.10593677164E+03  0.00000000000E+00 0. -1.
          1    1    5    5  503    0  0.11890335144E+03  0.19394144237E+03 -0.25230720071E+03  0.33972078768E+03  0.00000000000E+00 0. -1.
         -2    1    5    5    0  503  0.16426213666E+03  0.41328460801E+03 -0.62445962146E+03  0.76663944302E+03  0.00000000000E+00 0.  1.
         -3    1    6    6    0  502  0.95072741040E+02 -0.20848250185E+03 -0.57533961428E+02  0.23624973308E+03  0.00000000000E+00 0.  1.
<mgrwt>
<rscale>  0 0.25002192E+04</rscale>
<asrwt>0</asrwt>
<pdfrwt beam="1">  1        1 0.18440600E+00 0.25002192E+04</pdfrwt>
<pdfrwt beam="2">  1       -1 0.20058313E+00 0.25002192E+04</pdfrwt>
<totfact> 0.14188436E+00</totfact>
</mgrwt>
</event>
<event>
12    1  0.1397649E-007  0.1588458E+04  0.7818608E-02  0.8827670E-01
          1   -1    0    0  501    0  0.00000000000E+00  0.00000000000E+00  0.38429373407E+03  0.38429373407E+03  0.00000000000E+00 0. -1.
         -1   -1    0    0    0  501 -0.00000000000E+00 -0.00000000000E+00 -0.16414517087E+04  0.16414517087E+04  0.00000000000E+00 0.  1.
         23    2    1    2    0    0 -0.27892531783E+03 -0.31199082938E+03 -0.84747325416E+03  0.94965887952E+03  0.92214209272E+02 0.  0.
        254    2    1    2    0    0  0.27892531783E+03  0.31199082938E+03 -0.40968472044E+03  0.10760865632E+04  0.90276415016E+03 0.  0.
        -24    2    4    4    0    0  0.58740339737E+03  0.12393205336E+03 -0.14761981950E+03  0.62327174823E+03  0.79209569719E+02 0.  0.
         24    2    4    4    0    0 -0.30847807954E+03  0.18805877602E+03 -0.26206490094E+03  0.45281481498E+03  0.76409525373E+02 0.  0.
         11    1    3    3    0    0 -0.24379140783E+03 -0.27838827655E+03 -0.66723332684E+03  0.76297745412E+03  0.00000000000E+00 0.  1.
        -11    1    3    3    0    0 -0.35133909995E+02 -0.33602552835E+02 -0.18023992732E+03  0.18668142540E+03  0.00000000000E+00 0. -1.
          4    1    6    6  502    0 -0.10887336337E+03  0.85665199182E+02 -0.60283863478E+02  0.15108302286E+03  0.00000000000E+00 0. -1.
          3    1    5    5  503    0  0.31462240679E+03  0.29772391557E+02 -0.94443886456E+02  0.32983829650E+03  0.00000000000E+00 0. -1.
         -2    1    5    5    0  503  0.27278099058E+03  0.94159661803E+02 -0.53175933043E+02  0.29343345172E+03  0.00000000000E+00 0.  1.
         -3    1    6    6    0  502 -0.19960471618E+03  0.10239357684E+03 -0.20178103746E+03  0.30173179212E+03  0.00000000000E+00 0.  1.
<mgrwt>
<rscale>  0 0.15884579E+04</rscale>
<asrwt>0</asrwt>
<pdfrwt beam="1">  1        1 0.59122114E-01 0.15884579E+04</pdfrwt>
<pdfrwt beam="2">  1       -1 0.25253103E+00 0.15884579E+04</pdfrwt>
<totfact> 0.40812545E+00</totfact>
</mgrwt>
</event>
<event>
12    1  0.1397649E-007  0.1291093E+04  0.7818608E-02  0.9036658E-01
          2   -1    0    0  501    0  0.00000000000E+00  0.00000000000E+00  0.21124753189E+03  0.21124753189E+03  0.00000000000E+00 0. -1.
         -2   -1    0    0    0  501 -0.00000000000E+00 -0.00000000000E+00 -0.19727107055E+04  0.19727107055E+04  0.00000000000E+00 0.  1.
         23    2    1    2    0    0  0.19544087442E+03  0.67926514430E+02 -0.76036398007E+03  0.79326132891E+03  0.91098885828E+02 0.  0.
        254    2    1    2    0    0 -0.19544087442E+03 -0.67926514430E+02 -0.10010991935E+04  0.13906969085E+04  0.94288236234E+03 0.  0.
        -24    2    4    4    0    0 -0.42223032714E+03  0.23975582775E+03 -0.26870866912E+03  0.56070292573E+03  0.80138105573E+02 0.  0.
         24    2    4    4    0    0  0.22678945272E+03 -0.30768234218E+03 -0.73239052441E+03  0.82999398275E+03  0.79951557845E+02 0.  0.
         13    1    3    3    0    0  0.64427655855E+01  0.32744872634E+02 -0.95599249615E+02  0.10125686366E+03  0.00000000000E+00 0. -1.
        -13    1    3    3    0    0  0.18899810884E+03  0.35181641796E+02 -0.66476473045E+03  0.69200446524E+03  0.00000000000E+00 0.  1.
          4    1    6    6  502    0  0.10630728005E+03 -0.10626395051E+03 -0.35588473713E+03  0.38632526592E+03  0.00000000000E+00 0. -1.
          3    1    5    5  503    0 -0.26831012867E+03  0.12050746038E+03 -0.12965640796E+03  0.32143919686E+03  0.00000000000E+00 0. -1.
         -4    1    5    5    0  503 -0.15392019847E+03  0.11924836737E+03 -0.13905226116E+03  0.23926372887E+03  0.00000000000E+00 0.  1.
         -3    1    6    6    0  502  0.12048217267E+03 -0.20141839167E+03 -0.37650578728E+03  0.44366871683E+03  0.00000000000E+00 0.  1.
<mgrwt>
<rscale>  0 0.12910930E+04</rscale>
<asrwt>0</asrwt>
<pdfrwt beam="1">  1        2 0.32499620E-01 0.12910930E+04</pdfrwt>
<pdfrwt beam="2">  1       -2 0.30349396E+00 0.12910930E+04</pdfrwt>
<totfact> 0.48596788E+00</totfact>
</mgrwt>
</event>
<event>
12    1  0.1397649E-007  0.1764358E+04  0.7818608E-02  0.8725487E-01
          2   -1    0    0  501    0  0.00000000000E+00  0.00000000000E+00  0.36489762831E+04  0.36489762831E+04  0.00000000000E+00 0. -1.
         -2   -1    0    0    0  501 -0.00000000000E+00 -0.00000000000E+00 -0.21327616521E+03  0.21327616521E+03  0.00000000000E+00 0.  1.
         23    2    1    2    0    0 -0.41030697050E+03 -0.33900402670E+03  0.21706824704E+04  0.22369119519E+04  0.92936284747E+02 0.  0.
        254    2    1    2    0    0  0.41030697050E+03  0.33900402670E+03  0.12650176475E+04  0.16253404964E+04  0.87073907728E+03 0.  0.
        -24    2    4    4    0    0  0.23988485953E+03  0.61839683441E+03  0.96980033511E+03  0.11774193311E+04  0.76447371558E+02 0.  0.
         24    2    4    4    0    0  0.17042211097E+03 -0.27939280771E+03  0.29521731235E+03  0.44792116531E+03  0.79850309421E+02 0.  0.
         11    1    3    3    0    0 -0.41283113321E+03 -0.33555869802E+03  0.21667503165E+04  0.22311064785E+04  0.00000000000E+00 0. -1.
        -11    1    3    3    0    0  0.25241627051E+01 -0.34453286802E+01  0.39321539506E+01  0.58054734318E+01  0.00000000000E+00 0.  1.
          2    1    6    6  502    0  0.38878715651E+02 -0.87801263583E+02  0.13490491867E+03  0.16558971435E+03  0.00000000000E+00 0. -1.
          3    1    5    5  503    0  0.11027146722E+03  0.23158207060E+03  0.43182922573E+03  0.50226141809E+03  0.00000000000E+00 0. -1.
         -4    1    5    5    0  503  0.12961339231E+03  0.38681476381E+03  0.53797110938E+03  0.67515791301E+03  0.00000000000E+00 0.  1.
         -1    1    6    6    0  502  0.13154339532E+03 -0.19159154413E+03  0.16031239368E+03  0.28233145096E+03  0.00000000000E+00 0.  1.
<mgrwt>
<rscale>  0 0.17643579E+04</rscale>
<asrwt>0</asrwt>
<pdfrwt beam="1">  1        2 0.56138092E+00 0.17643579E+04</pdfrwt>
<pdfrwt beam="2">  1       -2 0.32811720E-01 0.17643579E+04</pdfrwt>
<totfact> 0.52745093E+00</totfact>
</mgrwt>
</event>
<event>
12    1  0.1397649E-007  0.1747340E+04  0.7818608E-02  0.8734816E-01
          1   -1    0    0  501    0  0.00000000000E+00  0.00000000000E+00  0.14236244993E+04  0.14236244993E+04  0.00000000000E+00 0. -1.
         -1   -1    0    0    0  501 -0.00000000000E+00 -0.00000000000E+00 -0.53616623775E+03  0.53616623775E+03  0.00000000000E+00 0.  1.
         23    2    1    2    0    0  0.90406849303E+02  0.89672077467E+02  0.10210595550E+04  0.10333845021E+04  0.95427639642E+02 0.  0.
        254    2    1    2    0    0 -0.90406849303E+02 -0.89672077467E+02 -0.13360129342E+03  0.92640623499E+03  0.90783518700E+03 0.  0.
        -24    2    4    4    0    0 -0.27411434645E+03 -0.38120748507E+03 -0.26957642254E+03  0.54728724425E+03  0.79962857194E+02 0.  0.
         24    2    4    4    0    0  0.18370749715E+03  0.29153540760E+03  0.13597512911E+03  0.37911899074E+03  0.80626515526E+02 0.  0.
         13    1    3    3    0    0  0.81234072525E+02  0.33451645589E+02  0.81078650188E+03  0.81553218132E+03  0.00000000000E+00 0. -1.
        -13    1    3    3    0    0  0.91727767774E+01  0.56220431878E+02  0.21027305311E+03  0.21785232076E+03  0.00000000000E+00 0.  1.
          2    1    6    6  502    0  0.19214266162E+03  0.27840766324E+03  0.12921526227E+03  0.36211353657E+03  0.00000000000E+00 0. -1.
          3    1    5    5  503    0 -0.22173668607E+03 -0.30809156691E+03 -0.25206329684E+03  0.45565719260E+03  0.00000000000E+00 0. -1.
         -4    1    5    5    0  503 -0.52377660378E+02 -0.73115918159E+02 -0.17513125701E+02  0.91630051657E+02  0.00000000000E+00 0.  1.
         -1    1    6    6    0  502 -0.84351644694E+01  0.13127744365E+02  0.67598668427E+01  0.17005454168E+02  0.00000000000E+00 0.  1.
<mgrwt>
<rscale>  0 0.17473401E+04</rscale>
<asrwt>0</asrwt>
<pdfrwt beam="1">  1        1 0.21901915E+00 0.17473401E+04</pdfrwt>
<pdfrwt beam="2">  1       -1 0.82487114E-01 0.17473401E+04</pdfrwt>
<totfact> 0.10239379E+01</totfact>
</mgrwt>
</event>
<event>
12    1  0.1397649E-007  0.1877912E+04  0.7818608E-02  0.8665930E-01
          2   -1    0    0  501    0  0.00000000000E+00  0.00000000000E+00  0.11697735817E+04  0.11697735817E+04  0.00000000000E+00 0.  1.
         -2   -1    0    0    0  501 -0.00000000000E+00 -0.00000000000E+00 -0.75368288336E+03  0.75368288336E+03  0.00000000000E+00 0. -1.
         23    2    1    2    0    0 -0.33628731489E+03 -0.45207529952E+03 -0.29110321820E+03  0.64105296080E+03  0.93523153890E+02 0.  0.
        254    2    1    2    0    0  0.33628731489E+03  0.45207529952E+03  0.70719391656E+03  0.12824035043E+04  0.90938126085E+03 0.  0.
        -24    2    4    4    0    0  0.27542414290E+03  0.69861977475E+03  0.33794311589E+03  0.82736882182E+03  0.80034802247E+02 0.  0.
         24    2    4    4    0    0  0.60863171985E+02 -0.24654447524E+03  0.36925080067E+03  0.45503468247E+03  0.78879049695E+02 0.  0.
         11    1    3    3    0    0 -0.30278693335E+03 -0.34588648495E+03 -0.22942562848E+03  0.51376405721E+03  0.00000000000E+00 0. -1.
        -11    1    3    3    0    0 -0.33500381535E+02 -0.10618881457E+03 -0.61677589719E+02  0.12728890359E+03  0.00000000000E+00 0.  1.
          2    1    6    6  502    0  0.67498594739E+02 -0.11982709495E+03  0.16791478691E+03  0.21704830946E+03  0.00000000000E+00 0. -1.
          1    1    5    5  503    0  0.11845466158E+03  0.36501797096E+03  0.20766475791E+03  0.43634192746E+03  0.00000000000E+00 0. -1.
         -2    1    5    5    0  503  0.15696948132E+03  0.33360180379E+03  0.13027835798E+03  0.39102689436E+03  0.00000000000E+00 0.  1.
         -1    1    6    6    0  502 -0.66354227543E+01 -0.12671738028E+03  0.20133601376E+03  0.23798637301E+03  0.00000000000E+00 0.  1.
<mgrwt>
<rscale>  0 0.18779120E+04</rscale>
<asrwt>0</asrwt>
<pdfrwt beam="1">  1        2 0.17996517E+00 0.18779120E+04</pdfrwt>
<pdfrwt beam="2">  1       -2 0.11595121E+00 0.18779120E+04</pdfrwt>
<totfact> 0.10709956E+01</totfact>
</mgrwt>
</event>
<event>
12    1  0.1397649E-007  0.1494322E+04  0.7818608E-02  0.8888238E-01
         -1   -1    0    0    0  501 -0.00000000000E+00  0.00000000000E+00  0.42212881729E+03  0.42212881729E+03  0.00000000000E+00 0.  1.
          1   -1    0    0  501    0  0.00000000000E+00 -0.00000000000E+00 -0.13224623987E+04  0.13224623987E+04  0.00000000000E+00 0. -1.
         23    2    1    2    0    0 -0.52002735362E+02 -0.46427342789E+03 -0.33664182524E+03  0.58278219313E+03  0.89739989952E+02 0.  0.
        254    2    1    2    0    0  0.52002735362E+02  0.46427342789E+03 -0.56369175617E+03  0.11618090228E+04  0.90210737125E+03 0.  0.
        -24    2    4    4    0    0  0.30236453120E+03  0.27007640830E+03  0.97283282302E+02  0.42441360436E+03  0.79355494468E+02 0.  0.
         24    2    4    4    0    0 -0.25036179583E+03  0.19419701959E+03 -0.66097503847E+03  0.73739541849E+03  0.80439359131E+02 0.  0.
         11    1    3    3    0    0 -0.26466746648E+02 -0.16824853671E+03 -0.72075676199E+02  0.18494042793E+03  0.00000000000E+00 0.  1.
        -11    1    3    3    0    0 -0.25535988714E+02 -0.29602489118E+03 -0.26456614904E+03  0.39784176520E+03  0.00000000000E+00 0. -1.
          2    1    6    6  502    0 -0.17787485088E+03  0.16986785918E+03 -0.44745828416E+03  0.51060108522E+03  0.00000000000E+00 0. -1.
          3    1    5    5  503    0  0.28175139601E+03  0.23861408756E+03  0.65101532443E+02  0.37491164487E+03  0.00000000000E+00 0. -1.
         -4    1    5    5    0  503  0.20613135183E+02  0.31462320747E+02  0.32181749859E+02  0.49501959485E+02  0.00000000000E+00 0.  1.
         -1    1    6    6    0  502 -0.72486944952E+02  0.24329160413E+02 -0.21351675431E+03  0.22679433328E+03  0.00000000000E+00 0.  1.
<mgrwt>
<rscale>  0 0.14943219E+04</rscale>
<asrwt>0</asrwt>
<pdfrwt beam="1">  1        1 0.20345575E+00 0.14943219E+04</pdfrwt>
<pdfrwt beam="2">  1       -1 0.64942896E-01 0.14943219E+04</pdfrwt>
<totfact> 0.20281243E+01</totfact>
</mgrwt>
</event>
<event>
12    1  0.1397649E-007  0.2255303E+04  0.7818608E-02  0.8495756E-01
         -1   -1    0    0    0  501 -0.00000000000E+00  0.00000000000E+00  0.91449570250E+03  0.91449570250E+03  0.00000000000E+00 0.  1.
          1   -1    0    0  501    0  0.00000000000E+00 -0.00000000000E+00 -0.13904914345E+04  0.13904914345E+04  0.00000000000E+00 0. -1.
         23    2    1    2    0    0 -0.25177856642E+03 -0.82597834494E+03 -0.58433143663E+03  0.10484251024E+04  0.11008766832E+03 0.  0.
        254    2    1    2    0    0  0.25177856642E+03  0.82597834494E+03  0.10833570463E+03  0.12565620346E+04  0.90640986813E+03 0.  0.
        -24    2    4    4    0    0  0.54758871511E+03  0.45766978730E+03  0.24418329453E+03  0.75854148920E+03  0.80278729329E+02 0.  0.
         24    2    4    4    0    0 -0.29581014869E+03  0.36830855763E+03 -0.13584758990E+03  0.49802054539E+03  0.80094058769E+02 0.  0.
         11    1    3    3    0    0 -0.67126615624E+02 -0.34861046084E+03 -0.19265354142E+03  0.40391907972E+03  0.00000000000E+00 0.  1.
        -11    1    3    3    0    0 -0.18465195080E+03 -0.47736788409E+03 -0.39167789520E+03  0.64450602269E+03  0.00000000000E+00 0. -1.
          4    1    6    6  502    0 -0.13980392818E+03  0.21289942472E+03 -0.39834335505E+02  0.25779464243E+03  0.00000000000E+00 0. -1.
          3    1    5    5  503    0  0.19518813034E+03  0.11765913885E+03  0.63566781540E+02  0.23660687838E+03  0.00000000000E+00 0. -1.
         -4    1    5    5    0  503  0.35240058477E+03  0.34001064845E+03  0.18061651299E+03  0.52193461082E+03  0.00000000000E+00 0.  1.
         -3    1    6    6    0  502 -0.15600622051E+03  0.15540913291E+03 -0.96013254394E+02  0.24022590295E+03  0.00000000000E+00 0.  1.
<mgrwt>
<rscale>  0 0.22553035E+04</rscale>
<asrwt>0</asrwt>
<pdfrwt beam="1">  1        1 0.21392176E+00 0.22553035E+04</pdfrwt>
<pdfrwt beam="2">  1       -1 0.14069165E+00 0.22553035E+04</pdfrwt>
<totfact> 0.29294856E+00</totfact>
</mgrwt>
</event>
<event>
12    1  0.1397649E-007  0.1807160E+04  0.7818608E-02  0.8702501E-01
          1   -1    0    0  501    0  0.00000000000E+00  0.00000000000E+00  0.81503730220E+03  0.81503730220E+03  0.00000000000E+00 0. -1.
         -1   -1    0    0    0  501 -0.00000000000E+00 -0.00000000000E+00 -0.10017415164E+04  0.10017415164E+04  0.00000000000E+00 0.  1.
         23    2    1    2    0    0  0.28189096574E+02 -0.28692051423E+03 -0.68328012545E+03  0.74550777098E+03  0.76105847981E+02 0.  0.
        254    2    1    2    0    0 -0.28189096574E+02  0.28692051423E+03  0.49657591121E+03  0.10712710477E+04  0.90438709374E+03 0.  0.
        -24    2    4    4    0    0 -0.12105393058E+02 -0.29451530356E+03  0.35284086182E+03  0.46669254629E+03  0.80121497902E+02 0.  0.
         24    2    4    4    0    0 -0.16083703516E+02  0.58143581779E+03  0.14373504939E+03  0.60457850138E+03  0.80802872322E+02 0.  0.
         13    1    3    3    0    0  0.37039393395E+02 -0.12302651787E+03 -0.23039566016E+03  0.26379840974E+03  0.00000000000E+00 0. -1.
        -13    1    3    3    0    0 -0.88502968204E+01 -0.16389399636E+03 -0.45288446530E+03  0.48170936124E+03  0.00000000000E+00 0.  1.
          2    1    6    6  502    0 -0.28636590542E+02  0.48969593993E+03  0.93950116826E+02  0.49944848819E+03  0.00000000000E+00 0. -1.
          1    1    5    5  503    0  0.16277830832E+02 -0.24462138391E+03  0.30911375923E+03  0.39453251499E+03  0.00000000000E+00 0. -1.
         -2    1    5    5    0  503 -0.28383223890E+02 -0.49893919648E+02  0.43727102587E+02  0.72160031297E+02  0.00000000000E+00 0.  1.
         -1    1    6    6    0  502  0.12552887026E+02  0.91739877859E+02  0.49784932566E+02  0.10513001319E+03  0.00000000000E+00 0.  1.
<mgrwt>
<rscale>  0 0.18071599E+04</rscale>
<asrwt>0</asrwt>
<pdfrwt beam="1">  1        1 0.12539035E+00 0.18071599E+04</pdfrwt>
<pdfrwt beam="2">  1       -1 0.15411408E+00 0.18071599E+04</pdfrwt>
<totfact> 0.65590754E+00</totfact>
</mgrwt>
</event>
<event>
12    1  0.1397649E-007  0.1645798E+04  0.7818608E-02  0.8792896E-01
         -1   -1    0    0    0  501 -0.00000000000E+00  0.00000000000E+00  0.21575457668E+04  0.21575457668E+04  0.00000000000E+00 0.  1.
          1   -1    0    0  501    0  0.00000000000E+00 -0.00000000000E+00 -0.31385806402E+03  0.31385806402E+03  0.00000000000E+00 0. -1.
         23    2    1    2    0    0  0.14639473361E+03 -0.25032142100E+03 -0.92463067941E+02  0.31759952024E+03  0.90707246014E+02 0.  0.
        254    2    1    2    0    0 -0.14639473361E+03  0.25032142100E+03  0.19361507707E+04  0.21538043106E+04  0.89783125889E+03 0.  0.
        -24    2    4    4    0    0  0.26371207909E+03  0.20146499223E+02  0.17018189310E+03  0.32450495331E+03  0.79947769798E+02 0.  0.
         24    2    4    4    0    0 -0.41010681270E+03  0.23017492178E+03  0.17659688776E+04  0.18292993573E+04  0.80758710538E+02 0.  0.
         11    1    3    3    0    0  0.46736659335E+02 -0.82174293774E+02 -0.76274055342E+02  0.12146876719E+03  0.00000000000E+00 0.  1.
        -11    1    3    3    0    0  0.99658074276E+02 -0.16814712723E+03 -0.16189012599E+02  0.19613075305E+03  0.00000000000E+00 0. -1.
          2    1    6    6  502    0 -0.44921487619E+02  0.20442013112E+02  0.10901537277E+03  0.11966690206E+03  0.00000000000E+00 0. -1.
          1    1    5    5  503    0  0.46748198649E+02 -0.24610661719E+02  0.18312392428E+02  0.55914420891E+02  0.00000000000E+00 0. -1.
         -2    1    5    5    0  503  0.21696388044E+03  0.44757160941E+02  0.15186950067E+03  0.26859053242E+03  0.00000000000E+00 0.  1.
         -1    1    6    6    0  502 -0.36518532508E+03  0.20973290867E+03  0.16569535048E+04  0.17096324552E+04  0.00000000000E+00 0.  1.
<mgrwt>
<rscale>  0 0.16457985E+04</rscale>
<asrwt>0</asrwt>
<pdfrwt beam="1">  1        1 0.48285857E-01 0.16457985E+04</pdfrwt>
<pdfrwt beam="2">  1       -1 0.33193011E+00 0.16457985E+04</pdfrwt>
<totfact> 0.16200662E+00</totfact>
</mgrwt>
</event>
<event>
12    1  0.1397649E-007  0.1314238E+04  0.7818608E-02  0.9018350E-01
         -1   -1    0    0    0  501 -0.00000000000E+00  0.00000000000E+00  0.58963801153E+03  0.58963801153E+03  0.00000000000E+00 0.  1.
          1   -1    0    0  501    0  0.00000000000E+00 -0.00000000000E+00 -0.73232236636E+03  0.73232236636E+03  0.00000000000E+00 0. -1.
         23    2    1    2    0    0  0.26451526332E+03  0.12336576144E+03 -0.21183759078E+03  0.37230389547E+03  0.92453177847E+02 0.  0.
        254    2    1    2    0    0 -0.26451526332E+03 -0.12336576144E+03  0.69153235946E+02  0.94965648241E+03  0.90104263435E+03 0.  0.
        -24    2    4    4    0    0 -0.13233509935E+03 -0.47824998925E+03  0.19964867651E+03  0.54089134408E+03  0.80425253043E+02 0.  0.
         24    2    4    4    0    0 -0.13218016397E+03  0.35488422781E+03 -0.13049544057E+03  0.40876513833E+03  0.81519736328E+02 0.  0.
         13    1    3    3    0    0  0.24338806944E+03  0.91713800181E+02 -0.20985328256E+03  0.33419690855E+03  0.00000000000E+00 0.  1.
        -13    1    3    3    0    0  0.21127193881E+02  0.31651961260E+02 -0.19843082211E+01  0.38106986919E+02  0.00000000000E+00 0. -1.
          4    1    6    6  502    0  0.68218709869E+01  0.15758926680E+02  0.52036132238E+01  0.17943223914E+02  0.00000000000E+00 0. -1.
          1    1    5    5  503    0 -0.96124504373E+02 -0.19785017891E+03  0.88334309701E+02  0.23703916113E+03  0.00000000000E+00 0. -1.
         -2    1    5    5    0  503 -0.36210594975E+02 -0.28039981034E+03  0.11131436681E+03  0.30385218295E+03  0.00000000000E+00 0.  1.
         -3    1    6    6    0  502 -0.13900203496E+03  0.33912530113E+03 -0.13569905379E+03  0.39082191442E+03  0.00000000000E+00 0.  1.
<mgrwt>
<rscale>  0 0.13142376E+04</rscale>
<asrwt>0</asrwt>
<pdfrwt beam="1">  1        1 0.11266498E+00 0.13142376E+04</pdfrwt>
<pdfrwt beam="2">  1       -1 0.90713540E-01 0.13142376E+04</pdfrwt>
<totfact> 0.29628118E+01</totfact>
</mgrwt>
</event>
<event>
12    1  0.1397649E-007  0.1517808E+04  0.7818608E-02  0.8872697E-01
          2   -1    0    0  501    0  0.00000000000E+00  0.00000000000E+00  0.31964442901E+04  0.31964442901E+04  0.00000000000E+00 0. -1.
         -2   -1    0    0    0  501 -0.00000000000E+00 -0.00000000000E+00 -0.18017987815E+03  0.18017987815E+03  0.00000000000E+00 0.  1.
         23    2    1    2    0    0 -0.15353251319E+03  0.10087740893E+00 -0.45048284956E+02  0.18251774548E+03  0.87813077910E+02 0.  0.
        254    2    1    2    0    0  0.15353251319E+03 -0.10087740893E+00  0.30613126969E+04  0.31941064228E+04  0.89839199075E+03 0.  0.
        -24    2    4    4    0    0  0.39261752322E+03 -0.28015003107E+03  0.12105896452E+04  0.13054527114E+04  0.77762029020E+02 0.  0.
         24    2    4    4    0    0 -0.23908501002E+03  0.28004915366E+03  0.18507230517E+04  0.18886537114E+04  0.79043386596E+02 0.  0.
         11    1    3    3    0    0 -0.10519474813E+03  0.17301775123E+02  0.10230548612E+02  0.10709785517E+03  0.00000000000E+00 0. -1.
        -11    1    3    3    0    0 -0.48337765065E+02 -0.17200897714E+02 -0.55278833567E+02  0.75419890309E+02  0.00000000000E+00 0.  1.
          2    1    6    6  502    0 -0.18940765178E+03  0.23648010371E+03  0.13494864533E+04  0.13830805420E+04  0.00000000000E+00 0. -1.
          3    1    5    5  503    0  0.28574096037E+03 -0.19838827526E+03  0.95894217268E+03  0.10200862193E+04  0.00000000000E+00 0. -1.
         -4    1    5    5    0  503  0.10687656285E+03 -0.81761755804E+02  0.25164747249E+03  0.28536649209E+03  0.00000000000E+00 0.  1.
         -1    1    6    6    0  502 -0.49677358240E+02  0.43569049953E+02  0.50123659841E+03  0.50557316941E+03  0.00000000000E+00 0.  1.
<mgrwt>
<rscale>  0 0.15178076E+04</rscale>
<asrwt>0</asrwt>
<pdfrwt beam="1">  1        2 0.49176062E+00 0.15178076E+04</pdfrwt>
<pdfrwt beam="2">  1       -2 0.27719984E-01 0.15178076E+04</pdfrwt>
<totfact> 0.15079805E+01</totfact>
</mgrwt>
</event>
<event>
12    1  0.1397649E-007  0.1476460E+04  0.7818608E-02  0.8900259E-01
          2   -1    0    0  501    0  0.00000000000E+00  0.00000000000E+00  0.37448064540E+03  0.37448064540E+03  0.00000000000E+00 0. -1.
         -2   -1    0    0    0  501 -0.00000000000E+00 -0.00000000000E+00 -0.14553050978E+04  0.14553050978E+04  0.00000000000E+00 0.  1.
         23    2    1    2    0    0  0.41490980624E+03  0.17311474254E+03 -0.21292358610E+03  0.50578800976E+03  0.91466911546E+02 0.  0.
        254    2    1    2    0    0 -0.41490980624E+03 -0.17311474254E+03 -0.86790086626E+03  0.13239977334E+04  0.89308410746E+03 0.  0.
        -24    2    4    4    0    0 -0.46363483646E+03 -0.47920574090E+03 -0.50655321912E+03  0.84106419675E+03  0.78723665890E+02 0.  0.
         24    2    4    4    0    0  0.48725030227E+02  0.30609099836E+03 -0.36134764714E+03  0.48293353664E+03  0.81159416412E+02 0.  0.
         11    1    3    3    0    0  0.15839665638E+02  0.15474179467E+02  0.75319691217E+01  0.23389651484E+02  0.00000000000E+00 0. -1.
        -11    1    3    3    0    0  0.39907014060E+03  0.15764056307E+03 -0.22045555522E+03  0.48239835828E+03  0.00000000000E+00 0.  1.
          2    1    6    6  502    0 -0.95176767631E+01  0.16457461986E+03 -0.21744209410E+03  0.27286710311E+03  0.00000000000E+00 0. -1.
          3    1    5    5  503    0 -0.12030666297E+03 -0.16942461028E+03 -0.13423364928E+03  0.24738040408E+03  0.00000000000E+00 0. -1.
         -4    1    5    5    0  503 -0.34332817349E+03 -0.30978113062E+03 -0.37231956984E+03  0.59368379267E+03  0.00000000000E+00 0.  1.
         -1    1    6    6    0  502  0.58242706990E+02  0.14151637850E+03 -0.14390555304E+03  0.21006643353E+03  0.00000000000E+00 0.  1.
<mgrwt>
<rscale>  0 0.14764601E+04</rscale>
<asrwt>0</asrwt>
<pdfrwt beam="1">  1        2 0.57612409E-01 0.14764601E+04</pdfrwt>
<pdfrwt beam="2">  1       -2 0.22389309E+00 0.14764601E+04</pdfrwt>
<totfact> 0.77390243E+00</totfact>
</mgrwt>
</event>
<event>
12    1  0.1397649E-007  0.2110117E+04  0.7818608E-02  0.8556800E-01
          2   -1    0    0  501    0  0.00000000000E+00  0.00000000000E+00  0.10962969179E+04  0.10962969179E+04  0.00000000000E+00 0. -1.
         -2   -1    0    0    0  501 -0.00000000000E+00 -0.00000000000E+00 -0.10153714581E+04  0.10153714581E+04  0.00000000000E+00 0.  1.
         23    2    1    2    0    0  0.76842768294E+03 -0.30867633785E+03  0.26652728076E+03  0.87465225436E+03  0.90650919523E+02 0.  0.
        254    2    1    2    0    0 -0.76842768294E+03  0.30867633785E+03 -0.18560182096E+03  0.12370161217E+04  0.89999925774E+03 0.  0.
        -24    2    4    4    0    0 -0.74120197231E+03 -0.13395791516E+03 -0.22443208217E+02  0.75801613386E+03  0.82217241575E+02 0.  0.
         24    2    4    4    0    0 -0.27225710635E+02  0.44263425301E+03 -0.16315861274E+03  0.47899998784E+03  0.78447015080E+02 0.  0.
         11    1    3    3    0    0  0.19618251886E+02 -0.15449495827E+02 -0.57665488341E+01  0.25628418091E+02  0.00000000000E+00 0.  1.
        -11    1    3    3    0    0  0.74880943106E+03 -0.29322684202E+03  0.27229382959E+03  0.84902383627E+03  0.00000000000E+00 0. -1.
          4    1    6    6  502    0 -0.54720097538E+02  0.28901321412E+03 -0.11238581032E+03  0.31488648331E+03  0.00000000000E+00 0. -1.
          3    1    5    5  503    0 -0.67245657613E+03 -0.13742436203E+03 -0.38148435375E+02  0.68741443481E+03  0.00000000000E+00 0. -1.
         -4    1    5    5    0  503 -0.68745396175E+02  0.34664468608E+01  0.15705227158E+02  0.70601699053E+02  0.00000000000E+00 0.  1.
         -3    1    6    6    0  502  0.27494386903E+02  0.15362103889E+03 -0.50772802419E+02  0.16411350452E+03  0.00000000000E+00 0.  1.
<mgrwt>
<rscale>  0 0.21101172E+04</rscale>
<asrwt>0</asrwt>
<pdfrwt beam="1">  1        2 0.16866106E+00 0.21101172E+04</pdfrwt>
<pdfrwt beam="2">  1       -2 0.15621099E+00 0.21101172E+04</pdfrwt>
<totfact> 0.54210440E+00</totfact>
</mgrwt>
</event>
<event>
12    1  0.1397649E-007  0.1088714E+04  0.7818608E-02  0.9216263E-01
         -1   -1    0    0    0  501 -0.00000000000E+00  0.00000000000E+00  0.15344289456E+03  0.15344289456E+03  0.00000000000E+00 0.  1.
          1   -1    0    0  501    0  0.00000000000E+00 -0.00000000000E+00 -0.19311699262E+04  0.19311699262E+04  0.00000000000E+00 0. -1.
         23    2    1    2    0    0  0.83809275222E+02  0.74250512265E+02 -0.47551039900E+03  0.49696691540E+03  0.91262490986E+02 0.  0.
        254    2    1    2    0    0 -0.83809275222E+02 -0.74250512265E+02 -0.13022166326E+04  0.15876459053E+04  0.90128476592E+03 0.  0.
        -24    2    4    4    0    0  0.39327959606E+03 -0.87111805340E+02 -0.46373679596E+03  0.61958570059E+03  0.81100660559E+02 0.  0.
         24    2    4    4    0    0 -0.47708887128E+03  0.12861293075E+02 -0.83847983665E+03  0.96806020474E+03  0.79453883272E+02 0.  0.
         13    1    3    3    0    0  0.93675110923E+02  0.70489864490E+02 -0.31497944947E+03  0.33608912656E+03  0.00000000000E+00 0. -1.
        -13    1    3    3    0    0 -0.98658357011E+01  0.37606477747E+01 -0.16053094953E+03  0.16087778885E+03  0.00000000000E+00 0.  1.
          2    1    6    6  502    0 -0.26262190746E+03 -0.12535536799E+02 -0.52820627573E+03  0.59002480938E+03  0.00000000000E+00 0. -1.
          1    1    5    5  503    0  0.10365579644E+03 -0.34997393796E+02 -0.77757707496E+02  0.13422221419E+03  0.00000000000E+00 0. -1.
         -2    1    5    5    0  503  0.28962379962E+03 -0.52114411544E+02 -0.38597908846E+03  0.48536348640E+03  0.00000000000E+00 0.  1.
         -1    1    6    6    0  502 -0.21446696382E+03  0.25396829874E+02 -0.31027356092E+03  0.37803539536E+03  0.00000000000E+00 0.  1.
<mgrwt>
<rscale>  0 0.10887136E+04</rscale>
<asrwt>0</asrwt>
<pdfrwt beam="1">  1        1 0.29710308E+00 0.10887136E+04</pdfrwt>
<pdfrwt beam="2">  1       -1 0.23606598E-01 0.10887136E+04</pdfrwt>
<totfact> 0.51261032E+01</totfact>
</mgrwt>
</event>
<event>
12    1  0.1397649E-007  0.1516997E+04  0.7818608E-02  0.8873228E-01
         -2   -1    0    0    0  501 -0.00000000000E+00  0.00000000000E+00  0.73077880156E+03  0.73077880156E+03  0.00000000000E+00 0.  1.
          2   -1    0    0  501    0  0.00000000000E+00 -0.00000000000E+00 -0.78726927292E+03  0.78726927292E+03  0.00000000000E+00 0. -1.
         23    2    1    2    0    0 -0.44845322980E+03 -0.60613396834E+02 -0.20254325075E+03  0.50436201110E+03  0.92590424054E+02 0.  0.
        254    2    1    2    0    0  0.44845322980E+03  0.60613396834E+02  0.14605277939E+03  0.10136860634E+04  0.89523390102E+03 0.  0.
        -24    2    4    4    0    0  0.21046751008E+03  0.38377205144E+03 -0.19017621618E+03  0.48392938391E+03  0.80268892747E+02 0.  0.
         24    2    4    4    0    0  0.23798571971E+03 -0.32315865460E+03  0.33622899557E+03  0.52975667947E+03  0.80768082520E+02 0.  0.
         13    1    3    3    0    0 -0.18123208770E+03 -0.45778037547E+02 -0.39741416590E+02  0.19110227243E+03  0.00000000000E+00 0.  1.
        -13    1    3    3    0    0 -0.26722114209E+03 -0.14835359288E+02 -0.16280183416E+03  0.31325973867E+03  0.00000000000E+00 0. -1.
          2    1    6    6  502    0  0.22373990398E+03 -0.32314557953E+03  0.33301684396E+03  0.51515320883E+03  0.00000000000E+00 0. -1.
          3    1    5    5  503    0  0.21291283790E+03  0.35792264187E+03 -0.16560119790E+03  0.44817881571E+03  0.00000000000E+00 0. -1.
         -4    1    5    5    0  503 -0.24453278117E+01  0.25849409567E+02 -0.24575018279E+02  0.35750568198E+02  0.00000000000E+00 0.  1.
         -1    1    6    6    0  502  0.14245815734E+02 -0.13075066806E-01  0.32121516076E+01  0.14603470644E+02  0.00000000000E+00 0.  1.
<mgrwt>
<rscale>  0 0.15169966E+04</rscale>
<asrwt>0</asrwt>
<pdfrwt beam="1">  1        2 0.12111835E+00 0.15169966E+04</pdfrwt>
<pdfrwt beam="2">  1       -2 0.11242751E+00 0.15169966E+04</pdfrwt>
<totfact> 0.21158572E+01</totfact>
</mgrwt>
</event>
<event>
12    1  0.1397649E-007  0.1868224E+04  0.7818608E-02  0.8670837E-01
         -2   -1    0    0    0  501 -0.00000000000E+00  0.00000000000E+00  0.85247736072E+03  0.85247736072E+03  0.00000000000E+00 0.  1.
          2   -1    0    0  501    0  0.00000000000E+00 -0.00000000000E+00 -0.10235643173E+04  0.10235643173E+04  0.00000000000E+00 0. -1.
         23    2    1    2    0    0 -0.35198065447E+03 -0.30078086506E+03 -0.60999513344E+03  0.77117391459E+03  0.90860518509E+02 0.  0.
        254    2    1    2    0    0  0.35198065447E+03  0.30078086506E+03  0.43890817683E+03  0.11048677635E+04  0.90207143681E+03 0.  0.
        -24    2    4    4    0    0 -0.24853592992E+03  0.39114759980E+02  0.35191793254E+03  0.43960950824E+03  0.78167867941E+02 0.  0.
         24    2    4    4    0    0  0.60051658439E+03  0.26166610508E+03  0.86990244289E+02  0.66525825521E+03  0.76889042509E+02 0.  0.
         13    1    3    3    0    0 -0.13377851017E+03 -0.16220830810E+03 -0.31777042337E+03  0.38103315731E+03  0.00000000000E+00 0. -1.
        -13    1    3    3    0    0 -0.21820214430E+03 -0.13857255696E+03 -0.29222471006E+03  0.39014075728E+03  0.00000000000E+00 0.  1.
          4    1    6    6  502    0  0.32028280157E+03  0.13447059330E+03  0.76697375326E+01  0.34745105889E+03  0.00000000000E+00 0. -1.
          1    1    5    5  503    0 -0.22096621283E+03  0.47365275204E+02  0.34045919110E+03  0.40863430755E+03  0.00000000000E+00 0. -1.
         -2    1    5    5    0  503 -0.27569717090E+02 -0.82505152235E+01  0.11458741446E+02  0.30975200684E+02  0.00000000000E+00 0.  1.
         -3    1    6    6    0  502  0.28023378281E+03  0.12719551178E+03  0.79320506756E+02  0.31780719633E+03  0.00000000000E+00 0.  1.
<mgrwt>
<rscale>  0 0.18682242E+04</rscale>
<asrwt>0</asrwt>
<pdfrwt beam="1">  1        2 0.15747143E+00 0.18682242E+04</pdfrwt>
<pdfrwt beam="2">  1       -2 0.13115036E+00 0.18682242E+04</pdfrwt>
<totfact> 0.97016769E+00</totfact>
</mgrwt>
</event>
<event>
12    1  0.1634754E-007  0.1846887E+04  0.7818608E-02  0.8681755E-01
          1   -1    0    0  501    0  0.00000000000E+00  0.00000000000E+00  0.75182793984E+03  0.75182793984E+03  0.00000000000E+00 0. -1.
         -1   -1    0    0    0  501 -0.00000000000E+00 -0.00000000000E+00 -0.11342328156E+04  0.11342328156E+04  0.00000000000E+00 0.  1.
         23    2    1    2    0    0 -0.63578636057E+03  0.25471193675E+03 -0.28950190276E+03  0.74950968168E+03  0.94079456995E+02 0.  0.
        254    2    1    2    0    0  0.63578636057E+03 -0.25471193675E+03 -0.92902972968E+02  0.11365510737E+04  0.90222775050E+03 0.  0.
        -24    2    4    4    0    0  0.59878599266E+03  0.15748059935E+03  0.16050652073E+03  0.64463245905E+03  0.80273656288E+02 0.  0.
         24    2    4    4    0    0  0.37000367910E+02 -0.41219253610E+03 -0.25340949370E+03  0.49191861466E+03  0.80596761172E+02 0.  0.
         11    1    3    3    0    0 -0.50617063083E+02  0.40174454727E+02 -0.50438638648E+02  0.81976399997E+02  0.00000000000E+00 0. -1.
        -11    1    3    3    0    0 -0.58516929748E+03  0.21453748202E+03 -0.23906326411E+03  0.66753328169E+03  0.00000000000E+00 0.  1.
          4    1    6    6  502    0  0.11176879121E+02 -0.77191218004E+02 -0.87425887663E+02  0.11716096875E+03  0.00000000000E+00 0. -1.
          1    1    5    5  503    0  0.16039662701E+03  0.30998026491E+02  0.77728689987E+02  0.18091352866E+03  0.00000000000E+00 0. -1.
         -2    1    5    5    0  503  0.43838936564E+03  0.12648257286E+03  0.82777830748E+02  0.46371893040E+03  0.00000000000E+00 0.  1.
         -3    1    6    6    0  502  0.25823488789E+02 -0.33500131810E+03 -0.16598360604E+03  0.37475764592E+03  0.00000000000E+00 0.  1.
<mgrwt>
<rscale>  0 0.18468870E+04</rscale>
<asrwt>0</asrwt>
<pdfrwt beam="1">  1        1 0.11566584E+00 0.18468870E+04</pdfrwt>
<pdfrwt beam="2">  1       -1 0.17449735E+00 0.18468870E+04</pdfrwt>
<totfact> 0.52304884E+00</totfact>
</mgrwt>
</event>
<event>
12    1  0.1397649E-007  0.2935280E+04  0.7818608E-02  0.8262457E-01
          2   -1    0    0  501    0  0.00000000000E+00  0.00000000000E+00  0.11802554453E+04  0.11802554453E+04  0.00000000000E+00 0. -1.
         -2   -1    0    0    0  501 -0.00000000000E+00 -0.00000000000E+00 -0.18250004084E+04  0.18250004084E+04  0.00000000000E+00 0.  1.
         23    2    1    2    0    0 -0.52844064104E+03  0.10499123283E+04 -0.92330558568E+03  0.14976235302E+04  0.93902212045E+02 0.  0.
        254    2    1    2    0    0  0.52844064104E+03 -0.10499123283E+04  0.27856062254E+03  0.15076323235E+04  0.90210520137E+03 0.  0.
        -24    2    4    4    0    0 -0.49914336158E+02 -0.35405597979E+03  0.45323952863E+03  0.58279776808E+03  0.79875467962E+02 0.  0.
         24    2    4    4    0    0  0.57835497719E+03 -0.69585634846E+03 -0.17467890609E+03  0.92483455543E+03  0.78074946990E+02 0.  0.
         13    1    3    3    0    0 -0.15661580077E+02  0.76813257092E+01 -0.10834209284E+02  0.20534554925E+02  0.00000000000E+00 0. -1.
        -13    1    3    3    0    0 -0.51277906096E+03  0.10422310025E+04 -0.91247137639E+03  0.14770889752E+04  0.00000000000E+00 0.  1.
          4    1    6    6  502    0  0.17904211262E+03 -0.24415284342E+03 -0.26036289355E+02  0.30388250592E+03  0.00000000000E+00 0. -1.
          1    1    5    5  503    0 -0.35271237250E+02 -0.61974216551E+02  0.63107684565E+02  0.95223125057E+02  0.00000000000E+00 0. -1.
         -2    1    5    5    0  503 -0.14643098908E+02 -0.29208176324E+03  0.39013184406E+03  0.48757464302E+03  0.00000000000E+00 0.  1.
         -3    1    6    6    0  502  0.39931286457E+03 -0.45170350504E+03 -0.14864261673E+03  0.62095204951E+03  0.00000000000E+00 0.  1.
<mgrwt>
<rscale>  0 0.29352797E+04</rscale>
<asrwt>0</asrwt>
<pdfrwt beam="1">  1        2 0.18157776E+00 0.29352797E+04</pdfrwt>
<pdfrwt beam="2">  1       -2 0.28076929E+00 0.29352797E+04</pdfrwt>
<totfact> 0.69781694E-01</totfact>
</mgrwt>
</event>
<event>
12    1  0.1397649E-007  0.3189365E+04  0.7818608E-02  0.8191631E-01
         -2   -1    0    0    0  501 -0.00000000000E+00  0.00000000000E+00  0.12282955152E+04  0.12282955152E+04  0.00000000000E+00 0. -1.
          2   -1    0    0  501    0  0.00000000000E+00 -0.00000000000E+00 -0.20703586922E+04  0.20703586922E+04  0.00000000000E+00 0.  1.
         23    2    1    2    0    0 -0.28506981118E+02  0.63196559277E+03  0.97701292505E+03  0.11674237896E+04  0.90171449710E+02 0.  0.
        254    2    1    2    0    0  0.28506981118E+02 -0.63196559277E+03 -0.18190761020E+04  0.21312304178E+04  0.91264016493E+03 0.  0.
        -24    2    4    4    0    0 -0.13101103511E+03 -0.31089387799E+02  0.46424386803E+02  0.16318758893E+03  0.79652521216E+02 0.  0.
         24    2    4    4    0    0  0.15951801623E+03 -0.60087620498E+03 -0.18655004888E+04  0.19680428289E+04  0.81254486116E+02 0.  0.
         13    1    3    3    0    0 -0.46576005442E+02  0.26428799435E+03  0.36138476910E+03  0.45012933650E+03  0.00000000000E+00 0. -1.
        -13    1    3    3    0    0  0.18069024324E+02  0.36767759843E+03  0.61562815596E+03  0.71729445309E+03  0.00000000000E+00 0.  1.
          4    1    6    6  502    0  0.49242123972E+02 -0.21623635098E+03 -0.54982697053E+03  0.59286815042E+03  0.00000000000E+00 0. -1.
          3    1    5    5  503    0 -0.94327250218E+02  0.73760591800E+01  0.54859322119E+02  0.10936901575E+03  0.00000000000E+00 0. -1.
         -4    1    5    5    0  503 -0.36683784892E+02 -0.38465446979E+02 -0.84349353159E+01  0.53818573179E+02  0.00000000000E+00 0.  1.
         -1    1    6    6    0  502  0.11027589226E+03 -0.38463985400E+03 -0.13156735182E+04  0.13751746785E+04  0.00000000000E+00 0.  1.
<mgrwt>
<rscale>  0 0.31893650E+04</rscale>
<asrwt>0</asrwt>
<pdfrwt beam="1">  1        2 0.31851672E+00 0.31893650E+04</pdfrwt>
<pdfrwt beam="2">  1       -2 0.18896854E+00 0.31893650E+04</pdfrwt>
<totfact> 0.81031719E-01</totfact>
</mgrwt>
</event>
<event>
12    1  0.1397649E-007  0.1700777E+04  0.7818608E-02  0.8760921E-01
          1   -1    0    0  501    0  0.00000000000E+00  0.00000000000E+00  0.61044545649E+03  0.61044545649E+03  0.00000000000E+00 0. -1.
         -1   -1    0    0    0  501 -0.00000000000E+00 -0.00000000000E+00 -0.11846444406E+04  0.11846444406E+04  0.00000000000E+00 0.  1.
         23    2    1    2    0    0 -0.59395913351E+01 -0.23376873040E+03 -0.79798575748E+03  0.83748749599E+03  0.99603909250E+02 0.  0.
        254    2    1    2    0    0  0.59395913351E+01  0.23376873040E+03  0.22378677336E+03  0.95760240110E+03  0.90124288657E+03 0.  0.
        -24    2    4    4    0    0  0.14309894951E+03 -0.28379143790E+03 -0.78759958898E+02  0.33698845597E+03  0.79644201014E+02 0.  0.
         24    2    4    4    0    0 -0.13715935817E+03  0.51756016830E+03  0.30254673226E+03  0.62061394513E+03  0.83342224262E+02 0.  0.
         11    1    3    3    0    0  0.37692899107E+02 -0.17777489069E+03 -0.61216713224E+03  0.63857126791E+03  0.00000000000E+00 0.  1.
        -11    1    3    3    0    0 -0.43632490442E+02 -0.55993839713E+02 -0.18581862524E+03  0.19891622809E+03  0.00000000000E+00 0. -1.
          4    1    6    6  502    0 -0.57603346105E+02  0.92175209416E+02  0.70655888942E+02  0.12964053901E+03  0.00000000000E+00 0. -1.
          3    1    5    5  503    0  0.17953410886E+01 -0.14672514182E+02  0.12783148885E+02  0.19542641005E+02  0.00000000000E+00 0. -1.
         -4    1    5    5    0  503  0.14130360842E+03 -0.26911892371E+03 -0.91543107783E+02  0.31744581496E+03  0.00000000000E+00 0.  1.
         -3    1    6    6    0  502 -0.79556012070E+02  0.42538495888E+03  0.23189084332E+03  0.49097340612E+03  0.00000000000E+00 0.  1.
<mgrwt>
<rscale>  0 0.17007773E+04</rscale>
<asrwt>0</asrwt>
<pdfrwt beam="1">  1        1 0.93914687E-01 0.17007773E+04</pdfrwt>
<pdfrwt beam="2">  1       -1 0.18225299E+00 0.17007773E+04</pdfrwt>
<totfact> 0.63719009E+00</totfact>
</mgrwt>
</event>
<event>
12    1  0.1397649E-007  0.1324012E+04  0.7818608E-02  0.9010737E-01
          2   -1    0    0  501    0  0.00000000000E+00  0.00000000000E+00  0.73632041328E+03  0.73632041328E+03  0.00000000000E+00 0.  1.
         -2   -1    0    0    0  501 -0.00000000000E+00 -0.00000000000E+00 -0.59519212819E+03  0.59519212819E+03  0.00000000000E+00 0. -1.
         23    2    1    2    0    0 -0.58955294324E+02  0.22639568452E+02  0.38089567443E+03  0.39712094828E+03  0.92926078001E+02 0.  0.
        254    2    1    2    0    0  0.58955294324E+02 -0.22639568452E+02 -0.23976738935E+03  0.93439159319E+03  0.90089453969E+03 0.  0.
        -24    2    4    4    0    0  0.43169328929E+03 -0.86526011104E+02 -0.30723160338E+03  0.54277069876E+03  0.79767955363E+02 0.  0.
         24    2    4    4    0    0 -0.37273799497E+03  0.63886442652E+02  0.67464214033E+02  0.39162089442E+03  0.76160451194E+02 0.  0.
         13    1    3    3    0    0  0.93740568614E+01 -0.84841929197E+01  0.46733527218E+01  0.13479417539E+02  0.00000000000E+00 0. -1.
        -13    1    3    3    0    0 -0.68329351185E+02  0.31123761372E+02  0.37622232171E+03  0.38364153074E+03  0.00000000000E+00 0.  1.
          2    1    6    6  502    0 -0.35943804257E+03  0.52021070580E+02  0.77220908231E+02  0.37130171949E+03  0.00000000000E+00 0. -1.
          3    1    5    5  503    0  0.40041597549E+03 -0.77285123473E+02 -0.25429935180E+03  0.48059765299E+03  0.00000000000E+00 0. -1.
         -4    1    5    5    0  503  0.31277313806E+02 -0.92408876311E+01 -0.52932251581E+02  0.62173045772E+02  0.00000000000E+00 0.  1.
         -1    1    6    6    0  502 -0.13299952403E+02  0.11865372072E+02 -0.97566941984E+01  0.20319174934E+02  0.00000000000E+00 0.  1.
<mgrwt>
<rscale>  0 0.13240123E+04</rscale>
<asrwt>0</asrwt>
<pdfrwt beam="1">  1        2 0.11328006E+00 0.13240123E+04</pdfrwt>
<pdfrwt beam="2">  1       -2 0.91568020E-01 0.13240123E+04</pdfrwt>
<totfact> 0.38173359E+01</totfact>
</mgrwt>
</event>
<event>
12    1  0.1397649E-007  0.1408934E+04  0.7818608E-02  0.8947377E-01
          2   -1    0    0  501    0  0.00000000000E+00  0.00000000000E+00  0.12621353448E+04  0.12621353448E+04  0.00000000000E+00 0. -1.
         -2   -1    0    0    0  501 -0.00000000000E+00 -0.00000000000E+00 -0.39320184311E+03  0.39320184311E+03  0.00000000000E+00 0.  1.
         23    2    1    2    0    0 -0.34356760179E+03  0.88112612447E+02  0.18249825929E+02  0.36674460118E+03  0.91465932872E+02 0.  0.
        254    2    1    2    0    0  0.34356760179E+03 -0.88112612447E+02  0.85068367579E+03  0.12885925868E+04  0.90055849833E+03 0.  0.
        -24    2    4    4    0    0  0.45067693241E+03 -0.35822895135E+03  0.79026473986E+03  0.98126782781E+03  0.83249695672E+02 0.  0.
         24    2    4    4    0    0 -0.10710933062E+03  0.27011633890E+03  0.60418935930E+02  0.30732475895E+03  0.79767251382E+02 0.  0.
         13    1    3    3    0    0 -0.50388932224E+02  0.20551227586E+02 -0.29839843212E+02  0.62062981631E+02  0.00000000000E+00 0. -1.
        -13    1    3    3    0    0 -0.29317866957E+03  0.67561384861E+02  0.48089669141E+02  0.30468161955E+03  0.00000000000E+00 0.  1.
          4    1    6    6  502    0 -0.33165546815E+02  0.15215068209E+03  0.63231493530E+02  0.16807142925E+03  0.00000000000E+00 0. -1.
          3    1    5    5  503    0  0.37345246715E+00 -0.14002671935E+02  0.11784051250E+02  0.18305140041E+02  0.00000000000E+00 0. -1.
         -4    1    5    5    0  503  0.45030347995E+03 -0.34422627942E+03  0.77848068861E+03  0.96296268776E+03  0.00000000000E+00 0.  1.
         -3    1    6    6    0  502 -0.73943783807E+02  0.11796565682E+03 -0.28125575996E+01  0.13925332970E+03  0.00000000000E+00 0.  1.
<mgrwt>
<rscale>  0 0.14089343E+04</rscale>
<asrwt>0</asrwt>
<pdfrwt beam="1">  1        2 0.19417467E+00 0.14089343E+04</pdfrwt>
<pdfrwt beam="2">  1       -2 0.60492592E-01 0.14089343E+04</pdfrwt>
<totfact> 0.43075715E+01</totfact>
</mgrwt>
</event>
<event>
12    1  0.1397649E-007  0.1540137E+04  0.7818608E-02  0.8858192E-01
         -2   -1    0    0    0  501 -0.00000000000E+00  0.00000000000E+00  0.71140315928E+03  0.71140315928E+03  0.00000000000E+00 0.  1.
          2   -1    0    0  501    0  0.00000000000E+00 -0.00000000000E+00 -0.83357190019E+03  0.83357190019E+03  0.00000000000E+00 0. -1.
         23    2    1    2    0    0  0.26305205914E+02  0.38758910743E+03  0.26387318222E+03  0.47824384917E+03  0.90392714966E+02 0.  0.
        254    2    1    2    0    0 -0.26305205914E+02 -0.38758910743E+03 -0.38604192312E+03  0.10667312103E+04  0.91540691966E+03 0.  0.
        -24    2    4    4    0    0 -0.44066025911E+03 -0.35467299083E+03 -0.22363851829E+03  0.61352350251E+03  0.80140544536E+02 0.  0.
         24    2    4    4    0    0  0.41435505319E+03 -0.32916116594E+02 -0.16240340483E+03  0.45320770779E+03  0.79049223032E+02 0.  0.
         13    1    3    3    0    0  0.43023281572E+02  0.18855208135E+03  0.89514931651E+02  0.21310986164E+03  0.00000000000E+00 0. -1.
        -13    1    3    3    0    0 -0.16718075658E+02  0.19903702608E+03  0.17435825057E+03  0.26513398753E+03  0.00000000000E+00 0.  1.
          2    1    6    6  502    0  0.20464401791E+03  0.18242676753E+02 -0.10005148276E+03  0.22852192132E+03  0.00000000000E+00 0. -1.
          3    1    5    5  503    0 -0.30344685293E+03 -0.28614535212E+03 -0.17822613000E+03  0.45356775515E+03  0.00000000000E+00 0. -1.
         -4    1    5    5    0  503 -0.13721340618E+03 -0.68527638711E+02 -0.45412388291E+02  0.15995574736E+03  0.00000000000E+00 0.  1.
         -1    1    6    6    0  502  0.20971103528E+03 -0.51158793347E+02 -0.62351922075E+02  0.22468578647E+03  0.00000000000E+00 0.  1.
<mgrwt>
<rscale>  0 0.15401372E+04</rscale>
<asrwt>0</asrwt>
<pdfrwt beam="1">  1        2 0.12824183E+00 0.15401372E+04</pdfrwt>
<pdfrwt beam="2">  1       -2 0.10944664E+00 0.15401372E+04</pdfrwt>
<totfact> 0.20884409E+01</totfact>
</mgrwt>
</event>
<event>
12    1  0.1397649E-007  0.2041952E+04  0.7818608E-02  0.8587254E-01
         -2   -1    0    0    0  501 -0.00000000000E+00  0.00000000000E+00  0.35806977147E+03  0.35806977147E+03  0.00000000000E+00 0. -1.
          2   -1    0    0  501    0  0.00000000000E+00 -0.00000000000E+00 -0.29111410548E+04  0.29111410548E+04  0.00000000000E+00 0.  1.
         23    2    1    2    0    0 -0.67839186551E+03 -0.12152630499E+02 -0.17974340000E+04  0.19233252719E+04  0.89710130016E+02 0.  0.
        254    2    1    2    0    0  0.67839186551E+03  0.12152630499E+02 -0.75563728337E+03  0.13458855544E+04  0.88320836274E+03 0.  0.
        -24    2    4    4    0    0 -0.13291143363E+03 -0.17013411279E+03 -0.17747653594E+02  0.23131943580E+03  0.81133449601E+02 0.  0.
         24    2    4    4    0    0  0.81130329914E+03  0.18228674329E+03 -0.73788962978E+03  0.11145661187E+04  0.79592883675E+02 0.  0.
         11    1    3    3    0    0 -0.54276065096E+02 -0.12335025739E+02 -0.95120681889E+02  0.11020883914E+03  0.00000000000E+00 0. -1.
        -11    1    3    3    0    0 -0.62411580042E+03  0.18239523938E+00 -0.17023133181E+04  0.18131164327E+04  0.00000000000E+00 0.  1.
          2    1    6    6  502    0  0.52484638261E+03  0.15223765411E+03 -0.50648580465E+03  0.74509589918E+03  0.00000000000E+00 0. -1.
          1    1    5    5  503    0 -0.78832536571E+02 -0.12680459753E+03  0.22783969905E+02  0.15104000815E+03  0.00000000000E+00 0. -1.
         -2    1    5    5    0  503 -0.54078897056E+02 -0.43329515260E+02 -0.40531623499E+02  0.80279427645E+02  0.00000000000E+00 0.  1.
         -1    1    6    6    0  502  0.28645691653E+03  0.30049089183E+02 -0.23140382513E+03  0.36947021947E+03  0.00000000000E+00 0.  1.
<mgrwt>
<rscale>  0 0.20419516E+04</rscale>
<asrwt>0</asrwt>
<pdfrwt beam="1">  1        2 0.44786784E+00 0.20419516E+04</pdfrwt>
<pdfrwt beam="2">  1       -2 0.55087659E-01 0.20419516E+04</pdfrwt>
<totfact> 0.56836511E+00</totfact>
</mgrwt>
</event>
<event>
12    1  0.1397649E-007  0.1814039E+04  0.7818608E-02  0.8698869E-01
         -1   -1    0    0    0  501 -0.00000000000E+00  0.00000000000E+00  0.41935979894E+03  0.41935979894E+03  0.00000000000E+00 0.  1.
          1   -1    0    0  501    0  0.00000000000E+00 -0.00000000000E+00 -0.19617617885E+04  0.19617617885E+04  0.00000000000E+00 0. -1.
         23    2    1    2    0    0 -0.23046828769E+03 -0.18093845670E+02  0.25164664896E+03  0.35368298464E+03  0.91228278559E+02 0.  0.
        254    2    1    2    0    0  0.23046828769E+03  0.18093845670E+02 -0.17940486386E+04  0.20274386028E+04  0.91567120295E+03 0.  0.
        -24    2    4    4    0    0  0.38212770713E+03  0.26304669321E+03 -0.45241953359E+03  0.65272874607E+03  0.78461673514E+02 0.  0.
         24    2    4    4    0    0 -0.15165941944E+03 -0.24495284754E+03 -0.13416291050E+04  0.13747098568E+04  0.82801316367E+02 0.  0.
         13    1    3    3    0    0 -0.22308467931E+03 -0.27265716834E+02  0.20044573794E+03  0.30114562476E+03  0.00000000000E+00 0.  1.
        -13    1    3    3    0    0 -0.73836083817E+01  0.91718711638E+01  0.51200911020E+02  0.52537359875E+02  0.00000000000E+00 0. -1.
          4    1    6    6  502    0 -0.28610048048E+02 -0.18378815751E+02 -0.78721330401E+02  0.85751755538E+02  0.00000000000E+00 0. -1.
          3    1    5    5  503    0  0.86319583993E+02  0.44906769447E+02 -0.13914717652E+03  0.16979288930E+03  0.00000000000E+00 0. -1.
         -4    1    5    5    0  503  0.29580812314E+03  0.21813992376E+03 -0.31327235706E+03  0.48293585677E+03  0.00000000000E+00 0.  1.
         -3    1    6    6    0  502 -0.12304937139E+03 -0.22657403179E+03 -0.12629077746E+04  0.12889581012E+04  0.00000000000E+00 0.  1.
<mgrwt>
<rscale>  0 0.18140386E+04</rscale>
<asrwt>0</asrwt>
<pdfrwt beam="1">  1        1 0.30180950E+00 0.18140386E+04</pdfrwt>
<pdfrwt beam="2">  1       -1 0.64516894E-01 0.18140386E+04</pdfrwt>
<totfact> 0.72637536E+00</totfact>
</mgrwt>
</event>
<event>
12    1  0.1397649E-007  0.2471219E+04  0.7818608E-02  0.8413311E-01
          1   -1    0    0  501    0  0.00000000000E+00  0.00000000000E+00  0.15219604262E+04  0.15219604262E+04  0.00000000000E+00 0. -1.
         -1   -1    0    0    0  501 -0.00000000000E+00 -0.00000000000E+00 -0.10031341113E+04  0.10031341113E+04  0.00000000000E+00 0.  1.
         23    2    1    2    0    0  0.85383145805E+03  0.62245723801E+03  0.39533745970E+03  0.11320472682E+04  0.93584926459E+02 0.  0.
        254    2    1    2    0    0 -0.85383145805E+03 -0.62245723801E+03  0.12348885510E+03  0.13930472693E+04  0.89936089825E+03 0.  0.
        -24    2    4    4    0    0 -0.37681787497E+03 -0.18217741158E+03 -0.37718672974E+03  0.56916354962E+03  0.80603951100E+02 0.  0.
         24    2    4    4    0    0 -0.47701358307E+03 -0.44027982642E+03  0.50067558484E+03  0.82388371969E+03  0.81975961917E+02 0.  0.
         13    1    3    3    0    0  0.25342080125E+02  0.41365700359E+02  0.23840160458E+02  0.54052709848E+02  0.00000000000E+00 0. -1.
        -13    1    3    3    0    0  0.82848937792E+03  0.58109153765E+03  0.37149729925E+03  0.10779945583E+04  0.00000000000E+00 0.  1.
          2    1    6    6  502    0 -0.31671863006E+02 -0.63120368208E+02  0.58296256759E+02  0.91573693499E+02  0.00000000000E+00 0. -1.
          1    1    5    5  503    0 -0.15805986769E+03 -0.10271410441E+03 -0.12606139934E+03  0.22676989532E+03  0.00000000000E+00 0. -1.
         -2    1    5    5    0  503 -0.21875800728E+03 -0.79463307175E+02 -0.25112533040E+03  0.34239365430E+03  0.00000000000E+00 0.  1.
         -1    1    6    6    0  502 -0.44534172007E+03 -0.37715945822E+03  0.44237932808E+03  0.73231002620E+03  0.00000000000E+00 0.  1.
<mgrwt>
<rscale>  0 0.24712187E+04</rscale>
<asrwt>0</asrwt>
<pdfrwt beam="1">  1        1 0.23414776E+00 0.24712187E+04</pdfrwt>
<pdfrwt beam="2">  1       -1 0.15432833E+00 0.24712187E+04</pdfrwt>
<totfact> 0.18167889E+00</totfact>
</mgrwt>
</event>
<event>
12    1  0.1397649E-007  0.1262644E+04  0.7818608E-02  0.9059725E-01
          1   -1    0    0  501    0  0.00000000000E+00  0.00000000000E+00  0.11020105805E+04  0.11020105805E+04  0.00000000000E+00 0. -1.
         -1   -1    0    0    0  501 -0.00000000000E+00 -0.00000000000E+00 -0.36167307742E+03  0.36167307742E+03  0.00000000000E+00 0.  1.
         23    2    1    2    0    0  0.18747186079E+03 -0.24624436743E+03  0.46706506359E+03  0.56759451922E+03  0.90729143870E+02 0.  0.
        254    2    1    2    0    0 -0.18747186079E+03  0.24624436743E+03  0.27327243950E+03  0.89608913872E+03  0.79530870186E+03 0.  0.
        -24    2    4    4    0    0 -0.37160015937E+03 -0.12846026346E+03  0.24533275229E+03  0.47021283606E+03  0.79518765850E+02 0.  0.
         24    2    4    4    0    0  0.18412829858E+03  0.37470463088E+03  0.27939687216E+02  0.42587630266E+03  0.79266690974E+02 0.  0.
         13    1    3    3    0    0  0.10183478143E+03 -0.92263202091E+02  0.14048320477E+03  0.19651552608E+03  0.00000000000E+00 0.  1.
        -13    1    3    3    0    0  0.85637079356E+02 -0.15398116534E+03  0.32658185882E+03  0.37107899314E+03  0.00000000000E+00 0. -1.
          2    1    6    6  502    0  0.14664297565E+03  0.22093001231E+03  0.96006548714E-01  0.26516832742E+03  0.00000000000E+00 0. -1.
          1    1    5    5  503    0 -0.36263171800E+03 -0.10926975519E+03  0.23997408892E+03  0.44836280583E+03  0.00000000000E+00 0. -1.
         -2    1    5    5    0  503 -0.89684413690E+01 -0.19190508266E+02  0.53586633714E+01  0.21850030234E+02  0.00000000000E+00 0.  1.
         -1    1    6    6    0  502  0.37485322927E+02  0.15377461857E+03  0.27843680667E+02  0.16070797523E+03  0.00000000000E+00 0.  1.
<mgrwt>
<rscale>  0 0.12626441E+04</rscale>
<asrwt>0</asrwt>
<pdfrwt beam="1">  1        1 0.16954009E+00 0.12626441E+04</pdfrwt>
<pdfrwt beam="2">  1       -1 0.55642013E-01 0.12626441E+04</pdfrwt>
<totfact> 0.40656444E+01</totfact>
</mgrwt>
</event>
<event>
12    1  0.1397649E-007  0.1101560E+04  0.7818608E-02  0.9203673E-01
         -2   -1    0    0    0  501 -0.00000000000E+00  0.00000000000E+00  0.21447124822E+03  0.21447124822E+03  0.00000000000E+00 0.  1.
          2   -1    0    0  501    0  0.00000000000E+00 -0.00000000000E+00 -0.14144478815E+04  0.14144478815E+04  0.00000000000E+00 0. -1.
         23    2    1    2    0    0 -0.13755615053E+03 -0.33351973005E+02 -0.18512976076E+03  0.25336584760E+03  0.99434278593E+02 0.  0.
        254    2    1    2    0    0  0.13755615053E+03  0.33351973005E+02 -0.10148468725E+04  0.13755532821E+04  0.91771379453E+03 0.  0.
        -24    2    4    4    0    0 -0.28172161307E+03  0.93870490499E+02 -0.38654371995E+02  0.30841535011E+03  0.73804684481E+02 0.  0.
         24    2    4    4    0    0  0.41927776360E+03 -0.60518517494E+02 -0.97619250053E+03  0.10671379320E+04  0.79845061656E+02 0.  0.
         11    1    3    3    0    0 -0.35865374775E+02  0.62421961979E+01  0.23052052604E+01  0.36477446353E+02  0.00000000000E+00 0.  1.
        -11    1    3    3    0    0 -0.10169077575E+03 -0.39594169203E+02 -0.18743496602E+03  0.21688840125E+03  0.00000000000E+00 0. -1.
          2    1    6    6  502    0  0.15443180860E+02 -0.18978390540E+02 -0.43167893231E+02  0.49619937007E+02  0.00000000000E+00 0. -1.
          3    1    5    5  503    0 -0.56001196045E+02  0.10751167578E+02 -0.36805554813E+02  0.67870247000E+02  0.00000000000E+00 0. -1.
         -4    1    5    5    0  503 -0.22572041702E+03  0.83119322921E+02 -0.18488171816E+01  0.24054510311E+03  0.00000000000E+00 0.  1.
         -1    1    6    6    0  502  0.40383458274E+03 -0.41540126954E+02 -0.93302460730E+03  0.10175179950E+04  0.00000000000E+00 0.  1.
<mgrwt>
<rscale>  0 0.11015596E+04</rscale>
<asrwt>0</asrwt>
<pdfrwt beam="1">  1        2 0.21760738E+00 0.11015596E+04</pdfrwt>
<pdfrwt beam="2">  1       -2 0.32995575E-01 0.11015596E+04</pdfrwt>
<totfact> 0.12071895E+02</totfact>
</mgrwt>
</event>
<event>
12    1  0.1397649E-007  0.1767448E+04  0.7818608E-02  0.8723804E-01
          2   -1    0    0  501    0  0.00000000000E+00  0.00000000000E+00  0.17295423544E+04  0.17295423544E+04  0.00000000000E+00 0. -1.
         -2   -1    0    0    0  501 -0.00000000000E+00 -0.00000000000E+00 -0.45154618917E+03  0.45154618917E+03  0.00000000000E+00 0.  1.
         23    2    1    2    0    0 -0.60441138717E+03 -0.64094005798E+02  0.17667053566E+03  0.63708847038E+03  0.72443594538E+02 0.  0.
        254    2    1    2    0    0  0.60441138717E+03  0.64094005798E+02  0.11013256296E+04  0.15440000732E+04  0.89531944978E+03 0.  0.
        -24    2    4    4    0    0  0.58475366960E+03 -0.89069409563E+02  0.12026981706E+04  0.13426529166E+04  0.79773123345E+02 0.  0.
         24    2    4    4    0    0  0.19657717570E+02  0.15316341536E+03 -0.10137254101E+03  0.20134715656E+03  0.80117586827E+02 0.  0.
         13    1    3    3    0    0 -0.58101464612E+03 -0.49088666411E+02  0.15984520449E+03  0.60459755670E+03  0.00000000000E+00 0.  1.
        -13    1    3    3    0    0 -0.23396741054E+02 -0.15005339387E+02  0.16825331172E+02  0.32490913671E+02  0.00000000000E+00 0. -1.
          2    1    6    6  502    0 -0.28008637313E+02  0.42977474790E+02 -0.14985368159E+02  0.53442570694E+02  0.00000000000E+00 0. -1.
          3    1    5    5  503    0  0.23720782561E+03 -0.24104810620E+02  0.40241239000E+03  0.46774386799E+03  0.00000000000E+00 0. -1.
         -4    1    5    5    0  503  0.34754584400E+03 -0.64964598942E+02  0.80028578058E+03  0.87490904864E+03  0.00000000000E+00 0.  1.
         -1    1    6    6    0  502  0.47666354883E+02  0.11018594057E+03 -0.86387172847E+02  0.14790458586E+03  0.00000000000E+00 0.  1.
<mgrwt>
<rscale>  0 0.17674482E+04</rscale>
<asrwt>0</asrwt>
<pdfrwt beam="1">  1        2 0.26608344E+00 0.17674482E+04</pdfrwt>
<pdfrwt beam="2">  1       -2 0.69468645E-01 0.17674482E+04</pdfrwt>
<totfact> 0.16891413E+01</totfact>
</mgrwt>
</event>
<event>
12    1  0.1397649E-007  0.3088756E+04  0.7818608E-02  0.8218830E-01
          2   -1    0    0  501    0  0.00000000000E+00  0.00000000000E+00  0.24934705166E+04  0.24934705166E+04  0.00000000000E+00 0. -1.
         -2   -1    0    0    0  501 -0.00000000000E+00 -0.00000000000E+00 -0.95653978528E+03  0.95653978528E+03  0.00000000000E+00 0.  1.
         23    2    1    2    0    0 -0.11153416671E+03 -0.42947345092E+03  0.21999697719E+04  0.22463504671E+04  0.96623540222E+02 0.  0.
        254    2    1    2    0    0  0.11153416671E+03  0.42947345092E+03 -0.66303904058E+03  0.12036598348E+04  0.90127072130E+03 0.  0.
        -24    2    4    4    0    0 -0.11610314397E+03  0.17911074904E+03 -0.79857444451E+03  0.83054766681E+03  0.80794077477E+02 0.  0.
         24    2    4    4    0    0  0.22763731068E+03  0.25036270188E+03  0.13553540393E+03  0.37311216794E+03  0.79640545216E+02 0.  0.
         11    1    3    3    0    0 -0.60244144906E+01 -0.12057318170E+03  0.43458900377E+03  0.45104521714E+03  0.00000000000E+00 0.  1.
        -11    1    3    3    0    0 -0.10550975222E+03 -0.30890026923E+03  0.17653807681E+04  0.17953052499E+04  0.00000000000E+00 0. -1.
          4    1    6    6  502    0  0.15764872184E+03  0.13807247596E+03  0.11550851151E+03  0.23928924829E+03  0.00000000000E+00 0. -1.
          3    1    5    5  503    0 -0.10265525747E+03  0.15251258535E+03 -0.75933094652E+03  0.78126927299E+03  0.00000000000E+00 0. -1.
         -4    1    5    5    0  503 -0.13447886494E+02  0.26598163689E+02 -0.39243497996E+02  0.49278393822E+02  0.00000000000E+00 0.  1.
         -3    1    6    6    0  502  0.69988588837E+02  0.11229022592E+03  0.20026892427E+02  0.13382291965E+03  0.00000000000E+00 0.  1.
<mgrwt>
<rscale>  0 0.30887562E+04</rscale>
<asrwt>0</asrwt>
<pdfrwt beam="1">  1        2 0.38361085E+00 0.30887562E+04</pdfrwt>
<pdfrwt beam="2">  1       -2 0.14715997E+00 0.30887562E+04</pdfrwt>
<totfact> 0.94031206E-01</totfact>
</mgrwt>
</event>
<event>
12    1  0.1397649E-007  0.1730817E+04  0.7818608E-02  0.8743981E-01
          1   -1    0    0  501    0  0.00000000000E+00  0.00000000000E+00  0.18633481716E+04  0.18633481716E+04  0.00000000000E+00 0. -1.
         -1   -1    0    0    0  501 -0.00000000000E+00 -0.00000000000E+00 -0.40192790426E+03  0.40192790426E+03  0.00000000000E+00 0.  1.
         23    2    1    2    0    0  0.62050449601E+03  0.20121028724E+02  0.62449239966E+03  0.88578091802E+03  0.95845668327E+02 0.  0.
        254    2    1    2    0    0 -0.62050449601E+03 -0.20121028724E+02  0.83692786768E+03  0.13794951578E+04  0.90395129813E+03 0.  0.
        -24    2    4    4    0    0 -0.37070091558E+03 -0.10077541958E+03  0.98986431936E+03  0.10648083309E+04  0.80065952924E+02 0.  0.
         24    2    4    4    0    0 -0.24980358044E+03  0.80654390859E+02 -0.15293645168E+03  0.31468682692E+03  0.82044385655E+02 0.  0.
         11    1    3    3    0    0  0.62385751014E+03  0.21369876278E+02  0.61816375674E+03  0.87851083927E+03  0.00000000000E+00 0. -1.
        -11    1    3    3    0    0 -0.33530141239E+01 -0.12488475544E+01  0.63286429183E+01  0.72700787559E+01  0.00000000000E+00 0.  1.
          2    1    6    6  502    0 -0.24887554882E+03  0.75444226336E+02 -0.12923302114E+03  0.29039980000E+03  0.00000000000E+00 0. -1.
          1    1    5    5  503    0 -0.22487832131E+03 -0.23111812694E+02  0.53152939890E+03  0.57760532994E+03  0.00000000000E+00 0. -1.
         -2    1    5    5    0  503 -0.14582259427E+03 -0.77663606889E+02  0.45833492046E+03  0.48720300096E+03  0.00000000000E+00 0.  1.
         -1    1    6    6    0  502 -0.92803162040E+00  0.52101645237E+01 -0.23703430542E+02  0.24287026918E+02  0.00000000000E+00 0.  1.
<mgrwt>
<rscale>  0 0.17308167E+04</rscale>
<asrwt>0</asrwt>
<pdfrwt beam="1">  1        1 0.28666895E+00 0.17308167E+04</pdfrwt>
<pdfrwt beam="2">  1       -1 0.61835063E-01 0.17308167E+04</pdfrwt>
<totfact> 0.92901903E+00</totfact>
</mgrwt>
</event>
<event>
12    1  0.1397649E-007  0.1409369E+04  0.7818608E-02  0.8947065E-01
         -1   -1    0    0    0  501 -0.00000000000E+00  0.00000000000E+00  0.28176457372E+03  0.28176457372E+03  0.00000000000E+00 0.  1.
          1   -1    0    0  501    0  0.00000000000E+00 -0.00000000000E+00 -0.17623937169E+04  0.17623937169E+04  0.00000000000E+00 0. -1.
         23    2    1    2    0    0 -0.99409504848E+02  0.24742216535E+03 -0.89049162938E+03  0.93388885036E+03  0.89850238011E+02 0.  0.
        254    2    1    2    0    0  0.99409504848E+02 -0.24742216535E+03 -0.59013751378E+03  0.11102694402E+04  0.90185141082E+03 0.  0.
        -24    2    4    4    0    0  0.36174380349E+03 -0.15561419905E+03  0.52089103498E+02  0.40510521681E+03  0.79514801617E+02 0.  0.
         24    2    4    4    0    0 -0.26233429864E+03 -0.91807966301E+02 -0.64222661728E+03  0.70516422343E+03  0.86911260189E+02 0.  0.
         13    1    3    3    0    0 -0.64319958495E+02  0.19706483117E+03 -0.78433195135E+03  0.81126334482E+03  0.00000000000E+00 0. -1.
        -13    1    3    3    0    0 -0.35089546353E+02  0.50357334177E+02 -0.10615967803E+03  0.12262550554E+03  0.00000000000E+00 0.  1.
          4    1    6    6  502    0 -0.12529432800E+03 -0.89783012289E+02 -0.33697205619E+03  0.37055340313E+03  0.00000000000E+00 0. -1.
          1    1    5    5  503    0  0.15008721750E+03 -0.42010303425E+02  0.53804861433E+02  0.16488178057E+03  0.00000000000E+00 0. -1.
         -2    1    5    5    0  503  0.21165658598E+03 -0.11360389562E+03 -0.17157579344E+01  0.24022343623E+03  0.00000000000E+00 0.  1.
         -3    1    6    6    0  502 -0.13703997064E+03 -0.20249540126E+01 -0.30525456109E+03  0.33461082030E+03  0.00000000000E+00 0.  1.
<mgrwt>
<rscale>  0 0.14093688E+04</rscale>
<asrwt>0</asrwt>
<pdfrwt beam="1">  1        1 0.27113750E+00 0.14093688E+04</pdfrwt>
<pdfrwt beam="2">  1       -1 0.43348395E-01 0.14093688E+04</pdfrwt>
<totfact> 0.22114399E+01</totfact>
</mgrwt>
</event>
<event>
12    1  0.1397649E-007  0.2365514E+04  0.7818608E-02  0.8452529E-01
          1   -1    0    0  501    0  0.00000000000E+00  0.00000000000E+00  0.16425630924E+04  0.16425630924E+04  0.00000000000E+00 0. -1.
         -1   -1    0    0    0  501 -0.00000000000E+00 -0.00000000000E+00 -0.85166524784E+03  0.85166524784E+03  0.00000000000E+00 0.  1.
         23    2    1    2    0    0 -0.15428439245E+03 -0.87389672889E+03  0.84040033520E+03  0.12256877101E+04  0.92403857451E+02 0.  0.
        254    2    1    2    0    0  0.15428439245E+03  0.87389672889E+03 -0.49502490649E+02  0.12685406301E+04  0.90512190732E+03 0.  0.
        -24    2    4    4    0    0 -0.52766595490E+02 -0.63328864440E+02  0.23722999230E+03  0.26363067141E+03  0.80176074943E+02 0.  0.
         24    2    4    4    0    0  0.20705098794E+03  0.93722559333E+03 -0.28673248295E+03  0.10049099587E+04  0.79790875952E+02 0.  0.
         11    1    3    3    0    0 -0.16672697783E+03 -0.81377205225E+03  0.78784149951E+03  0.11448655233E+04  0.00000000000E+00 0. -1.
        -11    1    3    3    0    0  0.12442585381E+02 -0.60124676639E+02  0.52558835686E+02  0.80822186809E+02  0.00000000000E+00 0.  1.
          4    1    6    6  502    0  0.19202240185E+03  0.75521808710E+03 -0.21188866651E+03  0.80754180628E+03  0.00000000000E+00 0. -1.
          1    1    5    5  503    0 -0.60875060648E+02 -0.76405906849E+02  0.21882265589E+03  0.23963929215E+03  0.00000000000E+00 0. -1.
         -2    1    5    5    0  503  0.81084651577E+01  0.13077042410E+02  0.18407336404E+02  0.23991379262E+02  0.00000000000E+00 0.  1.
         -3    1    6    6    0  502  0.15028586084E+02  0.18200750623E+03 -0.74843816436E+02  0.19736815240E+03  0.00000000000E+00 0.  1.
<mgrwt>
<rscale>  0 0.23655138E+04</rscale>
<asrwt>0</asrwt>
<pdfrwt beam="1">  1        1 0.25270201E+00 0.23655138E+04</pdfrwt>
<pdfrwt beam="2">  1       -1 0.13102542E+00 0.23655138E+04</pdfrwt>
<totfact> 0.23311500E+00</totfact>
</mgrwt>
</event>
<event>
12    1  0.1451704E-007  0.2261574E+04  0.7818608E-02  0.8493228E-01
         -2   -1    0    0    0  501 -0.00000000000E+00  0.00000000000E+00  0.11107058470E+04  0.11107058470E+04  0.00000000000E+00 0.  1.
          2   -1    0    0  501    0  0.00000000000E+00 -0.00000000000E+00 -0.11512315218E+04  0.11512315218E+04  0.00000000000E+00 0. -1.
         23    2    1    2    0    0  0.45535780634E+03 -0.75279623371E+03 -0.35301634553E+03  0.95532644923E+03  0.11821667866E+03 0.  0.
        254    2    1    2    0    0 -0.45535780634E+03  0.75279623371E+03  0.31249067070E+03  0.13066109196E+04  0.91407263099E+03 0.  0.
        -24    2    4    4    0    0 -0.28770235753E+03  0.90314034015E+03  0.51082272808E+02  0.95258954539E+03  0.79889441406E+02 0.  0.
         24    2    4    4    0    0 -0.16765544881E+03 -0.15034410645E+03  0.26140839789E+03  0.35402137423E+03  0.79278515793E+02 0.  0.
         11    1    3    3    0    0  0.45741687607E+03 -0.71063377592E+03 -0.33016514670E+03  0.90732551275E+03  0.00000000000E+00 0. -1.
        -11    1    3    3    0    0 -0.20590697372E+01 -0.42162457783E+02 -0.22851198831E+02  0.48000936475E+02  0.00000000000E+00 0.  1.
          4    1    6    6  502    0  0.37691265523E+01 -0.27154669380E+02  0.25300369453E+02  0.37305376001E+02  0.00000000000E+00 0. -1.
          3    1    5    5  503    0 -0.90187564720E+02  0.21698138439E+03  0.40802711624E+02  0.23849440094E+03  0.00000000000E+00 0. -1.
         -4    1    5    5    0  503 -0.19751479281E+03  0.68615895576E+03  0.10279561184E+02  0.71409514445E+03  0.00000000000E+00 0.  1.
         -3    1    6    6    0  502 -0.17142457536E+03 -0.12318943707E+03  0.23610802844E+03  0.31671599823E+03  0.00000000000E+00 0.  1.
<mgrwt>
<rscale>  0 0.22615743E+04</rscale>
<asrwt>0</asrwt>
<pdfrwt beam="1">  1        2 0.17711254E+00 0.22615743E+04</pdfrwt>
<pdfrwt beam="2">  1       -2 0.17087782E+00 0.22615743E+04</pdfrwt>
<totfact> 0.38724440E+00</totfact>
</mgrwt>
</event>
<event>
12    1  0.1397649E-007  0.2198399E+04  0.7818608E-02  0.8519095E-01
         -2   -1    0    0    0  501 -0.00000000000E+00  0.00000000000E+00  0.27183620061E+04  0.27183620061E+04  0.00000000000E+00 0. -1.
          2   -1    0    0  501    0  0.00000000000E+00 -0.00000000000E+00 -0.44447349388E+03  0.44447349388E+03  0.00000000000E+00 0.  1.
         23    2    1    2    0    0 -0.23956880995E+03  0.85981351955E+03  0.11719534696E+04  0.14765932021E+04  0.10089621563E+03 0.  0.
        254    2    1    2    0    0  0.23956880995E+03 -0.85981351955E+03  0.11019350426E+04  0.16862422979E+04  0.91240328039E+03 0.  0.
        -24    2    4    4    0    0 -0.18304945983E+03 -0.63307358934E+03  0.98165670733E+03  0.11847719276E+04  0.75798121179E+02 0.  0.
         24    2    4    4    0    0  0.42261826978E+03 -0.22673993021E+03  0.12027833528E+03  0.50147037030E+03  0.83596988271E+02 0.  0.
         13    1    3    3    0    0 -0.14886858772E+03  0.64655864628E+03  0.81351517655E+03  0.10497651556E+04  0.00000000000E+00 0. -1.
        -13    1    3    3    0    0 -0.90700222235E+02  0.21325487326E+03  0.35843829310E+03  0.42682804646E+03  0.00000000000E+00 0.  1.
          2    1    6    6  502    0  0.66471840886E+02 -0.65376595614E+02  0.44032229165E+02  0.10310888463E+03  0.00000000000E+00 0. -1.
          1    1    5    5  503    0 -0.31119397512E+02 -0.23598639693E+03  0.33985180074E+03  0.41491835691E+03  0.00000000000E+00 0. -1.
         -2    1    5    5    0  503 -0.15193006232E+03 -0.39708719241E+03  0.64180490659E+03  0.76985357071E+03  0.00000000000E+00 0.  1.
         -3    1    6    6    0  502  0.35614642889E+03 -0.16136333460E+03  0.76246106113E+02  0.39836148567E+03  0.00000000000E+00 0.  1.
<mgrwt>
<rscale>  0 0.21983993E+04</rscale>
<asrwt>0</asrwt>
<pdfrwt beam="1">  1        2 0.68380539E-01 0.21983993E+04</pdfrwt>
<pdfrwt beam="2">  1       -2 0.41820953E+00 0.21983993E+04</pdfrwt>
<totfact> 0.36380959E-01</totfact>
</mgrwt>
</event>
<event>
12    1  0.1397649E-007  0.1672552E+04  0.7818608E-02  0.8777176E-01
          1   -1    0    0  501    0  0.00000000000E+00  0.00000000000E+00  0.10291195630E+04  0.10291195630E+04  0.00000000000E+00 0. -1.
         -1   -1    0    0    0  501 -0.00000000000E+00 -0.00000000000E+00 -0.67956896507E+03  0.67956896507E+03  0.00000000000E+00 0.  1.
         23    2    1    2    0    0  0.18020268724E+03  0.30952864658E+03 -0.35757141879E+03  0.51449783725E+03  0.92572746878E+02 0.  0.
        254    2    1    2    0    0 -0.18020268724E+03 -0.30952864658E+03  0.70712201673E+03  0.11941906908E+04  0.89319027536E+03 0.  0.
        -24    2    4    4    0    0 -0.23052435215E+03  0.17148238958E+03  0.63026035270E+03  0.69764566664E+03  0.83268704418E+02 0.  0.
         24    2    4    4    0    0  0.50321664909E+02 -0.48101103615E+03  0.76861664034E+02  0.49654502420E+03  0.82130133294E+02 0.  0.
         13    1    3    3    0    0  0.39997072818E+02  0.87138502976E+02 -0.44555105294E+02  0.10572625947E+03  0.00000000000E+00 0. -1.
        -13    1    3    3    0    0  0.14020561442E+03  0.22239014360E+03 -0.31301631349E+03  0.40877157778E+03  0.00000000000E+00 0.  1.
          4    1    6    6  502    0  0.48942081719E+02 -0.28079138044E+03  0.80887563383E+02  0.29628014548E+03  0.00000000000E+00 0. -1.
          3    1    5    5  503    0 -0.21125361204E+03  0.16460372194E+03  0.61862704347E+03  0.67410822038E+03  0.00000000000E+00 0. -1.
         -4    1    5    5    0  503 -0.19270740113E+02  0.68786676398E+01  0.11633309231E+02  0.23537446265E+02  0.00000000000E+00 0.  1.
         -3    1    6    6    0  502  0.13795831897E+01 -0.20021965571E+03 -0.40258993485E+01  0.20026487872E+03  0.00000000000E+00 0.  1.
<mgrwt>
<rscale>  0 0.16725522E+04</rscale>
<asrwt>0</asrwt>
<pdfrwt beam="1">  1        1 0.15832609E+00 0.16725522E+04</pdfrwt>
<pdfrwt beam="2">  1       -1 0.10454907E+00 0.16725522E+04</pdfrwt>
<totfact> 0.11782008E+01</totfact>
</mgrwt>
</event>
<event>
12    1  0.1397649E-007  0.1989277E+04  0.7818608E-02  0.8611650E-01
          2   -1    0    0  501    0  0.00000000000E+00  0.00000000000E+00  0.13072542787E+04  0.13072542787E+04  0.00000000000E+00 0. -1.
         -2   -1    0    0    0  501 -0.00000000000E+00 -0.00000000000E+00 -0.75678151441E+03  0.75678151441E+03  0.00000000000E+00 0.  1.
         23    2    1    2    0    0  0.22075417396E+03 -0.61301014755E+03 -0.24301404309E+03  0.70169413174E+03  0.93834871200E+02 0.  0.
        254    2    1    2    0    0 -0.22075417396E+03  0.61301014755E+03  0.79348680734E+03  0.13623416613E+04  0.89545499187E+03 0.  0.
        -24    2    4    4    0    0  0.45894959127E+02  0.35013652088E+03 -0.11222247591E+03  0.37893405312E+03  0.79342308940E+02 0.  0.
         24    2    4    4    0    0 -0.26664913309E+03  0.26287362668E+03  0.90570928326E+03  0.98340760822E+03  0.81098177165E+02 0.  0.
         13    1    3    3    0    0  0.19669525725E+03 -0.52064298759E+03 -0.24026428088E+03  0.60620546799E+03  0.00000000000E+00 0.  1.
        -13    1    3    3    0    0  0.24058916715E+02 -0.92367159964E+02 -0.27497622128E+01  0.95488663754E+02  0.00000000000E+00 0. -1.
          4    1    6    6  502    0 -0.22241470804E+03  0.20593326878E+03  0.79955042717E+03  0.85507759831E+03  0.00000000000E+00 0. -1.
          1    1    5    5  503    0  0.50754914053E+02  0.23879158421E+03 -0.10921554115E+03  0.26744254788E+03  0.00000000000E+00 0. -1.
         -2    1    5    5    0  503 -0.48599549257E+01  0.11134493667E+03 -0.30069347688E+01  0.11149150524E+03  0.00000000000E+00 0.  1.
         -3    1    6    6    0  502 -0.44234425050E+02  0.56940357897E+02  0.10615885609E+03  0.12833000991E+03  0.00000000000E+00 0.  1.
<mgrwt>
<rscale>  0 0.19892771E+04</rscale>
<asrwt>0</asrwt>
<pdfrwt beam="1">  1        2 0.20111604E+00 0.19892771E+04</pdfrwt>
<pdfrwt beam="2">  1       -2 0.11642793E+00 0.19892771E+04</pdfrwt>
<totfact> 0.87107499E+00</totfact>
</mgrwt>
</event>
<event>
12    1  0.1397649E-007  0.1644121E+04  0.7818608E-02  0.8793892E-01
         -2   -1    0    0    0  501 -0.00000000000E+00  0.00000000000E+00  0.43632381051E+03  0.43632381051E+03  0.00000000000E+00 0.  1.
          2   -1    0    0  501    0  0.00000000000E+00 -0.00000000000E+00 -0.15488117625E+04  0.15488117625E+04  0.00000000000E+00 0. -1.
         23    2    1    2    0    0 -0.44310221172E+03 -0.15019951537E+03  0.47122453779E+01  0.47688341513E+03  0.92174410334E+02 0.  0.
        254    2    1    2    0    0  0.44310221172E+03  0.15019951537E+03 -0.11172001973E+04  0.15082521579E+04  0.89877073066E+03 0.  0.
        -24    2    4    4    0    0 -0.57788307662E+02  0.87664355977E+02 -0.96651837308E+03  0.97544261042E+03  0.79410282200E+02 0.  0.
         24    2    4    4    0    0  0.50089051938E+03  0.62535159390E+02 -0.15068182426E+03  0.53280954744E+03  0.79868912015E+02 0.  0.
         13    1    3    3    0    0 -0.27364451131E+03 -0.59915529653E+02 -0.30118929789E+02  0.28174161779E+03  0.00000000000E+00 0.  1.
        -13    1    3    3    0    0 -0.16945770041E+03 -0.90283985714E+02  0.34831175167E+02  0.19514179734E+03  0.00000000000E+00 0. -1.
          4    1    6    6  502    0  0.28573094180E+03  0.53417197247E+02 -0.12319555673E+03  0.31570985613E+03  0.00000000000E+00 0. -1.
          1    1    5    5  503    0 -0.47169430421E+02  0.39665172208E+02 -0.25953416302E+03  0.26675131270E+03  0.00000000000E+00 0. -1.
         -2    1    5    5    0  503 -0.10618877241E+02  0.47999183769E+02 -0.70698421006E+03  0.70869129773E+03  0.00000000000E+00 0.  1.
         -3    1    6    6    0  502  0.21515957758E+03  0.91179621430E+01 -0.27486267538E+02  0.21709969130E+03  0.00000000000E+00 0.  1.
<mgrwt>
<rscale>  0 0.16441210E+04</rscale>
<asrwt>0</asrwt>
<pdfrwt beam="1">  1        2 0.23827874E+00 0.16441210E+04</pdfrwt>
<pdfrwt beam="2">  1       -2 0.67126739E-01 0.16441210E+04</pdfrwt>
<totfact> 0.23186421E+01</totfact>
</mgrwt>
</event>
<event>
12    1  0.1397649E-007  0.2243527E+04  0.7818608E-02  0.8500526E-01
          2   -1    0    0  501    0  0.00000000000E+00  0.00000000000E+00  0.20399410196E+04  0.20399410196E+04  0.00000000000E+00 0. -1.
         -2   -1    0    0    0  501 -0.00000000000E+00 -0.00000000000E+00 -0.61685792671E+03  0.61685792671E+03  0.00000000000E+00 0.  1.
         23    2    1    2    0    0  0.18088648950E+03 -0.14299359600E+03 -0.47920370693E+03  0.53954528454E+03  0.91136330581E+02 0.  0.
        254    2    1    2    0    0 -0.18088648950E+03  0.14299359600E+03  0.19022867998E+04  0.21172536618E+04  0.90050036587E+03 0.  0.
        -24    2    4    4    0    0 -0.42849778551E+03 -0.15268888471E+03  0.60655581227E+03  0.76300993295E+03  0.85731888344E+02 0.  0.
         24    2    4    4    0    0  0.24761129602E+03  0.29568248071E+03  0.12957309876E+04  0.13542437288E+04  0.79484600028E+02 0.  0.
         13    1    3    3    0    0 -0.37392083081E+01 -0.29142984471E+02 -0.79903405386E+02  0.85134302223E+02  0.00000000000E+00 0. -1.
        -13    1    3    3    0    0  0.18462569780E+03 -0.11385061153E+03 -0.39930030155E+03  0.45441098232E+03  0.00000000000E+00 0.  1.
          2    1    6    6  502    0  0.25340791993E+03  0.28380240322E+03  0.12469962472E+04  0.13037480656E+04  0.00000000000E+00 0. -1.
          1    1    5    5  503    0 -0.39481799118E+03 -0.12163199677E+03  0.51159167589E+03  0.65757252956E+03  0.00000000000E+00 0. -1.
         -2    1    5    5    0  503 -0.33679794336E+02 -0.31056887933E+02  0.94964136375E+02  0.10543740338E+03  0.00000000000E+00 0.  1.
         -1    1    6    6    0  502 -0.57966239110E+01  0.11880077483E+02  0.48734740322E+02  0.50495663220E+02  0.00000000000E+00 0.  1.
<mgrwt>
<rscale>  0 0.22435274E+04</rscale>
<asrwt>0</asrwt>
<pdfrwt beam="1">  1        2 0.31383708E+00 0.22435274E+04</pdfrwt>
<pdfrwt beam="2">  1       -2 0.94901220E-01 0.22435274E+04</pdfrwt>
<totfact> 0.54008432E+00</totfact>
</mgrwt>
</event>
<event>
12    1  0.1397649E-007  0.1274888E+04  0.7818608E-02  0.9049719E-01
          2   -1    0    0  501    0  0.00000000000E+00  0.00000000000E+00  0.54568445204E+03  0.54568445204E+03  0.00000000000E+00 0.  1.
         -2   -1    0    0    0  501 -0.00000000000E+00 -0.00000000000E+00 -0.74463371862E+03  0.74463371862E+03  0.00000000000E+00 0. -1.
         23    2    1    2    0    0  0.21439636788E+03  0.21521057214E+03 -0.35056497659E+02  0.32038411650E+03  0.95580495719E+02 0.  0.
        254    2    1    2    0    0 -0.21439636788E+03 -0.21521057214E+03 -0.16389276892E+03  0.96993405416E+03  0.90643799391E+03 0.  0.
        -24    2    4    4    0    0 -0.56151045817E+02 -0.76383482251E+02 -0.52761562203E+03  0.54222196065E+03  0.81480265692E+02 0.  0.
         24    2    4    4    0    0 -0.15824532206E+03 -0.13882708988E+03  0.36372285311E+03  0.42771209351E+03  0.79553618509E+02 0.  0.
         11    1    3    3    0    0  0.20947402012E+03  0.18612348233E+03 -0.79627575198E+01  0.28032966537E+03  0.00000000000E+00 0.  1.
        -11    1    3    3    0    0  0.49223477569E+01  0.29087089802E+02 -0.27093740139E+02  0.40054451130E+02  0.00000000000E+00 0. -1.
          2    1    6    6  502    0 -0.15699591668E+03 -0.12113984482E+03  0.28618705778E+03  0.34817468590E+03  0.00000000000E+00 0. -1.
          3    1    5    5  503    0 -0.69217575587E+02 -0.28826048115E+02 -0.34580981668E+03  0.35384522482E+03  0.00000000000E+00 0. -1.
         -4    1    5    5    0  503  0.13066529770E+02 -0.47557434136E+02 -0.18180580535E+03  0.18837673583E+03  0.00000000000E+00 0.  1.
         -1    1    6    6    0  502 -0.12494053742E+01 -0.17687245062E+02  0.77535795330E+02  0.79537407609E+02  0.00000000000E+00 0.  1.
<mgrwt>
<rscale>  0 0.12748883E+04</rscale>
<asrwt>0</asrwt>
<pdfrwt beam="1">  1        2 0.83951455E-01 0.12748883E+04</pdfrwt>
<pdfrwt beam="2">  1       -2 0.11455903E+00 0.12748883E+04</pdfrwt>
<totfact> 0.32470955E+01</totfact>
</mgrwt>
</event>
<event>
12    1  0.1397649E-007  0.1230948E+04  0.7818608E-02  0.9086191E-01
          2   -1    0    0  501    0  0.00000000000E+00  0.00000000000E+00  0.13761166484E+04  0.13761166484E+04  0.00000000000E+00 0. -1.
         -2   -1    0    0    0  501 -0.00000000000E+00 -0.00000000000E+00 -0.27527326050E+03  0.27527326050E+03  0.00000000000E+00 0.  1.
         23    2    1    2    0    0 -0.21380189773E+03  0.95480328338E+02  0.44575015209E+03  0.51189172918E+03  0.92261583251E+02 0.  0.
        254    2    1    2    0    0  0.21380189773E+03 -0.95480328338E+02  0.65509323583E+03  0.11394981797E+04  0.90248612700E+03 0.  0.
        -24    2    4    4    0    0 -0.13414127729E+03 -0.23178931477E+03 -0.98157149014E+02  0.29514822771E+03  0.75878071272E+02 0.  0.
         24    2    4    4    0    0  0.34794317502E+03  0.13630898643E+03  0.75325038484E+03  0.84434995203E+03  0.76786108160E+02 0.  0.
         13    1    3    3    0    0 -0.10392696721E+03  0.85222832389E+02  0.18425231300E+03  0.22806284336E+03  0.00000000000E+00 0. -1.
        -13    1    3    3    0    0 -0.10987493051E+03  0.10257495949E+02  0.26149783910E+03  0.28382888583E+03  0.00000000000E+00 0.  1.
          2    1    6    6  502    0  0.30234552357E+03  0.13140291284E+03  0.60269867194E+03  0.68696814358E+03  0.00000000000E+00 0. -1.
          3    1    5    5  503    0 -0.14229291340E+03 -0.22855352700E+03 -0.92338649832E+02  0.28462328464E+03  0.00000000000E+00 0. -1.
         -4    1    5    5    0  503  0.81516361112E+01 -0.32357877772E+01 -0.58184991820E+01  0.10524943067E+02  0.00000000000E+00 0.  1.
         -1    1    6    6    0  502  0.45597651441E+02  0.49060735948E+01  0.15055171290E+03  0.15738180846E+03  0.00000000000E+00 0.  1.
<mgrwt>
<rscale>  0 0.12309478E+04</rscale>
<asrwt>0</asrwt>
<pdfrwt beam="1">  1        2 0.21171025E+00 0.12309478E+04</pdfrwt>
<pdfrwt beam="2">  1       -2 0.42349733E-01 0.12309478E+04</pdfrwt>
<totfact> 0.77687302E+01</totfact>
</mgrwt>
</event>
<event>
12    1  0.1397649E-007  0.1235794E+04  0.7818608E-02  0.9082091E-01
          3   -1    0    0  501    0  0.00000000000E+00  0.00000000000E+00  0.47937564831E+03  0.47937564831E+03  0.00000000000E+00 0. -1.
         -3   -1    0    0    0  501 -0.00000000000E+00 -0.00000000000E+00 -0.79644517222E+03  0.79644517222E+03  0.00000000000E+00 0.  1.
         23    2    1    2    0    0 -0.38872915622E+02 -0.14945224796E+03  0.16480317645E+03  0.25114681482E+03  0.10985243575E+03 0.  0.
        254    2    1    2    0    0  0.38872915622E+02  0.14945224796E+03 -0.48187270035E+03  0.10246740057E+04  0.89101539866E+03 0.  0.
        -24    2    4    4    0    0  0.32798588033E+03  0.32231075962E+03 -0.48202370734E+02  0.46938439920E+03  0.80865828424E+02 0.  0.
         24    2    4    4    0    0 -0.28911296470E+03 -0.17285851166E+03 -0.43367032961E+03  0.55528960651E+03  0.82524062523E+02 0.  0.
         13    1    3    3    0    0 -0.60771491756E+02 -0.14419974201E+03  0.16658739046E+03  0.22855655420E+03  0.00000000000E+00 0. -1.
        -13    1    3    3    0    0  0.21898576134E+02 -0.52525059520E+01 -0.17842140185E+01  0.22590260626E+02  0.00000000000E+00 0.  1.
          2    1    6    6  502    0 -0.20341670291E+02  0.28407032565E+01 -0.78939627597E+01  0.22003813153E+02  0.00000000000E+00 0. -1.
          1    1    5    5  503    0  0.19461632264E+03  0.13604959754E+03 -0.33758233202E+02  0.23984291596E+03  0.00000000000E+00 0. -1.
         -2    1    5    5    0  503  0.13336955768E+03  0.18626116208E+03 -0.14444137532E+02  0.22954148323E+03  0.00000000000E+00 0.  1.
         -1    1    6    6    0  502 -0.26877129441E+03 -0.17569921492E+03 -0.42577636685E+03  0.53328579336E+03  0.00000000000E+00 0.  1.
<mgrwt>
<rscale>  0 0.12357935E+04</rscale>
<asrwt>0</asrwt>
<pdfrwt beam="1">  1        3 0.73750100E-01 0.12357935E+04</pdfrwt>
<pdfrwt beam="2">  1       -3 0.12253003E+00 0.12357935E+04</pdfrwt>
<totfact> 0.24141822E+00</totfact>
</mgrwt>
</event>
<event>
12    1  0.2397971E-007  0.2474597E+04  0.7818608E-02  0.8412092E-01
          2   -1    0    0  501    0  0.00000000000E+00  0.00000000000E+00  0.11149740790E+04  0.11149740790E+04  0.00000000000E+00 0.  1.
         -2   -1    0    0    0  501 -0.00000000000E+00 -0.00000000000E+00 -0.13730428930E+04  0.13730428930E+04  0.00000000000E+00 0. -1.
         23    2    1    2    0    0 -0.76006098703E+03  0.74228286128E+03  0.16753342733E+02  0.10666903401E+04  0.94186288642E+02 0.  0.
        254    2    1    2    0    0  0.76006098703E+03 -0.74228286128E+03 -0.27482215671E+03  0.14213266320E+04  0.90330815713E+03 0.  0.
        -24    2    4    4    0    0  0.49625127243E+03  0.66383964024E+02 -0.25303056786E+03  0.56677783162E+03  0.80873271737E+02 0.  0.
         24    2    4    4    0    0  0.26380971460E+03 -0.80866682530E+03 -0.21791588852E+02  0.85454880033E+03  0.79001132551E+02 0.  0.
         13    1    3    3    0    0 -0.75333474537E+03  0.74394112497E+03  0.13050467742E+02  0.10588351858E+04  0.00000000000E+00 0.  1.
        -13    1    3    3    0    0 -0.67262416582E+01 -0.16582636922E+01  0.37028749906E+01  0.78551542641E+01  0.00000000000E+00 0. -1.
          2    1    6    6  502    0  0.46883202872E+02 -0.12294196596E+03 -0.31371655366E+02  0.13526619114E+03  0.00000000000E+00 0. -1.
          1    1    5    5  503    0  0.20981522559E+02  0.90529239277E+01  0.43457512903E+01  0.23260809848E+02  0.00000000000E+00 0. -1.
         -2    1    5    5    0  503  0.47526974987E+03  0.57331040097E+02 -0.25737631915E+03  0.54351702177E+03  0.00000000000E+00 0.  1.
         -1    1    6    6    0  502  0.21692651173E+03 -0.68572485934E+03  0.95800665142E+01  0.71928260919E+03  0.00000000000E+00 0.  1.
<mgrwt>
<rscale>  0 0.24745967E+04</rscale>
<asrwt>0</asrwt>
<pdfrwt beam="1">  1        2 0.17153447E+00 0.24745967E+04</pdfrwt>
<pdfrwt beam="2">  1       -2 0.21123737E+00 0.24745967E+04</pdfrwt>
<totfact> 0.21428534E+00</totfact>
</mgrwt>
</event>
<event>
12    1  0.1397649E-007  0.1549213E+04  0.7818608E-02  0.8852370E-01
          3   -1    0    0  501    0  0.00000000000E+00  0.00000000000E+00  0.50860004947E+03  0.50860004947E+03  0.00000000000E+00 0. -1.
         -3   -1    0    0    0  501 -0.00000000000E+00 -0.00000000000E+00 -0.11797390576E+04  0.11797390576E+04  0.00000000000E+00 0.  1.
         23    2    1    2    0    0 -0.10465299033E+03  0.45739488215E+03 -0.38461714604E+03  0.61352830436E+03  0.91237627195E+02 0.  0.
        254    2    1    2    0    0  0.10465299033E+03 -0.45739488215E+03 -0.28652186213E+03  0.10748108028E+04  0.92355896274E+03 0.  0.
        -24    2    4    4    0    0  0.15982457443E+03 -0.16596174252E+03 -0.59242063822E+03  0.64120650018E+03  0.84239947270E+02 0.  0.
         24    2    4    4    0    0 -0.55171584100E+02 -0.29143313963E+03  0.30589877609E+03  0.43360430258E+03  0.80383153948E+02 0.  0.
         11    1    3    3    0    0 -0.19635690810E+02  0.10306461335E+03 -0.40896148927E+02  0.11260714843E+03  0.00000000000E+00 0. -1.
        -11    1    3    3    0    0 -0.85017299516E+02  0.35433026880E+03 -0.34372099712E+03  0.50092115594E+03  0.00000000000E+00 0.  1.
          2    1    6    6  502    0 -0.77726782700E+01 -0.22206494286E+03  0.20516830183E+03  0.30243558893E+03  0.00000000000E+00 0. -1.
          1    1    5    5  503    0  0.14835837415E+02 -0.63856981920E+02 -0.20267566079E+03  0.21301464665E+03  0.00000000000E+00 0. -1.
         -2    1    5    5    0  503  0.14498873701E+03 -0.10210476060E+03 -0.38974497742E+03  0.42819185353E+03  0.00000000000E+00 0.  1.
         -1    1    6    6    0  502 -0.47398905830E+02 -0.69368196770E+02  0.10073047426E+03  0.13116871365E+03  0.00000000000E+00 0.  1.
<mgrwt>
<rscale>  0 0.15492131E+04</rscale>
<asrwt>0</asrwt>
<pdfrwt beam="1">  1        3 0.78246162E-01 0.15492131E+04</pdfrwt>
<pdfrwt beam="2">  1       -3 0.18149832E+00 0.15492131E+04</pdfrwt>
<totfact> 0.74424132E-01</totfact>
</mgrwt>
</event>
<event>
12    1  0.1397649E-007  0.1996267E+04  0.7818608E-02  0.8608368E-01
         -1   -1    0    0    0  501 -0.00000000000E+00  0.00000000000E+00  0.59110580569E+03  0.59110580569E+03  0.00000000000E+00 0.  1.
          1   -1    0    0  501    0  0.00000000000E+00 -0.00000000000E+00 -0.16854348040E+04  0.16854348040E+04  0.00000000000E+00 0. -1.
         23    2    1    2    0    0 -0.18738300176E+03 -0.20154583627E+03 -0.12973781586E+04  0.13297968371E+04  0.97141278720E+02 0.  0.
        254    2    1    2    0    0  0.18738300176E+03  0.20154583627E+03  0.20304916034E+03  0.94674377256E+03  0.88281464414E+03 0.  0.
        -24    2    4    4    0    0 -0.89804007557E+02  0.29761900140E+03 -0.24526460898E+03  0.40412897026E+03  0.80769217005E+02 0.  0.
         24    2    4    4    0    0  0.27718700931E+03 -0.96073165130E+02  0.44831376932E+03  0.54261480230E+03  0.85923784435E+02 0.  0.
         13    1    3    3    0    0 -0.14549299667E+03 -0.16947465608E+03 -0.11821376532E+04  0.12030541560E+04  0.00000000000E+00 0. -1.
        -13    1    3    3    0    0 -0.41890005085E+02 -0.32071180191E+02 -0.11524050540E+03  0.12674268109E+03  0.00000000000E+00 0.  1.
          2    1    6    6  502    0  0.11081781805E+03 -0.53440417953E+02  0.26063972194E+03  0.28821785462E+03  0.00000000000E+00 0. -1.
          3    1    5    5  503    0 -0.45498931442E+02  0.17538109881E+03 -0.19091974816E+03  0.26320910474E+03  0.00000000000E+00 0. -1.
         -4    1    5    5    0  503 -0.44305076115E+02  0.12223790259E+03 -0.54344860821E+02  0.14091986551E+03  0.00000000000E+00 0.  1.
         -1    1    6    6    0  502  0.16636919126E+03 -0.42632747176E+02  0.18767404738E+03  0.25439694768E+03  0.00000000000E+00 0.  1.
<mgrwt>
<rscale>  0 0.19962668E+04</rscale>
<asrwt>0</asrwt>
<pdfrwt beam="1">  1        1 0.25929766E+00 0.19962668E+04</pdfrwt>
<pdfrwt beam="2">  1       -1 0.90939355E-01 0.19962668E+04</pdfrwt>
<totfact> 0.53412880E+00</totfact>
</mgrwt>
</event>
<event>
12    1  0.1397649E-007  0.1330513E+04  0.7818608E-02  0.9005712E-01
         -1   -1    0    0    0  501 -0.00000000000E+00  0.00000000000E+00  0.45220262444E+03  0.45220262444E+03  0.00000000000E+00 0.  1.
          1   -1    0    0  501    0  0.00000000000E+00 -0.00000000000E+00 -0.97869009895E+03  0.97869009895E+03  0.00000000000E+00 0. -1.
         23    2    1    2    0    0  0.22839328088E+03  0.26394299373E+03 -0.19684696030E+03  0.41094951712E+03  0.91111937457E+02 0.  0.
        254    2    1    2    0    0 -0.22839328088E+03 -0.26394299373E+03 -0.32964051421E+03  0.10199432063E+04  0.89988437076E+03 0.  0.
        -24    2    4    4    0    0  0.61617595077E+02 -0.16467093287E+01 -0.55336497452E+03  0.56249106946E+03  0.79899740476E+02 0.  0.
         24    2    4    4    0    0 -0.29001087595E+03 -0.26229628440E+03  0.22372446031E+03  0.45745213682E+03  0.79398830967E+02 0.  0.
         13    1    3    3    0    0  0.15909374738E+03  0.20378666564E+03 -0.18611473063E+03  0.31855693135E+03  0.00000000000E+00 0. -1.
        -13    1    3    3    0    0  0.69299533491E+02  0.60156328089E+02 -0.10732229671E+02  0.92392585769E+02  0.00000000000E+00 0.  1.
          4    1    6    6  502    0 -0.38610842345E+02 -0.14679428606E+02  0.33961532774E+01  0.41446551459E+02  0.00000000000E+00 0. -1.
          3    1    5    5  503    0  0.44488595816E+02  0.32037759147E+02 -0.20945322830E+03  0.21650937165E+03  0.00000000000E+00 0. -1.
         -4    1    5    5    0  503  0.17128999261E+02 -0.33684468476E+02 -0.34391174622E+03  0.34598169781E+03  0.00000000000E+00 0.  1.
         -3    1    6    6    0  502 -0.25140003361E+03 -0.24761685580E+03  0.22032830703E+03  0.41600558536E+03  0.00000000000E+00 0.  1.
<mgrwt>
<rscale>  0 0.13305130E+04</rscale>
<asrwt>0</asrwt>
<pdfrwt beam="1">  1        1 0.15056771E+00 0.13305130E+04</pdfrwt>
<pdfrwt beam="2">  1       -1 0.69569635E-01 0.13305130E+04</pdfrwt>
<totfact> 0.32218716E+01</totfact>
</mgrwt>
</event>
<event>
12    1  0.1397649E-007  0.2220515E+04  0.7818608E-02  0.8509937E-01
          1   -1    0    0  501    0  0.00000000000E+00  0.00000000000E+00  0.18130864645E+04  0.18130864645E+04  0.00000000000E+00 0. -1.
         -1   -1    0    0    0  501 -0.00000000000E+00 -0.00000000000E+00 -0.67987489298E+03  0.67987489298E+03  0.00000000000E+00 0.  1.
         23    2    1    2    0    0  0.39128931093E+03  0.41525946863E+03 -0.34899898111E+03  0.67488909307E+03  0.90151250709E+02 0.  0.
        254    2    1    2    0    0 -0.39128931093E+03 -0.41525946863E+03  0.14822105526E+04  0.18180722644E+04  0.88481121441E+03 0.  0.
        -24    2    4    4    0    0 -0.59838536590E+03 -0.24965311498E+03  0.13735416451E+04  0.15210709616E+04  0.81538307410E+02 0.  0.
         24    2    4    4    0    0  0.20709605497E+03 -0.16560635365E+03  0.10866890754E+03  0.29700130278E+03  0.78016677901E+02 0.  0.
         13    1    3    3    0    0  0.26195671184E+03  0.31142729435E+03 -0.20710543692E+03  0.45661903217E+03  0.00000000000E+00 0.  1.
        -13    1    3    3    0    0  0.12933259909E+03  0.10383217428E+03 -0.14189354419E+03  0.21827006090E+03  0.00000000000E+00 0. -1.
          4    1    6    6  502    0  0.20864107500E+03 -0.15125501654E+03  0.89065355721E+02  0.27265695625E+03  0.00000000000E+00 0. -1.
          3    1    5    5  503    0 -0.51153744977E+03 -0.20173539358E+03  0.12211158747E+04  0.13392130939E+04  0.00000000000E+00 0. -1.
         -4    1    5    5    0  503 -0.86847916129E+02 -0.47917721402E+02  0.15242577035E+03  0.18185786765E+03  0.00000000000E+00 0.  1.
         -3    1    6    6    0  502 -0.15450200242E+01 -0.14351337111E+02  0.19603551816E+02  0.24344346522E+02  0.00000000000E+00 0.  1.
<mgrwt>
<rscale>  0 0.22205152E+04</rscale>
<asrwt>0</asrwt>
<pdfrwt beam="1">  1        1 0.27893638E+00 0.22205152E+04</pdfrwt>
<pdfrwt beam="2">  1       -1 0.10459614E+00 0.22205152E+04</pdfrwt>
<totfact> 0.31200883E+00</totfact>
</mgrwt>
</event>
<event>
12    1  0.1397649E-007  0.2570932E+04  0.7818608E-02  0.8378143E-01
          2   -1    0    0  501    0  0.00000000000E+00  0.00000000000E+00  0.34841419089E+04  0.34841419089E+04  0.00000000000E+00 0. -1.
         -2   -1    0    0    0  501 -0.00000000000E+00 -0.00000000000E+00 -0.47426956919E+03  0.47426956919E+03  0.00000000000E+00 0.  1.
         23    2    1    2    0    0 -0.49642818973E+03  0.16009324240E+03  0.27001097116E+04  0.27515379193E+04  0.91091564091E+02 0.  0.
        254    2    1    2    0    0  0.49642818973E+03 -0.16009324240E+03  0.30976262805E+03  0.12068735587E+04  0.10433216700E+04 0.  0.
        -24    2    4    4    0    0  0.70739635275E+03 -0.18752032858E+03 -0.95416754087E+02  0.74237893747E+03  0.80303526277E+02 0.  0.
         24    2    4    4    0    0 -0.21096816302E+03  0.27427086179E+02  0.40517938214E+03  0.46449462122E+03  0.79530563715E+02 0.  0.
         13    1    3    3    0    0 -0.91147809466E+02  0.56226912881E+02  0.69937286287E+03  0.70752511632E+03  0.00000000000E+00 0.  1.
        -13    1    3    3    0    0 -0.40528038027E+03  0.10386632952E+03  0.20007368487E+04  0.20440128030E+04  0.00000000000E+00 0. -1.
          4    1    6    6  502    0  0.60930707290E+01  0.55635792607E+01  0.89222085482E+01  0.12152560655E+02  0.00000000000E+00 0. -1.
          1    1    5    5  503    0  0.97908491750E+02  0.20470066114E+01 -0.13513425177E+02  0.98857855797E+02  0.00000000000E+00 0. -1.
         -2    1    5    5    0  503  0.60948786100E+03 -0.18956733520E+03 -0.81903328910E+02  0.64352108168E+03  0.00000000000E+00 0.  1.
         -3    1    6    6    0  502 -0.21706123375E+03  0.21863506918E+02  0.39625717359E+03  0.45234206056E+03  0.00000000000E+00 0.  1.
<mgrwt>
<rscale>  0 0.25709317E+04</rscale>
<asrwt>0</asrwt>
<pdfrwt beam="1">  1        2 0.53602181E+00 0.25709317E+04</pdfrwt>
<pdfrwt beam="2">  1       -2 0.72964552E-01 0.25709317E+04</pdfrwt>
<totfact> 0.12560177E+00</totfact>
</mgrwt>
</event>
<event>
12    1  0.1397649E-007  0.1488286E+04  0.7818608E-02  0.8892280E-01
         -1   -1    0    0    0  501 -0.00000000000E+00  0.00000000000E+00  0.33704779801E+03  0.33704779801E+03  0.00000000000E+00 0.  1.
          1   -1    0    0  501    0  0.00000000000E+00 -0.00000000000E+00 -0.16429377358E+04  0.16429377358E+04  0.00000000000E+00 0. -1.
         23    2    1    2    0    0  0.40831651920E+03 -0.22903057681E+03 -0.52736984317E+03  0.71095017957E+03  0.90298512564E+02 0.  0.
        254    2    1    2    0    0 -0.40831651920E+03  0.22903057681E+03 -0.77852009464E+03  0.12690353543E+04  0.88610372284E+03 0.  0.
        -24    2    4    4    0    0 -0.44126575570E+03  0.38122964073E+03 -0.13705881039E+03  0.60418168856E+03  0.78733024585E+02 0.  0.
         24    2    4    4    0    0  0.32949236501E+02 -0.15219906391E+03 -0.64146128426E+03  0.66485366570E+03  0.79420465573E+02 0.  0.
         11    1    3    3    0    0  0.40874438127E+03 -0.23452788321E+03 -0.52038385331E+03  0.70205032014E+03  0.00000000000E+00 0.  1.
        -11    1    3    3    0    0 -0.42786206446E+00  0.54973063938E+01 -0.69859898655E+01  0.88998594334E+01  0.00000000000E+00 0. -1.
          2    1    6    6  502    0  0.14703553280E+02  0.98736209916E+00 -0.12438301148E+03  0.12525295569E+03  0.00000000000E+00 0. -1.
          3    1    5    5  503    0 -0.16797515464E+03  0.11114562410E+03 -0.75230140879E+02  0.21500831712E+03  0.00000000000E+00 0. -1.
         -4    1    5    5    0  503 -0.27329060107E+03  0.27008401663E+03 -0.61828669509E+02  0.38917337144E+03  0.00000000000E+00 0.  1.
         -3    1    6    6    0  502  0.18245683221E+02 -0.15318642601E+03 -0.51707827277E+03  0.53960071001E+03  0.00000000000E+00 0.  1.
<mgrwt>
<rscale>  0 0.14882857E+04</rscale>
<asrwt>0</asrwt>
<pdfrwt beam="1">  1        1 0.25275965E+00 0.14882857E+04</pdfrwt>
<pdfrwt beam="2">  1       -1 0.51853507E-01 0.14882857E+04</pdfrwt>
<totfact> 0.18901434E+01</totfact>
</mgrwt>
</event>
<event>
12    1  0.1397649E-007  0.1710027E+04  0.7818608E-02  0.8755666E-01
         -1   -1    0    0    0  501 -0.00000000000E+00  0.00000000000E+00  0.29650552893E+03  0.29650552893E+03  0.00000000000E+00 0.  1.
          1   -1    0    0  501    0  0.00000000000E+00 -0.00000000000E+00 -0.24655453917E+04  0.24655453917E+04  0.00000000000E+00 0. -1.
         23    2    1    2    0    0 -0.10238231479E+02  0.33305035927E+02 -0.17545395513E+04  0.17568246590E+04  0.82521504520E+02 0.  0.
        254    2    1    2    0    0  0.10238231479E+02 -0.33305035927E+02 -0.41450031147E+03  0.10052262616E+04  0.91512582850E+03 0.  0.
        -24    2    4    4    0    0 -0.27835980750E+03  0.29192058686E+03 -0.18829890695E+02  0.41175476447E+03  0.80533283926E+02 0.  0.
         24    2    4    4    0    0  0.28859803898E+03 -0.32522562279E+03 -0.39567042077E+03  0.59347149712E+03  0.81196072618E+02 0.  0.
         13    1    3    3    0    0  0.14974979557E+02 -0.21921743712E+02 -0.36784147278E+03  0.36879826729E+03  0.00000000000E+00 0.  1.
        -13    1    3    3    0    0 -0.25213211036E+02  0.55226779639E+02 -0.13866980785E+04  0.13880263917E+04  0.00000000000E+00 0. -1.
          2    1    6    6  502    0  0.14455672697E+03 -0.22150929298E+03 -0.24788223968E+03  0.36250326748E+03  0.00000000000E+00 0. -1.
          3    1    5    5  503    0 -0.14793726833E+03  0.97421649879E+02 -0.95968793851E+01  0.17739366764E+03  0.00000000000E+00 0. -1.
         -4    1    5    5    0  503 -0.13042253917E+03  0.19449893698E+03 -0.92330113099E+01  0.23436109683E+03  0.00000000000E+00 0.  1.
         -3    1    6    6    0  502  0.14404131201E+03 -0.10371632981E+03 -0.14778818110E+03  0.23096822964E+03  0.00000000000E+00 0.  1.
<mgrwt>
<rscale>  0 0.17100267E+04</rscale>
<asrwt>0</asrwt>
<pdfrwt beam="1">  1        1 0.37931465E+00 0.17100267E+04</pdfrwt>
<pdfrwt beam="2">  1       -1 0.45616238E-01 0.17100267E+04</pdfrwt>
<totfact> 0.65064533E+00</totfact>
</mgrwt>
</event>
<event>
12    1  0.1397649E-007  0.1880148E+04  0.7818608E-02  0.8664802E-01
          1   -1    0    0  501    0  0.00000000000E+00  0.00000000000E+00  0.16984032800E+04  0.16984032800E+04  0.00000000000E+00 0. -1.
         -1   -1    0    0    0  501 -0.00000000000E+00 -0.00000000000E+00 -0.52033529231E+03  0.52033529231E+03  0.00000000000E+00 0.  1.
         23    2    1    2    0    0  0.70802754188E+03  0.38783250453E+02  0.32736465513E+03  0.78593588987E+03  0.87866176522E+02 0.  0.
        254    2    1    2    0    0 -0.70802754188E+03 -0.38783250453E+02  0.85070333254E+03  0.14328026824E+04  0.90907657882E+03 0.  0.
        -24    2    4    4    0    0 -0.34603838892E+03 -0.45115593339E+03  0.28514291218E+03  0.64094997853E+03  0.78905967880E+02 0.  0.
         24    2    4    4    0    0 -0.36198915296E+03  0.41237268294E+03  0.56556042036E+03  0.79185270389E+03  0.78004737593E+02 0.  0.
         13    1    3    3    0    0  0.32367835834E+02 -0.10877052818E+02  0.32244838279E+02  0.46965057971E+02  0.00000000000E+00 0. -1.
        -13    1    3    3    0    0  0.67565970605E+03  0.49660303271E+02  0.29511981685E+03  0.73897083190E+03  0.00000000000E+00 0.  1.
          4    1    6    6  502    0 -0.17906311691E+02  0.53375971046E+02  0.69829370263E+02  0.89698223142E+02  0.00000000000E+00 0. -1.
          3    1    5    5  503    0 -0.28871241573E+01  0.30404109930E+01 -0.17761590204E+00  0.41965619637E+01  0.00000000000E+00 0. -1.
         -4    1    5    5    0  503 -0.34315126477E+03 -0.45419634438E+03  0.28532052809E+03  0.63675341657E+03  0.00000000000E+00 0.  1.
         -3    1    6    6    0  502 -0.34408284127E+03  0.35899671189E+03  0.49573105009E+03  0.70215448075E+03  0.00000000000E+00 0.  1.
<mgrwt>
<rscale>  0 0.18801480E+04</rscale>
<asrwt>0</asrwt>
<pdfrwt beam="1">  1        1 0.26129281E+00 0.18801480E+04</pdfrwt>
<pdfrwt beam="2">  1       -1 0.80051584E-01 0.18801480E+04</pdfrwt>
<totfact> 0.69748484E+00</totfact>
</mgrwt>
</event>
<event>
12    1  0.1397649E-007  0.1868706E+04  0.7818608E-02  0.8670592E-01
          2   -1    0    0  501    0  0.00000000000E+00  0.00000000000E+00  0.19094977680E+04  0.19094977680E+04  0.00000000000E+00 0. -1.
         -2   -1    0    0    0  501 -0.00000000000E+00 -0.00000000000E+00 -0.45719648406E+03  0.45719648406E+03  0.00000000000E+00 0.  1.
         23    2    1    2    0    0  0.50704202947E+03 -0.26474302807E+03  0.11052459204E+04  0.12481050583E+04  0.94958945273E+02 0.  0.
        254    2    1    2    0    0 -0.50704202947E+03  0.26474302807E+03  0.34705536350E+03  0.11185891938E+04  0.89644512857E+03 0.  0.
        -24    2    4    4    0    0  0.47028583588E+02  0.42290350669E+02 -0.24962130279E+03  0.27080935425E+03  0.83825712700E+02 0.  0.
         24    2    4    4    0    0 -0.55407061306E+03  0.22245267740E+03  0.59667666629E+03  0.84777983952E+03  0.78918782762E+02 0.  0.
         13    1    3    3    0    0  0.15056302619E+03 -0.12732633814E+03  0.34983595314E+03  0.40157989908E+03  0.00000000000E+00 0.  1.
        -13    1    3    3    0    0  0.35647900328E+03 -0.13741668994E+03  0.75540996729E+03  0.84652515918E+03  0.00000000000E+00 0. -1.
          2    1    6    6  502    0 -0.10975074051E+03  0.15281732525E+02  0.13150164080E+03  0.17196347846E+03  0.00000000000E+00 0. -1.
          3    1    5    5  503    0 -0.12709729293E+02  0.54609632920E+01 -0.26812581155E+01  0.14090723326E+02  0.00000000000E+00 0. -1.
         -4    1    5    5    0  503  0.59738312881E+02  0.36829387377E+02 -0.24694004467E+03  0.25671863092E+03  0.00000000000E+00 0.  1.
         -1    1    6    6    0  502 -0.44431987254E+03  0.20717094488E+03  0.46517502549E+03  0.67581636106E+03  0.00000000000E+00 0.  1.
<mgrwt>
<rscale>  0 0.18687061E+04</rscale>
<asrwt>0</asrwt>
<pdfrwt beam="1">  1        2 0.29376888E+00 0.18687061E+04</pdfrwt>
<pdfrwt beam="2">  1       -2 0.70337922E-01 0.18687061E+04</pdfrwt>
<totfact> 0.12954858E+01</totfact>
</mgrwt>
</event>
<event>
12    1  0.1397649E-007  0.1854531E+04  0.7818608E-02  0.8677826E-01
          2   -1    0    0  501    0  0.00000000000E+00  0.00000000000E+00  0.24583561258E+04  0.24583561258E+04  0.00000000000E+00 0. -1.
         -2   -1    0    0    0  501 -0.00000000000E+00 -0.00000000000E+00 -0.34975439667E+03  0.34975439667E+03  0.00000000000E+00 0.  1.
         23    2    1    2    0    0  0.29832274550E+03 -0.39059986088E+03  0.39865892376E+02  0.50126106037E+03  0.90048039778E+02 0.  0.
        254    2    1    2    0    0 -0.29832274550E+03  0.39059986088E+03  0.20687358368E+04  0.23068494621E+04  0.89460704596E+03 0.  0.
        -24    2    4    4    0    0 -0.35855044891E+03 -0.70350077146E+01  0.17486190246E+04  0.17866629530E+04  0.76733948821E+02 0.  0.
         24    2    4    4    0    0  0.60227703411E+02  0.39763486859E+03  0.32011681221E+03  0.52018650909E+03  0.79864671764E+02 0.  0.
         11    1    3    3    0    0  0.74332679057E+02 -0.14927972574E+03 -0.15129512526E+02  0.16744756147E+03  0.00000000000E+00 0. -1.
        -11    1    3    3    0    0  0.22399006644E+03 -0.24132013514E+03  0.54995404901E+02  0.33381349890E+03  0.00000000000E+00 0.  1.
          4    1    6    6  502    0  0.83152324372E+01  0.27929150937E+03  0.19865273595E+03  0.34283494541E+03  0.00000000000E+00 0. -1.
          3    1    5    5  503    0 -0.21842599299E+03 -0.29242793994E+02  0.11952808582E+04  0.12154264212E+04  0.00000000000E+00 0. -1.
         -4    1    5    5    0  503 -0.14012445592E+03  0.22207786279E+02  0.55333816639E+03  0.57123653183E+03  0.00000000000E+00 0.  1.
         -3    1    6    6    0  502  0.51912470974E+02  0.11834335922E+03  0.12146407626E+03  0.17735156367E+03  0.00000000000E+00 0.  1.
<mgrwt>
<rscale>  0 0.18545305E+04</rscale>
<asrwt>0</asrwt>
<pdfrwt beam="1">  1        2 0.37820862E+00 0.18545305E+04</pdfrwt>
<pdfrwt beam="2">  1       -2 0.53808371E-01 0.18545305E+04</pdfrwt>
<totfact> 0.11263339E+01</totfact>
</mgrwt>
</event>
<event>
12    1  0.1397649E-007  0.1721205E+04  0.7818608E-02  0.8749362E-01
         -1   -1    0    0    0  501 -0.00000000000E+00  0.00000000000E+00  0.47173090486E+03  0.47173090486E+03  0.00000000000E+00 0.  1.
          1   -1    0    0  501    0  0.00000000000E+00 -0.00000000000E+00 -0.15700396779E+04  0.15700396779E+04  0.00000000000E+00 0. -1.
         23    2    1    2    0    0 -0.18486495245E+03  0.30418377763E+03 -0.10079666997E+04  0.10725852788E+04  0.87974379190E+02 0.  0.
        254    2    1    2    0    0  0.18486495245E+03 -0.30418377763E+03 -0.90342073300E+02  0.96918530391E+03  0.89691451203E+03 0.  0.
        -24    2    4    4    0    0  0.49069774844E+03 -0.34482754008E+03 -0.19155213057E+03  0.63466071409E+03  0.80073032636E+02 0.  0.
         24    2    4    4    0    0 -0.30583279599E+03  0.40643762456E+02  0.10121005727E+03  0.33452458982E+03  0.80483606856E+02 0.  0.
         13    1    3    3    0    0 -0.68138643434E+02  0.87507374907E+02 -0.43657313418E+03  0.45044035885E+03  0.00000000000E+00 0. -1.
        -13    1    3    3    0    0 -0.11672630901E+03  0.21667640272E+03 -0.57139356552E+03  0.62214491996E+03  0.00000000000E+00 0.  1.
          2    1    6    6  502    0 -0.75459644653E+02  0.43258478316E+02  0.42322583245E+02  0.96729803938E+02  0.00000000000E+00 0. -1.
          1    1    5    5  503    0  0.24187776879E+03 -0.21187500252E+03 -0.80488860316E+02  0.33147296777E+03  0.00000000000E+00 0. -1.
         -2    1    5    5    0  503  0.24881997965E+03 -0.13295253757E+03 -0.11106327026E+03  0.30318774632E+03  0.00000000000E+00 0.  1.
         -1    1    6    6    0  502 -0.23037315134E+03 -0.26147158600E+01  0.58887474027E+02  0.23779478588E+03  0.00000000000E+00 0.  1.
<mgrwt>
<rscale>  0 0.17212045E+04</rscale>
<asrwt>0</asrwt>
<pdfrwt beam="1">  1        1 0.24154456E+00 0.17212045E+04</pdfrwt>
<pdfrwt beam="2">  1       -1 0.72573986E-01 0.17212045E+04</pdfrwt>
<totfact> 0.10642846E+01</totfact>
</mgrwt>
</event>
<event>
12    1  0.1397649E-007  0.1172324E+04  0.7818608E-02  0.9137433E-01
         -1   -1    0    0    0  501 -0.00000000000E+00  0.00000000000E+00  0.74113020468E+03  0.74113020468E+03  0.00000000000E+00 0.  1.
          1   -1    0    0  501    0  0.00000000000E+00 -0.00000000000E+00 -0.46359685285E+03  0.46359685285E+03  0.00000000000E+00 0. -1.
         23    2    1    2    0    0 -0.15112091138E+03 -0.14367010484E+03  0.12867157799E+03  0.26109281956E+03  0.90191222207E+02 0.  0.
        254    2    1    2    0    0  0.15112091138E+03  0.14367010484E+03  0.14886177385E+03  0.94363423797E+03  0.90818892223E+03 0.  0.
        -24    2    4    4    0    0  0.27425339940E+03 -0.29943842160E+03  0.22467058719E+03  0.47085067854E+03  0.79656721737E+02 0.  0.
         24    2    4    4    0    0 -0.12313248802E+03  0.44310852645E+03 -0.75808813339E+02  0.47278355943E+03  0.79186754378E+02 0.  0.
         11    1    3    3    0    0 -0.15352020084E+03 -0.15180044731E+03  0.13069894243E+03  0.25237678463E+03  0.00000000000E+00 0. -1.
        -11    1    3    3    0    0  0.23992894566E+01  0.81303424613E+01 -0.20273644395E+01  0.87160349360E+01  0.00000000000E+00 0.  1.
          2    1    6    6  502    0  0.95852411063E+01  0.11266474138E+02 -0.41179342096E+01  0.15354727894E+02  0.00000000000E+00 0. -1.
          3    1    5    5  503    0  0.32418206688E+02 -0.30713060399E+02 -0.10145831275E+01  0.44668351020E+02  0.00000000000E+00 0. -1.
         -4    1    5    5    0  503  0.24183519271E+03 -0.26872536121E+03  0.22568517032E+03  0.42618232752E+03  0.00000000000E+00 0.  1.
         -1    1    6    6    0  502 -0.13271772912E+03  0.43184205231E+03 -0.71690879129E+02  0.45742883153E+03  0.00000000000E+00 0.  1.
<mgrwt>
<rscale>  0 0.11723236E+04</rscale>
<asrwt>0</asrwt>
<pdfrwt beam="1">  1        1 0.71322593E-01 0.11723236E+04</pdfrwt>
<pdfrwt beam="2">  1       -1 0.11402003E+00 0.11723236E+04</pdfrwt>
<totfact> 0.34179666E+01</totfact>
</mgrwt>
</event>
<event>
12    1  0.1397649E-007  0.2016403E+04  0.7818608E-02  0.8598990E-01
          1   -1    0    0  501    0  0.00000000000E+00  0.00000000000E+00  0.39188951138E+04  0.39188951138E+04  0.00000000000E+00 0. -1.
         -1   -1    0    0    0  501 -0.00000000000E+00 -0.00000000000E+00 -0.25937681909E+03  0.25937681909E+03  0.00000000000E+00 0.  1.
         23    2    1    2    0    0  0.62488807584E+01  0.61665380010E+03  0.40047793938E+03  0.74094630479E+03  0.91202461385E+02 0.  0.
        254    2    1    2    0    0 -0.62488807584E+01 -0.61665380010E+03  0.32590403553E+04  0.34373256281E+04  0.90197698323E+03 0.  0.
        -24    2    4    4    0    0 -0.43179577007E+03 -0.44506108753E+03  0.17724418289E+04  0.18794844183E+04  0.79904210527E+02 0.  0.
         24    2    4    4    0    0  0.42554688931E+03 -0.17159271256E+03  0.14865985264E+04  0.15578412098E+04  0.79748620012E+02 0.  0.
         11    1    3    3    0    0 -0.15388175826E+02  0.16591280437E+03  0.65901412623E+02  0.17918384635E+03  0.00000000000E+00 0.  1.
        -11    1    3    3    0    0  0.21637056584E+02  0.45074099573E+03  0.33457652675E+03  0.56176245843E+03  0.00000000000E+00 0. -1.
          2    1    6    6  502    0  0.32406962427E+02 -0.38612959491E+02  0.17875788812E+03  0.18572978872E+03  0.00000000000E+00 0. -1.
          1    1    5    5  503    0 -0.10531472966E+03 -0.64060906678E+02  0.36947295561E+03  0.38949359042E+03  0.00000000000E+00 0. -1.
         -2    1    5    5    0  503 -0.32648104041E+03 -0.38100018086E+03  0.14029688733E+04  0.14899908279E+04  0.00000000000E+00 0.  1.
         -1    1    6    6    0  502  0.39313992688E+03 -0.13297975307E+03  0.13078406383E+04  0.13721114211E+04  0.00000000000E+00 0.  1.
<mgrwt>
<rscale>  0 0.20164033E+04</rscale>
<asrwt>0</asrwt>
<pdfrwt beam="1">  1        1 0.60290690E+00 0.20164033E+04</pdfrwt>
<pdfrwt beam="2">  1       -1 0.39904129E-01 0.20164033E+04</pdfrwt>
<totfact> 0.64460758E-01</totfact>
</mgrwt>
</event>
<event>
12    1  0.1397649E-007  0.3012034E+04  0.7818608E-02  0.8240303E-01
          1   -1    0    0  501    0  0.00000000000E+00  0.00000000000E+00  0.30812897518E+04  0.30812897518E+04  0.00000000000E+00 0. -1.
         -1   -1    0    0    0  501 -0.00000000000E+00 -0.00000000000E+00 -0.73608366048E+03  0.73608366048E+03  0.00000000000E+00 0.  1.
         23    2    1    2    0    0  0.36556352690E+03 -0.34940031153E+03  0.26814876892E+04  0.27302875497E+04  0.91523805175E+02 0.  0.
        254    2    1    2    0    0 -0.36556352690E+03  0.34940031153E+03 -0.33628159787E+03  0.10870858626E+04  0.90163911274E+03 0.  0.
        -24    2    4    4    0    0 -0.72293926591E+02 -0.19374059215E+03  0.17406156693E+03  0.28164642648E+03  0.79154605667E+02 0.  0.
         24    2    4    4    0    0 -0.29326960031E+03  0.54314090368E+03 -0.51034316481E+03  0.80543943608E+03  0.85284462919E+02 0.  0.
         11    1    3    3    0    0  0.98290038677E+02 -0.77301181350E+02  0.48091982420E+03  0.49691073811E+03  0.00000000000E+00 0.  1.
        -11    1    3    3    0    0  0.26727348822E+03 -0.27209913018E+03  0.22005678650E+04  0.22333768116E+04  0.00000000000E+00 0. -1.
          4    1    6    6  502    0 -0.29270232801E+03  0.53670918877E+03 -0.48812656175E+03  0.78230361525E+03  0.00000000000E+00 0. -1.
          1    1    5    5  503    0 -0.49077090227E+02 -0.14779332578E+03  0.16917020463E+03  0.22993474306E+03  0.00000000000E+00 0. -1.
         -2    1    5    5    0  503 -0.23216836365E+02 -0.45947266369E+02  0.48913623059E+01  0.51711683426E+02  0.00000000000E+00 0.  1.
         -3    1    6    6    0  502 -0.56727229833E+00  0.64317149042E+01 -0.22216603054E+02  0.23135820836E+02  0.00000000000E+00 0.  1.
<mgrwt>
<rscale>  0 0.30120339E+04</rscale>
<asrwt>0</asrwt>
<pdfrwt beam="1">  1        1 0.47404457E+00 0.30120339E+04</pdfrwt>
<pdfrwt beam="2">  1       -1 0.11324364E+00 0.30120339E+04</pdfrwt>
<totfact> 0.31520215E-01</totfact>
</mgrwt>
</event>
<event>
12    1  0.1397649E-007  0.1496130E+04  0.7818608E-02  0.8887031E-01
          2   -1    0    0  501    0  0.00000000000E+00  0.00000000000E+00  0.12508745701E+04  0.12508745701E+04  0.00000000000E+00 0. -1.
         -2   -1    0    0    0  501 -0.00000000000E+00 -0.00000000000E+00 -0.44736790710E+03  0.44736790710E+03  0.00000000000E+00 0.  1.
         23    2    1    2    0    0 -0.11218568369E+03 -0.31540911191E+03 -0.90963056187E+02  0.35891317000E+03  0.92064382437E+02 0.  0.
        254    2    1    2    0    0  0.11218568369E+03  0.31540911191E+03  0.89446971922E+03  0.13393293072E+04  0.93896665495E+03 0.  0.
        -24    2    4    4    0    0  0.31205680366E+03 -0.46053678811E+02  0.85750076874E+03  0.91718919561E+03  0.80175196276E+02 0.  0.
         24    2    4    4    0    0 -0.19987111998E+03  0.36146279072E+03  0.36968950474E+02  0.42214011162E+03  0.78941477484E+02 0.  0.
         11    1    3    3    0    0 -0.97246332939E+01 -0.15495138008E+03 -0.57794096695E+02  0.16566428792E+03  0.00000000000E+00 0.  1.
        -11    1    3    3    0    0 -0.10246105039E+03 -0.16045773183E+03 -0.33168959491E+02  0.19324888208E+03  0.00000000000E+00 0. -1.
          2    1    6    6  502    0 -0.26879807524E+00  0.50197185251E+02  0.11493773761E+02  0.51496956170E+02  0.00000000000E+00 0. -1.
          3    1    5    5  503    0  0.50984335113E+02 -0.24566731587E+02  0.23692868796E+03  0.24359419103E+03  0.00000000000E+00 0. -1.
         -4    1    5    5    0  503  0.26107246855E+03 -0.21486947224E+02  0.62057208079E+03  0.67359500458E+03  0.00000000000E+00 0.  1.
         -1    1    6    6    0  502 -0.19960232190E+03  0.31126560547E+03  0.25475176713E+02  0.37064315545E+03  0.00000000000E+00 0.  1.
<mgrwt>
<rscale>  0 0.14961299E+04</rscale>
<asrwt>0</asrwt>
<pdfrwt beam="1">  1        2 0.19244224E+00 0.14961299E+04</pdfrwt>
<pdfrwt beam="2">  1       -2 0.68825833E-01 0.14961299E+04</pdfrwt>
<totfact> 0.32935136E+01</totfact>
</mgrwt>
</event>
<event>
12    1  0.1397649E-007  0.1363433E+04  0.7818608E-02  0.8980721E-01
         -2   -1    0    0    0  501 -0.00000000000E+00  0.00000000000E+00  0.72905101348E+03  0.72905101348E+03  0.00000000000E+00 0.  1.
          2   -1    0    0  501    0  0.00000000000E+00 -0.00000000000E+00 -0.63745556881E+03  0.63745556881E+03  0.00000000000E+00 0. -1.
         23    2    1    2    0    0  0.10907608207E+02 -0.32819565211E+03  0.23270338474E+03  0.41242975863E+03  0.90089281009E+02 0.  0.
        254    2    1    2    0    0 -0.10907608207E+02  0.32819565211E+03 -0.14110794006E+03  0.95407682366E+03  0.88460147678E+03 0.  0.
        -24    2    4    4    0    0 -0.29193663775E+03  0.38415059703E+03  0.17467477644E+03  0.51918949571E+03  0.79042857145E+02 0.  0.
         24    2    4    4    0    0  0.28102902955E+03 -0.55954944921E+02 -0.31578271650E+03  0.43488732796E+03  0.85439994564E+02 0.  0.
         13    1    3    3    0    0  0.28410086427E+01  0.51529223462E+01  0.94979997967E+01  0.11173000445E+02  0.00000000000E+00 0. -1.
        -13    1    3    3    0    0  0.80665995644E+01 -0.33334857446E+03  0.22320538494E+03  0.40125675818E+03  0.00000000000E+00 0.  1.
          2    1    6    6  502    0  0.13487369164E+02 -0.84033116547E+01  0.28232128950E+01  0.16139866938E+02  0.00000000000E+00 0. -1.
          3    1    5    5  503    0 -0.77707669214E+02  0.14741892813E+03  0.32944537087E+02  0.16987102386E+03  0.00000000000E+00 0. -1.
         -4    1    5    5    0  503 -0.21422896854E+03  0.23673166890E+03  0.14173023935E+03  0.34931847184E+03  0.00000000000E+00 0.  1.
         -1    1    6    6    0  502  0.26754166038E+03 -0.47551633267E+02 -0.31860592939E+03  0.41874746102E+03  0.00000000000E+00 0.  1.
<mgrwt>
<rscale>  0 0.13634334E+04</rscale>
<asrwt>0</asrwt>
<pdfrwt beam="1">  1        2 0.98070088E-01 0.13634334E+04</pdfrwt>
<pdfrwt beam="2">  1       -2 0.11216169E+00 0.13634334E+04</pdfrwt>
<totfact> 0.28167351E+01</totfact>
</mgrwt>
</event>
<event>
12    1  0.1397649E-007  0.1284279E+04  0.7818608E-02  0.9042126E-01
          2   -1    0    0  501    0  0.00000000000E+00  0.00000000000E+00  0.14913693791E+04  0.14913693791E+04  0.00000000000E+00 0. -1.
         -2   -1    0    0    0  501 -0.00000000000E+00 -0.00000000000E+00 -0.27648624826E+03  0.27648624826E+03  0.00000000000E+00 0.  1.
         23    2    1    2    0    0 -0.60251989456E+02 -0.30547399598E+01  0.83664645829E+03  0.84412289274E+03  0.94480306013E+02 0.  0.
        254    2    1    2    0    0  0.60251989456E+02  0.30547399598E+01  0.37823667257E+03  0.92373273463E+03  0.84058286378E+03 0.  0.
        -24    2    4    4    0    0  0.34657990435E+03  0.58856383396E+02 -0.84562278308E+02  0.37072315775E+03  0.81872930915E+02 0.  0.
         24    2    4    4    0    0 -0.28632791490E+03 -0.55801643436E+02  0.46279895088E+03  0.55300957687E+03  0.80865474213E+02 0.  0.
         11    1    3    3    0    0 -0.75600939259E+02  0.15099926364E+02  0.43539272122E+03  0.44216550237E+03  0.00000000000E+00 0. -1.
        -11    1    3    3    0    0  0.15348949803E+02 -0.18154666323E+02  0.40125373707E+03  0.40195739038E+03  0.00000000000E+00 0.  1.
          4    1    6    6  502    0 -0.68793878035E+02  0.80053063985E+01  0.16336224787E+03  0.17743704972E+03  0.00000000000E+00 0. -1.
          1    1    5    5  503    0  0.85693690877E+02  0.24972175548E+02 -0.57685779886E+02  0.10627637277E+03  0.00000000000E+00 0. -1.
         -2    1    5    5    0  503  0.26088621347E+03  0.33884207848E+02 -0.26876498422E+02  0.26444678499E+03  0.00000000000E+00 0.  1.
         -3    1    6    6    0  502 -0.21753403686E+03 -0.63806949834E+02  0.29943670301E+03  0.37557252715E+03  0.00000000000E+00 0.  1.
<mgrwt>
<rscale>  0 0.12842790E+04</rscale>
<asrwt>0</asrwt>
<pdfrwt beam="1">  1        2 0.22944144E+00 0.12842790E+04</pdfrwt>
<pdfrwt beam="2">  1       -2 0.42536347E-01 0.12842790E+04</pdfrwt>
<totfact> 0.65967552E+01</totfact>
</mgrwt>
</event>
<event>
12    1  0.1397649E-007  0.2326842E+04  0.7818608E-02  0.8467412E-01
          1   -1    0    0  501    0  0.00000000000E+00  0.00000000000E+00  0.27316807354E+04  0.27316807354E+04  0.00000000000E+00 0. -1.
         -1   -1    0    0    0  501 -0.00000000000E+00 -0.00000000000E+00 -0.49550029835E+03  0.49550029835E+03  0.00000000000E+00 0.  1.
         23    2    1    2    0    0 -0.70052236750E+03  0.68057611001E+03  0.11621121863E+04  0.15206583141E+04  0.89339497772E+02 0.  0.
        254    2    1    2    0    0  0.70052236750E+03 -0.68057611001E+03  0.10740682508E+04  0.17065227197E+04  0.89704055455E+03 0.  0.
        -24    2    4    4    0    0  0.26114912095E+03 -0.74992320594E+03  0.94673337558E+03  0.12383875535E+04  0.81951022136E+02 0.  0.
         24    2    4    4    0    0  0.43937324655E+03  0.69347095930E+02  0.12733487519E+03  0.46813516616E+03  0.71263552092E+02 0.  0.
         11    1    3    3    0    0 -0.41133749352E+03  0.43893940141E+03  0.76517215944E+03  0.97332151177E+03  0.00000000000E+00 0. -1.
        -11    1    3    3    0    0 -0.28918487398E+03  0.24163670860E+03  0.39694002682E+03  0.54733680232E+03  0.00000000000E+00 0.  1.
          4    1    6    6  502    0  0.38589005825E+02  0.27541880329E+02  0.16696988540E+02  0.50263863450E+02  0.00000000000E+00 0. -1.
          3    1    5    5  503    0  0.23343085003E+03 -0.57090812074E+03  0.74747093136E+03  0.96909175896E+03  0.00000000000E+00 0. -1.
         -4    1    5    5    0  503  0.27718270920E+02 -0.17901508521E+03  0.19926244422E+03  0.26929579453E+03  0.00000000000E+00 0.  1.
         -3    1    6    6    0  502  0.40078424073E+03  0.41805215602E+02  0.11063788665E+03  0.41787130271E+03  0.00000000000E+00 0.  1.
<mgrwt>
<rscale>  0 0.23268422E+04</rscale>
<asrwt>0</asrwt>
<pdfrwt beam="1">  1        1 0.42025856E+00 0.23268422E+04</pdfrwt>
<pdfrwt beam="2">  1       -1 0.76230817E-01 0.23268422E+04</pdfrwt>
<totfact> 0.14523106E+00</totfact>
</mgrwt>
</event>
<event>
12    1  0.1397649E-007  0.1635150E+04  0.7818608E-02  0.8799240E-01
          1   -1    0    0  501    0  0.00000000000E+00  0.00000000000E+00  0.91985035395E+03  0.91985035395E+03  0.00000000000E+00 0. -1.
         -1   -1    0    0    0  501 -0.00000000000E+00 -0.00000000000E+00 -0.72667154369E+03  0.72667154369E+03  0.00000000000E+00 0.  1.
         23    2    1    2    0    0 -0.41056048404E+03  0.32065052383E+03  0.22789810654E+03  0.57598656942E+03  0.91903817638E+02 0.  0.
        254    2    1    2    0    0  0.41056048404E+03 -0.32065052383E+03 -0.34719296271E+02  0.10705353282E+04  0.93459284715E+03 0.  0.
        -24    2    4    4    0    0 -0.15966678951E+03 -0.44303495065E+03 -0.59716126358E+02  0.48140948407E+03  0.80097593213E+02 0.  0.
         24    2    4    4    0    0  0.57022727355E+03  0.12238442681E+03  0.24996830087E+02  0.58912584415E+03  0.79418683620E+02 0.  0.
         13    1    3    3    0    0 -0.10443890610E+03  0.35193290965E+02  0.54134359211E+02  0.12278673252E+03  0.00000000000E+00 0.  1.
        -13    1    3    3    0    0 -0.30612157794E+03  0.28545723287E+03  0.17376374733E+03  0.45319983689E+03  0.00000000000E+00 0. -1.
          2    1    6    6  502    0  0.48231060968E+03  0.85092565027E+02  0.44079878030E+02  0.49173906137E+03  0.00000000000E+00 0. -1.
          1    1    5    5  503    0 -0.11551804689E+03 -0.38444137360E+03 -0.69505684607E+02  0.40739493012E+03  0.00000000000E+00 0. -1.
         -2    1    5    5    0  503 -0.44148742622E+02 -0.58593577047E+02  0.97895582485E+01  0.74014553954E+02  0.00000000000E+00 0.  1.
         -1    1    6    6    0  502  0.87916663874E+02  0.37291861786E+02 -0.19083047943E+02  0.97386782784E+02  0.00000000000E+00 0.  1.
<mgrwt>
<rscale>  0 0.16351502E+04</rscale>
<asrwt>0</asrwt>
<pdfrwt beam="1">  1        1 0.14151544E+00 0.16351502E+04</pdfrwt>
<pdfrwt beam="2">  1       -1 0.11179562E+00 0.16351502E+04</pdfrwt>
<totfact> 0.12320078E+01</totfact>
</mgrwt>
</event>
<event>
12    1  0.1397649E-007  0.2061873E+04  0.7818608E-02  0.8578227E-01
          2   -1    0    0  501    0  0.00000000000E+00  0.00000000000E+00  0.22324382436E+04  0.22324382436E+04  0.00000000000E+00 0. -1.
         -2   -1    0    0    0  501 -0.00000000000E+00 -0.00000000000E+00 -0.47608491752E+03  0.47608491752E+03  0.00000000000E+00 0.  1.
         23    2    1    2    0    0 -0.34465195178E+03 -0.70461413543E+03  0.35455015569E+03  0.86563629493E+03  0.91402048584E+02 0.  0.
        254    2    1    2    0    0  0.34465195178E+03  0.70461413543E+03  0.14018031704E+04  0.18428868662E+04  0.90327948354E+03 0.  0.
        -24    2    4    4    0    0  0.32785677223E+03  0.44085802991E+03  0.16999997006E+03  0.58061141927E+03  0.79773208069E+02 0.  0.
         24    2    4    4    0    0  0.16795179552E+02  0.26375610551E+03  0.12318032003E+04  0.12622754469E+04  0.78427152960E+02 0.  0.
         13    1    3    3    0    0 -0.11408589295E+03 -0.20730339275E+03  0.63473995888E+02  0.24498823598E+03  0.00000000000E+00 0.  1.
        -13    1    3    3    0    0 -0.23056605883E+03 -0.49731074268E+03  0.29107615980E+03  0.62064805895E+03  0.00000000000E+00 0. -1.
          4    1    6    6  502    0  0.41644517941E+02  0.13129792891E+03  0.71787836174E+03  0.73097383966E+03  0.00000000000E+00 0. -1.
          1    1    5    5  503    0  0.20800145879E+03  0.21915203353E+03  0.10992535465E+03  0.32152107902E+03  0.00000000000E+00 0. -1.
         -2    1    5    5    0  503  0.11985531344E+03  0.22170599638E+03  0.60074615403E+02  0.25909034025E+03  0.00000000000E+00 0.  1.
         -3    1    6    6    0  502 -0.24849338389E+02  0.13245817660E+03  0.51392483860E+03  0.53130160728E+03  0.00000000000E+00 0.  1.
<mgrwt>
<rscale>  0 0.20618731E+04</rscale>
<asrwt>0</asrwt>
<pdfrwt beam="1">  1        2 0.34345203E+00 0.20618731E+04</pdfrwt>
<pdfrwt beam="2">  1       -2 0.73243835E-01 0.20618731E+04</pdfrwt>
<totfact> 0.77016655E+00</totfact>
</mgrwt>
</event>
<event>
12    1  0.1397649E-007  0.1537144E+04  0.7818608E-02  0.8860121E-01
         -2   -1    0    0    0  501 -0.00000000000E+00  0.00000000000E+00  0.13950282206E+03  0.13950282206E+03  0.00000000000E+00 0. -1.
          2   -1    0    0  501    0  0.00000000000E+00 -0.00000000000E+00 -0.42343463114E+04  0.42343463114E+04  0.00000000000E+00 0.  1.
         23    2    1    2    0    0 -0.44181630617E+03  0.23597302938E+03 -0.15038656963E+04  0.15877149988E+04  0.91334362414E+02 0.  0.
        254    2    1    2    0    0  0.44181630617E+03 -0.23597302938E+03 -0.25909777931E+04  0.27861341347E+04  0.89358411669E+03 0.  0.
        -24    2    4    4    0    0  0.69563376686E+03 -0.24196571458E+03 -0.16587160508E+04  0.18165857107E+04  0.78682669286E+02 0.  0.
         24    2    4    4    0    0 -0.25381746070E+03  0.59926851959E+01 -0.93226174226E+03  0.96954842404E+03  0.80330410563E+02 0.  0.
         13    1    3    3    0    0 -0.19277798809E+03  0.13645117583E+03 -0.59687992798E+03  0.64190959216E+03  0.00000000000E+00 0.  1.
        -13    1    3    3    0    0 -0.24903831808E+03  0.99521853548E+02 -0.90698576835E+03  0.94580540662E+03  0.00000000000E+00 0. -1.
          2    1    6    6  502    0 -0.82861143353E+02  0.18673691086E+02 -0.19635777671E+03  0.21394170302E+03  0.00000000000E+00 0. -1.
          1    1    5    5  503    0  0.62672227774E+03 -0.23979132908E+03 -0.15263241393E+04  0.16673170284E+04  0.00000000000E+00 0. -1.
         -2    1    5    5    0  503  0.68911489128E+02 -0.21743854999E+01 -0.13239191146E+03  0.14926868227E+03  0.00000000000E+00 0.  1.
         -3    1    6    6    0  502 -0.17095631734E+03 -0.12681005890E+02 -0.73590396555E+03  0.75560672102E+03  0.00000000000E+00 0.  1.
<mgrwt>
<rscale>  0 0.15371444E+04</rscale>
<asrwt>0</asrwt>
<pdfrwt beam="1">  1        2 0.65143797E+00 0.15371444E+04</pdfrwt>
<pdfrwt beam="2">  1       -2 0.21461970E-01 0.15371444E+04</pdfrwt>
<totfact> 0.40544689E+00</totfact>
</mgrwt>
</event>
<event>
12    1  0.1397649E-007  0.1691385E+04  0.7818608E-02  0.8766293E-01
          1   -1    0    0  501    0  0.00000000000E+00  0.00000000000E+00  0.66645549656E+03  0.66645549656E+03  0.00000000000E+00 0. -1.
         -1   -1    0    0    0  501 -0.00000000000E+00 -0.00000000000E+00 -0.10731334802E+04  0.10731334802E+04  0.00000000000E+00 0.  1.
         23    2    1    2    0    0 -0.49273964392E+03  0.24066044554E+03  0.12314582944E+03  0.56858583402E+03  0.86111257098E+02 0.  0.
        254    2    1    2    0    0  0.49273964392E+03 -0.24066044554E+03 -0.52982381313E+03  0.11710031428E+04  0.88872114902E+03 0.  0.
        -24    2    4    4    0    0  0.74346891737E+03 -0.21459234543E+03 -0.36444713713E+03  0.85899199680E+03  0.79054595032E+02 0.  0.
         24    2    4    4    0    0 -0.25072927344E+03 -0.26068100104E+02 -0.16537667600E+03  0.31201114599E+03  0.80354190004E+02 0.  0.
         13    1    3    3    0    0 -0.42950911547E+03  0.22014606393E+03  0.13476534810E+03  0.50110285249E+03  0.00000000000E+00 0. -1.
        -13    1    3    3    0    0 -0.63230528458E+02  0.20514381611E+02 -0.11619518652E+02  0.67482981526E+02  0.00000000000E+00 0.  1.
          4    1    6    6  502    0 -0.20284973985E+03 -0.49082028087E+02 -0.14895614163E+03  0.25640786760E+03  0.00000000000E+00 0. -1.
          1    1    5    5  503    0  0.66701984064E+03 -0.21546068007E+03 -0.33702407819E+03  0.77776860423E+03  0.00000000000E+00 0. -1.
         -2    1    5    5    0  503  0.76449076730E+02  0.86833463176E+00 -0.27423058945E+02  0.81223392565E+02  0.00000000000E+00 0.  1.
         -3    1    6    6    0  502 -0.47879533589E+02  0.23013927983E+02 -0.16420534368E+02  0.55603278382E+02  0.00000000000E+00 0.  1.
<mgrwt>
<rscale>  0 0.16913849E+04</rscale>
<asrwt>0</asrwt>
<pdfrwt beam="1">  1        1 0.10253162E+00 0.16913849E+04</pdfrwt>
<pdfrwt beam="2">  1       -1 0.16509746E+00 0.16913849E+04</pdfrwt>
<totfact> 0.74753287E+00</totfact>
</mgrwt>
</event>
<event>
12    1  0.1397649E-007  0.1257051E+04  0.7818608E-02  0.9064335E-01
         -2   -1    0    0    0  501 -0.00000000000E+00  0.00000000000E+00  0.33216124838E+03  0.33216124838E+03  0.00000000000E+00 0.  1.
          2   -1    0    0  501    0  0.00000000000E+00 -0.00000000000E+00 -0.11893140236E+04  0.11893140236E+04  0.00000000000E+00 0. -1.
         23    2    1    2    0    0 -0.12793952162E+03  0.99279895154E+02  0.83260994679E+02  0.20568802717E+03  0.95656429536E+02 0.  0.
        254    2    1    2    0    0  0.12793952162E+03 -0.99279895154E+02 -0.94041376994E+03  0.13157872449E+04  0.90592107618E+03 0.  0.
        -24    2    4    4    0    0 -0.14960498854E+03 -0.48667658750E+02  0.12117661325E+03  0.21430916557E+03  0.80588170609E+02 0.  0.
         24    2    4    4    0    0  0.27754451016E+03 -0.50612236404E+02 -0.10615903832E+04  0.11014780793E+04  0.81775692583E+02 0.  0.
         11    1    3    3    0    0 -0.97225420270E+02  0.11266052016E+03  0.46403407497E+02  0.15587960539E+03  0.00000000000E+00 0.  1.
        -11    1    3    3    0    0 -0.30714101349E+02 -0.13380625005E+02  0.36857587182E+02  0.49808421778E+02  0.00000000000E+00 0. -1.
          2    1    6    6  502    0  0.27779429353E+03 -0.46231857302E+02 -0.10600633831E+04  0.10968324532E+04  0.00000000000E+00 0. -1.
          3    1    5    5  503    0 -0.96207708939E+02  0.48270097648E+01  0.42750333312E+02  0.10538887171E+03  0.00000000000E+00 0. -1.
         -4    1    5    5    0  503 -0.53397279605E+02 -0.53494668515E+02  0.78426279934E+02  0.10892029385E+03  0.00000000000E+00 0.  1.
         -1    1    6    6    0  502 -0.24978336434E+00 -0.43803791014E+01 -0.15270000882E+01  0.46456261226E+01  0.00000000000E+00 0.  1.
<mgrwt>
<rscale>  0 0.12570506E+04</rscale>
<asrwt>0</asrwt>
<pdfrwt beam="1">  1        2 0.18297139E+00 0.12570506E+04</pdfrwt>
<pdfrwt beam="2">  1       -2 0.51101730E-01 0.12570506E+04</pdfrwt>
<totfact> 0.68371724E+01</totfact>
</mgrwt>
</event>
<event>
12    1  0.1397649E-007  0.2141120E+04  0.7818608E-02  0.8543343E-01
         -1   -1    0    0    0  501 -0.00000000000E+00  0.00000000000E+00  0.89271676719E+03  0.89271676719E+03  0.00000000000E+00 0.  1.
          1   -1    0    0  501    0  0.00000000000E+00 -0.00000000000E+00 -0.12838328642E+04  0.12838328642E+04  0.00000000000E+00 0. -1.
         23    2    1    2    0    0  0.46157041423E+01 -0.43353282115E+02 -0.10559881569E+04  0.10607605046E+04  0.90559641559E+02 0.  0.
        254    2    1    2    0    0 -0.46157041423E+01  0.43353282115E+02  0.66487205995E+03  0.11157891268E+04  0.89500262993E+03 0.  0.
        -24    2    4    4    0    0 -0.39178464878E+03 -0.55801020587E+02  0.56827044428E+03  0.69698585975E+03  0.79050780713E+02 0.  0.
         24    2    4    4    0    0  0.38716894464E+03  0.99154302701E+02  0.96601615677E+02  0.41880326705E+03  0.79579751809E+02 0.  0.
         11    1    3    3    0    0 -0.12898611446E+02  0.13531985642E+02 -0.66546770185E+03  0.66573023893E+03  0.00000000000E+00 0. -1.
        -11    1    3    3    0    0  0.17514315588E+02 -0.56885267757E+02 -0.39052045507E+03  0.39503026563E+03  0.00000000000E+00 0.  1.
          4    1    6    6  502    0  0.21200408742E+03  0.17100808073E+02  0.33337334006E+02  0.21528945297E+03  0.00000000000E+00 0. -1.
          3    1    5    5  503    0 -0.10759504440E+03  0.27598090239E+01  0.20980731219E+03  0.23580377090E+03  0.00000000000E+00 0. -1.
         -4    1    5    5    0  503 -0.28418960439E+03 -0.58560829611E+02  0.35846313209E+03  0.46118208885E+03  0.00000000000E+00 0.  1.
         -3    1    6    6    0  502  0.17516485722E+03  0.82053494628E+02  0.63264281671E+02  0.20351381408E+03  0.00000000000E+00 0.  1.
<mgrwt>
<rscale>  0 0.21411204E+04</rscale>
<asrwt>0</asrwt>
<pdfrwt beam="1">  1        1 0.19751275E+00 0.21411204E+04</pdfrwt>
<pdfrwt beam="2">  1       -1 0.13734104E+00 0.21411204E+04</pdfrwt>
<totfact> 0.37518980E+00</totfact>
</mgrwt>
</event>
<event>
12    1  0.1397649E-007  0.1841215E+04  0.7818608E-02  0.8684684E-01
         -1   -1    0    0    0  501 -0.00000000000E+00  0.00000000000E+00  0.48929516788E+03  0.48929516788E+03  0.00000000000E+00 0.  1.
          1   -1    0    0  501    0  0.00000000000E+00 -0.00000000000E+00 -0.17321210749E+04  0.17321210749E+04  0.00000000000E+00 0. -1.
         23    2    1    2    0    0 -0.55893169473E+02 -0.66559343950E+02 -0.13281242983E+04  0.13341946859E+04  0.92774540348E+02 0.  0.
        254    2    1    2    0    0  0.55893169473E+02  0.66559343950E+02  0.85298391336E+02  0.88722155688E+03  0.87882426159E+03 0.  0.
        -24    2    4    4    0    0  0.22184217504E+03  0.34736575127E+03  0.27548506235E+03  0.50208433656E+03  0.79496827947E+02 0.  0.
         24    2    4    4    0    0 -0.16594900557E+03 -0.28080640732E+03 -0.19018667102E+03  0.38513722032E+03  0.75949969030E+02 0.  0.
         11    1    3    3    0    0 -0.56573236143E+02 -0.87667037678E+02 -0.11745693868E+04  0.11791943372E+04  0.00000000000E+00 0. -1.
        -11    1    3    3    0    0  0.68006666993E+00  0.21107693728E+02 -0.15355491158E+03  0.15500034869E+03  0.00000000000E+00 0.  1.
          2    1    6    6  502    0 -0.16357883346E+03 -0.25143143350E+03 -0.19108461473E+03  0.35565310416E+03  0.00000000000E+00 0. -1.
          1    1    5    5  503    0  0.17050449761E+03  0.31104999328E+03  0.25128510711E+03  0.43470459749E+03  0.00000000000E+00 0. -1.
         -4    1    5    5    0  503  0.51337677439E+02  0.36315757992E+02  0.24199955243E+02  0.67379739070E+02  0.00000000000E+00 0.  1.
         -1    1    6    6    0  502 -0.23701721141E+01 -0.29374973822E+02  0.89794371314E+00  0.29484116162E+02  0.00000000000E+00 0.  1.
<mgrwt>
<rscale>  0 0.18412153E+04</rscale>
<asrwt>0</asrwt>
<pdfrwt beam="1">  1        1 0.26648016E+00 0.18412153E+04</pdfrwt>
<pdfrwt beam="2">  1       -1 0.75276180E-01 0.18412153E+04</pdfrwt>
<totfact> 0.75589975E+00</totfact>
</mgrwt>
</event>
<event>
12    1  0.1397649E-007  0.2820769E+04  0.7818608E-02  0.8296849E-01
          1   -1    0    0  501    0  0.00000000000E+00  0.00000000000E+00  0.41273007185E+04  0.41273007185E+04  0.00000000000E+00 0. -1.
         -1   -1    0    0    0  501 -0.00000000000E+00 -0.00000000000E+00 -0.48195761061E+03  0.48195761061E+03  0.00000000000E+00 0.  1.
         23    2    1    2    0    0  0.40285640801E+03 -0.84228612851E+03  0.24540654538E+03  0.96978205015E+03  0.92269412698E+02 0.  0.
        254    2    1    2    0    0 -0.40285640801E+03  0.84228612851E+03  0.33999365625E+04  0.36394762790E+04  0.90248531749E+03 0.  0.
        -24    2    4    4    0    0  0.10838735793E+03  0.30832242483E+03  0.29678295774E+03  0.44848714764E+03  0.79057324614E+02 0.  0.
         24    2    4    4    0    0 -0.51124376594E+03  0.53396370368E+03  0.31031536048E+04  0.31909891314E+04  0.79761622367E+02 0.  0.
         11    1    3    3    0    0  0.32359660431E+03 -0.73984331870E+03  0.19448068931E+03  0.83060558453E+03  0.00000000000E+00 0.  1.
        -11    1    3    3    0    0  0.79259803694E+02 -0.10244280981E+03  0.50925856076E+02  0.13917646561E+03  0.00000000000E+00 0. -1.
          2    1    6    6  502    0 -0.35146473869E+03  0.37428341542E+03  0.19918270398E+04  0.20569371634E+04  0.00000000000E+00 0. -1.
          3    1    5    5  503    0  0.77143120830E+02  0.28986293929E+03  0.26526900676E+03  0.40042381375E+03  0.00000000000E+00 0. -1.
         -4    1    5    5    0  503  0.31244237098E+02  0.18459485541E+02  0.31513950978E+02  0.48063333889E+02  0.00000000000E+00 0.  1.
         -1    1    6    6    0  502 -0.15977902725E+03  0.15968028826E+03  0.11113265650E+04  0.11340519680E+04  0.00000000000E+00 0.  1.
<mgrwt>
<rscale>  0 0.28207687E+04</rscale>
<asrwt>0</asrwt>
<pdfrwt beam="1">  1        1 0.63496932E+00 0.28207687E+04</pdfrwt>
<pdfrwt beam="2">  1       -1 0.74147327E-01 0.28207687E+04</pdfrwt>
<totfact> 0.11682942E-01</totfact>
</mgrwt>
</event>
<event>
12    1  0.1397649E-007  0.1419021E+04  0.7818608E-02  0.8940164E-01
         -1   -1    0    0    0  501 -0.00000000000E+00  0.00000000000E+00  0.81032314624E+03  0.81032314624E+03  0.00000000000E+00 0.  1.
          1   -1    0    0  501    0  0.00000000000E+00 -0.00000000000E+00 -0.62124023101E+03  0.62124023101E+03  0.00000000000E+00 0. -1.
         23    2    1    2    0    0 -0.23523029227E+03  0.33797179218E+03  0.10287117145E+03  0.43676719903E+03  0.10307708533E+03 0.  0.
        254    2    1    2    0    0  0.23523029227E+03 -0.33797179218E+03  0.86211743778E+02  0.99479617823E+03  0.90145923299E+03 0.  0.
        -24    2    4    4    0    0 -0.10189284288E+03 -0.55393373538E+03  0.13114742930E+03  0.58389361628E+03  0.80668285555E+02 0.  0.
         24    2    4    4    0    0  0.33712313515E+03  0.21596194320E+03 -0.44935685518E+02  0.41090256195E+03  0.80809222342E+02 0.  0.
         13    1    3    3    0    0 -0.20778929260E+03  0.30380948446E+03  0.55491247392E+02  0.37223093841E+03  0.00000000000E+00 0. -1.
        -13    1    3    3    0    0 -0.27440999672E+02  0.34162307715E+02  0.47379924057E+02  0.64536260622E+02  0.00000000000E+00 0.  1.
          2    1    6    6  502    0  0.69414488885E+02  0.57391783210E+02  0.21824461541E+02  0.92674134303E+02  0.00000000000E+00 0. -1.
          3    1    5    5  503    0  0.81122547013E+01 -0.13693823919E+03  0.42547758552E+02  0.14362521292E+03  0.00000000000E+00 0. -1.
         -4    1    5    5    0  503 -0.11000509758E+03 -0.41699549620E+03  0.88599670745E+02  0.44026840336E+03  0.00000000000E+00 0.  1.
         -1    1    6    6    0  502  0.26770864627E+03  0.15857015999E+03 -0.66760147059E+02  0.31822842765E+03  0.00000000000E+00 0.  1.
<mgrwt>
<rscale>  0 0.14190213E+04</rscale>
<asrwt>0</asrwt>
<pdfrwt beam="1">  1        1 0.95575421E-01 0.14190213E+04</pdfrwt>
<pdfrwt beam="2">  1       -1 0.12466510E+00 0.14190213E+04</pdfrwt>
<totfact> 0.17863674E+01</totfact>
</mgrwt>
</event>
<event>
12    1  0.1397649E-007  0.1075667E+04  0.7818608E-02  0.9229238E-01
         -2   -1    0    0    0  501 -0.00000000000E+00  0.00000000000E+00  0.14061629530E+03  0.14061629530E+03  0.00000000000E+00 0.  1.
          2   -1    0    0  501    0  0.00000000000E+00 -0.00000000000E+00 -0.20571223142E+04  0.20571223142E+04  0.00000000000E+00 0. -1.
         23    2    1    2    0    0 -0.65108343010E+01 -0.15111524632E+03 -0.33199367192E+03  0.37652974351E+03  0.93148488581E+02 0.  0.
        254    2    1    2    0    0  0.65108343010E+01  0.15111524632E+03 -0.15845123470E+04  0.18212088660E+04  0.88501081754E+03 0.  0.
        -24    2    4    4    0    0 -0.29273022716E+03  0.30297303787E+03 -0.39733960980E+03  0.58482311175E+03  0.81582222053E+02 0.  0.
         24    2    4    4    0    0  0.29924106146E+03 -0.15185779155E+03 -0.11871727372E+04  0.12363857543E+04  0.81637146166E+02 0.  0.
         13    1    3    3    0    0  0.24093968264E+02 -0.14371070284E+03 -0.26242446315E+03  0.30016642763E+03  0.00000000000E+00 0. -1.
        -13    1    3    3    0    0 -0.30604802566E+02 -0.74045434794E+01 -0.69569208765E+02  0.76363315882E+02  0.00000000000E+00 0.  1.
          2    1    6    6  502    0  0.61990339375E+02 -0.61247743632E+02 -0.22575878178E+03  0.24199404089E+03  0.00000000000E+00 0. -1.
          1    1    5    5  503    0 -0.17849411595E+03  0.20237137111E+03 -0.30301183046E+03  0.40574683076E+03  0.00000000000E+00 0. -1.
         -2    1    5    5    0  503 -0.11423611120E+03  0.10060166676E+03 -0.94327779342E+02  0.17907628099E+03  0.00000000000E+00 0.  1.
         -1    1    6    6    0  502  0.23725072208E+03 -0.90610047918E+02 -0.96141395543E+03  0.99439171337E+03  0.00000000000E+00 0.  1.
<mgrwt>
<rscale>  0 0.10756671E+04</rscale>
<asrwt>0</asrwt>
<pdfrwt beam="1">  1        2 0.31648034E+00 0.10756671E+04</pdfrwt>
<pdfrwt beam="2">  1       -2 0.21633277E-01 0.10756671E+04</pdfrwt>
<totfact> 0.11520539E+02</totfact>
</mgrwt>
</event>
<event>
12    1  0.1397649E-007  0.2277676E+04  0.7818608E-02  0.8486776E-01
          1   -1    0    0  501    0  0.00000000000E+00  0.00000000000E+00  0.17531095898E+04  0.17531095898E+04  0.00000000000E+00 0. -1.
         -1   -1    0    0    0  501 -0.00000000000E+00 -0.00000000000E+00 -0.73980084293E+03  0.73980084293E+03  0.00000000000E+00 0.  1.
         23    2    1    2    0    0 -0.28493861478E+03  0.41186621546E+03 -0.46097668950E+03  0.68684564883E+03  0.91834870396E+02 0.  0.
        254    2    1    2    0    0  0.28493861478E+03 -0.41186621546E+03  0.14742854364E+04  0.18060647839E+04  0.91516592057E+03 0.  0.
        -24    2    4    4    0    0 -0.99874617651E+02 -0.11323220529E+02 -0.81405388600E+02  0.15229314348E+03  0.80394089858E+02 0.  0.
         24    2    4    4    0    0  0.38481323243E+03 -0.40054299493E+03  0.15556908250E+04  0.16537716405E+04  0.79188264000E+02 0.  0.
         11    1    3    3    0    0 -0.23915908707E+03  0.34851604600E+03 -0.33833742561E+03  0.54141732224E+03  0.00000000000E+00 0.  1.
        -11    1    3    3    0    0 -0.45779527703E+02  0.63350169462E+02 -0.12263926389E+03  0.14542832659E+03  0.00000000000E+00 0. -1.
          4    1    6    6  502    0  0.37896053325E+03 -0.38592659287E+03  0.14636009031E+04  0.15603454824E+04  0.00000000000E+00 0. -1.
          1    1    5    5  503    0 -0.93149829262E+02 -0.49995038431E+01 -0.96743210440E+02  0.13439172034E+03  0.00000000000E+00 0. -1.
         -2    1    5    5    0  503 -0.67247883894E+01 -0.63237166858E+01  0.15337821840E+02  0.17901423139E+02  0.00000000000E+00 0.  1.
         -3    1    6    6    0  502  0.58526991758E+01 -0.14616402055E+02  0.92089921864E+02  0.93426158037E+02  0.00000000000E+00 0.  1.
<mgrwt>
<rscale>  0 0.22776760E+04</rscale>
<asrwt>0</asrwt>
<pdfrwt beam="1">  1        1 0.26970917E+00 0.22776760E+04</pdfrwt>
<pdfrwt beam="2">  1       -1 0.11381551E+00 0.22776760E+04</pdfrwt>
<totfact> 0.27938616E+00</totfact>
</mgrwt>
</event>
<event>
12    1  0.1397649E-007  0.1596159E+04  0.7818608E-02  0.8822911E-01
         -1   -1    0    0    0  501 -0.00000000000E+00  0.00000000000E+00  0.33361116596E+03  0.33361116596E+03  0.00000000000E+00 0.  1.
          1   -1    0    0  501    0  0.00000000000E+00 -0.00000000000E+00 -0.19092001962E+04  0.19092001962E+04  0.00000000000E+00 0. -1.
         23    2    1    2    0    0  0.68776096615E+02  0.19814757332E+03 -0.12434202597E+04  0.12644637542E+04  0.93712491908E+02 0.  0.
        254    2    1    2    0    0 -0.68776096615E+02 -0.19814757332E+03 -0.33216877057E+03  0.97834760801E+03  0.89601079105E+03 0.  0.
        -24    2    4    4    0    0  0.57964079527E+02  0.31807229572E+01  0.29069874131E+03  0.30689753656E+03  0.79437952103E+02 0.  0.
         24    2    4    4    0    0 -0.12674017614E+03 -0.20132829628E+03 -0.62286751188E+03  0.67145007145E+03  0.79278660171E+02 0.  0.
         11    1    3    3    0    0 -0.22879131293E+01  0.12107508949E+03 -0.77916691515E+03  0.78852107994E+03  0.00000000000E+00 0. -1.
        -11    1    3    3    0    0  0.71064009744E+02  0.77072483837E+02 -0.46425334452E+03  0.47594267422E+03  0.00000000000E+00 0.  1.
          4    1    6    6  502    0 -0.75263712675E+01 -0.14693767963E+02 -0.13087667007E+03  0.13191381979E+03  0.00000000000E+00 0. -1.
          1    1    5    5  503    0 -0.99630826026E+01  0.14587959875E+02  0.16474577321E+02  0.24155398696E+02  0.00000000000E+00 0. -1.
         -2    1    5    5    0  503  0.67927162130E+02 -0.11407236918E+02  0.27422416399E+03  0.28274213786E+03  0.00000000000E+00 0.  1.
         -3    1    6    6    0  502 -0.11921380487E+03 -0.18663452832E+03 -0.49199084181E+03  0.53953625166E+03  0.00000000000E+00 0.  1.
<mgrwt>
<rscale>  0 0.15961585E+04</rscale>
<asrwt>0</asrwt>
<pdfrwt beam="1">  1        1 0.29372311E+00 0.15961585E+04</pdfrwt>
<pdfrwt beam="2">  1       -1 0.51324795E-01 0.15961585E+04</pdfrwt>
<totfact> 0.12589587E+01</totfact>
</mgrwt>
</event>
<event>
12    1  0.1397649E-007  0.1692359E+04  0.7818608E-02  0.8765734E-01
          2   -1    0    0  501    0  0.00000000000E+00  0.00000000000E+00  0.24885750823E+03  0.24885750823E+03  0.00000000000E+00 0. -1.
         -2   -1    0    0    0  501 -0.00000000000E+00 -0.00000000000E+00 -0.28772282631E+04  0.28772282631E+04  0.00000000000E+00 0.  1.
         23    2    1    2    0    0  0.56147989046E+03 -0.19494451641E+03 -0.12860560427E+04  0.14199441242E+04  0.95069127414E+02 0.  0.
        254    2    1    2    0    0 -0.56147989046E+03  0.19494451641E+03 -0.13423147121E+04  0.17061416471E+04  0.86939490548E+03 0.  0.
        -24    2    4    4    0    0 -0.34631750588E+03  0.24272236160E+03 -0.10004446007E+03  0.44183183045E+03  0.79727741171E+02 0.  0.
         24    2    4    4    0    0 -0.21516238458E+03 -0.47777845188E+02 -0.12422702521E+04  0.12643098166E+04  0.81647774458E+02 0.  0.
         11    1    3    3    0    0  0.23768561585E+03 -0.11042788312E+03 -0.65850449769E+03  0.70874321360E+03  0.00000000000E+00 0.  1.
        -11    1    3    3    0    0  0.32379427461E+03 -0.84516633290E+02 -0.62755154501E+03  0.71120091059E+03  0.00000000000E+00 0. -1.
          4    1    6    6  502    0  0.11904744240E+01 -0.74942668912E+01 -0.10056644592E+02  0.12598308063E+02  0.00000000000E+00 0. -1.
          1    1    5    5  503    0 -0.11222361441E+03  0.10539897271E+03 -0.68828896181E+02  0.16864311439E+03  0.00000000000E+00 0. -1.
         -2    1    5    5    0  503 -0.23409389147E+03  0.13732338889E+03 -0.31215563892E+02  0.27318871607E+03  0.00000000000E+00 0.  1.
         -3    1    6    6    0  502 -0.21635285901E+03 -0.40283578297E+02 -0.12322136075E+04  0.12517115086E+04  0.00000000000E+00 0.  1.
<mgrwt>
<rscale>  0 0.16923591E+04</rscale>
<asrwt>0</asrwt>
<pdfrwt beam="1">  1        2 0.38285771E-01 0.16923591E+04</pdfrwt>
<pdfrwt beam="2">  1       -2 0.44265050E+00 0.16923591E+04</pdfrwt>
<totfact> 0.50277462E-01</totfact>
</mgrwt>
</event>
<event>
12    1  0.1397649E-007  0.1489639E+04  0.7818608E-02  0.8891372E-01
         -1   -1    0    0    0  501 -0.00000000000E+00  0.00000000000E+00  0.80279657949E+03  0.80279657949E+03  0.00000000000E+00 0.  1.
          1   -1    0    0  501    0  0.00000000000E+00 -0.00000000000E+00 -0.69102954463E+03  0.69102954463E+03  0.00000000000E+00 0. -1.
         23    2    1    2    0    0 -0.41375325326E+02  0.35616757179E+03  0.33679716958E+03  0.50027282657E+03  0.90957741967E+02 0.  0.
        254    2    1    2    0    0  0.41375325326E+02 -0.35616757179E+03 -0.22503013473E+03  0.99355329755E+03  0.89885612686E+03 0.  0.
        -24    2    4    4    0    0 -0.55019372413E+02 -0.13608857025E+03 -0.55387975371E+03  0.57825793919E+03  0.77796094876E+02 0.  0.
         24    2    4    4    0    0  0.96394697739E+02 -0.22007900154E+03  0.32884961898E+03  0.41529535836E+03  0.81249357503E+02 0.  0.
         11    1    3    3    0    0  0.78310172117E+01  0.17716779567E+02  0.51055281145E+02  0.54606326022E+02  0.00000000000E+00 0. -1.
        -11    1    3    3    0    0 -0.49206342538E+02  0.33845079222E+03  0.28574188843E+03  0.44566650054E+03  0.00000000000E+00 0.  1.
          2    1    6    6  502    0  0.62365948847E+02 -0.19934396332E+03  0.24156551773E+03  0.31934530941E+03  0.00000000000E+00 0. -1.
          1    1    5    5  503    0 -0.19023767368E+02 -0.12614148872E+03 -0.45558546683E+03  0.47310854620E+03  0.00000000000E+00 0. -1.
         -2    1    5    5    0  503 -0.35995605045E+02 -0.99470815248E+01 -0.98294286878E+02  0.10514939299E+03  0.00000000000E+00 0.  1.
         -1    1    6    6    0  502  0.34028748892E+02 -0.20735038229E+02  0.87284101250E+02  0.95950048945E+02  0.00000000000E+00 0.  1.
<mgrwt>
<rscale>  0 0.14896391E+04</rscale>
<asrwt>0</asrwt>
<pdfrwt beam="1">  1        1 0.10631224E+00 0.14896391E+04</pdfrwt>
<pdfrwt beam="2">  1       -1 0.12350717E+00 0.14896391E+04</pdfrwt>
<totfact> 0.15514545E+01</totfact>
</mgrwt>
</event>
<event>
12    1  0.1397649E-007  0.3438880E+04  0.7818608E-02  0.8128429E-01
          2   -1    0    0  501    0  0.00000000000E+00  0.00000000000E+00  0.17052427845E+04  0.17052427845E+04  0.00000000000E+00 0. -1.
         -2   -1    0    0    0  501 -0.00000000000E+00 -0.00000000000E+00 -0.17337555976E+04  0.17337555976E+04  0.00000000000E+00 0.  1.
         23    2    1    2    0    0 -0.89198234246E+03  0.22018585886E+00 -0.13429321210E+04  0.16147356201E+04  0.90949950382E+02 0.  0.
        254    2    1    2    0    0  0.89198234246E+03 -0.22018585886E+00  0.13144193079E+04  0.18242627620E+04  0.89699719068E+03 0.  0.
        -24    2    4    4    0    0  0.85456205413E+03  0.16672851274E+03  0.54093247822E+03  0.10280654370E+04  0.78967685584E+02 0.  0.
         24    2    4    4    0    0  0.37420288327E+02 -0.16694869860E+03  0.77348682971E+03  0.79619732505E+03  0.79850853117E+02 0.  0.
         11    1    3    3    0    0 -0.18546788336E+03 -0.34320484458E+01 -0.34962159616E+03  0.39578450603E+03  0.00000000000E+00 0. -1.
        -11    1    3    3    0    0 -0.70651445910E+03  0.36522343047E+01 -0.99331052481E+03  0.12189511140E+04  0.00000000000E+00 0.  1.
          4    1    6    6  502    0 -0.53232557750E+01 -0.12876628841E+03  0.59242195898E+03  0.60627788312E+03  0.00000000000E+00 0. -1.
          1    1    5    5  503    0  0.39054023475E+03  0.58909987184E+02  0.28706125132E+03  0.48825835738E+03  0.00000000000E+00 0. -1.
         -2    1    5    5    0  503  0.46402181939E+03  0.10781852556E+03  0.25387122691E+03  0.53980707959E+03  0.00000000000E+00 0.  1.
         -3    1    6    6    0  502  0.42743544102E+02 -0.38182410198E+02  0.18106487073E+03  0.18991944193E+03  0.00000000000E+00 0.  1.
<mgrwt>
<rscale>  0 0.34388802E+04</rscale>
<asrwt>0</asrwt>
<pdfrwt beam="1">  1        2 0.26234505E+00 0.34388802E+04</pdfrwt>
<pdfrwt beam="2">  1       -2 0.26673163E+00 0.34388802E+04</pdfrwt>
<totfact> 0.40824702E-01</totfact>
</mgrwt>
</event>
<event>
12    1  0.1397649E-007  0.2665094E+04  0.7818608E-02  0.8346420E-01
          1   -1    0    0  501    0  0.00000000000E+00  0.00000000000E+00  0.21550134591E+04  0.21550134591E+04  0.00000000000E+00 0. -1.
         -1   -1    0    0    0  501 -0.00000000000E+00 -0.00000000000E+00 -0.82397700315E+03  0.82397700315E+03  0.00000000000E+00 0.  1.
         23    2    1    2    0    0  0.90289526684E+03  0.56043313995E+03  0.11654445222E+04  0.15798999804E+04  0.92292179087E+02 0.  0.
        254    2    1    2    0    0 -0.90289526684E+03 -0.56043313995E+03  0.16559193370E+03  0.13990904819E+04  0.89483424202E+03 0.  0.
        -24    2    4    4    0    0 -0.34060843736E+03 -0.70958054339E+03  0.18171557083E+03  0.81167911991E+03  0.79270359221E+02 0.  0.
         24    2    4    4    0    0 -0.56228682948E+03  0.14914740344E+03 -0.16123637132E+02  0.58741136195E+03  0.79879346009E+02 0.  0.
         11    1    3    3    0    0  0.69458385100E+03  0.38675788789E+03  0.84826125269E+03  0.11625728118E+04  0.00000000000E+00 0. -1.
        -11    1    3    3    0    0  0.20831141584E+03  0.17367525206E+03  0.31718326954E+03  0.41732716857E+03  0.00000000000E+00 0.  1.
          2    1    6    6  502    0 -0.22724479506E+03  0.27803236924E+02  0.16797483494E+02  0.22955472619E+03  0.00000000000E+00 0. -1.
          3    1    5    5  503    0 -0.18623912490E+03 -0.46948875145E+03  0.10138026838E+03  0.51515304348E+03  0.00000000000E+00 0. -1.
         -4    1    5    5    0  503 -0.15436931246E+03 -0.24009179194E+03  0.80335302443E+02  0.29652607643E+03  0.00000000000E+00 0.  1.
         -1    1    6    6    0  502 -0.33504203442E+03  0.12134416652E+03 -0.32921120626E+02  0.35785663576E+03  0.00000000000E+00 0.  1.
<mgrwt>
<rscale>  0 0.26650940E+04</rscale>
<asrwt>0</asrwt>
<pdfrwt beam="1">  1        1 0.33154053E+00 0.26650940E+04</pdfrwt>
<pdfrwt beam="2">  1       -1 0.12676569E+00 0.26650940E+04</pdfrwt>
<totfact> 0.11061209E+00</totfact>
</mgrwt>
</event>
<event>
12    1  0.1397649E-007  0.1272228E+04  0.7818608E-02  0.9051884E-01
          1   -1    0    0  501    0  0.00000000000E+00  0.00000000000E+00  0.14816163663E+04  0.14816163663E+04  0.00000000000E+00 0. -1.
         -1   -1    0    0    0  501 -0.00000000000E+00 -0.00000000000E+00 -0.27310764193E+03  0.27310764193E+03  0.00000000000E+00 0.  1.
         23    2    1    2    0    0  0.95737598789E+02  0.18561703272E+03 -0.24299140366E+01  0.22200586868E+03  0.75241814076E+02 0.  0.
        254    2    1    2    0    0 -0.95737598789E+02 -0.18561703272E+03  0.12109386384E+04  0.15327181396E+04  0.91609668631E+03 0.  0.
        -24    2    4    4    0    0  0.35280700976E+01  0.48659193835E+02  0.12579341225E+04  0.12615291714E+04  0.81715538462E+02 0.  0.
         24    2    4    4    0    0 -0.99265668886E+02 -0.23427622656E+03 -0.46995484061E+02  0.27118896822E+03  0.81214885403E+02 0.  0.
         11    1    3    3    0    0  0.84044223261E+02  0.13272099295E+03 -0.31953535703E+02  0.16031008040E+03  0.00000000000E+00 0.  1.
        -11    1    3    3    0    0  0.11693375527E+02  0.52896039770E+02  0.29523621667E+02  0.61695788275E+02  0.00000000000E+00 0. -1.
          2    1    6    6  502    0 -0.29064759711E+02 -0.14250891063E+02 -0.21438882912E+02  0.38826200609E+02  0.00000000000E+00 0. -1.
          3    1    5    5  503    0  0.88494070396E+01 -0.65514492642E+01  0.24637746060E+02  0.26986145025E+02  0.00000000000E+00 0. -1.
         -4    1    5    5    0  503 -0.53213369420E+01  0.55210643099E+02  0.12332963764E+04  0.12345430263E+04  0.00000000000E+00 0.  1.
         -1    1    6    6    0  502 -0.70200909175E+02 -0.22002533549E+03 -0.25556601149E+02  0.23236276761E+03  0.00000000000E+00 0.  1.
<mgrwt>
<rscale>  0 0.12722276E+04</rscale>
<asrwt>0</asrwt>
<pdfrwt beam="1">  1        1 0.22794097E+00 0.12722276E+04</pdfrwt>
<pdfrwt beam="2">  1       -1 0.42016561E-01 0.12722276E+04</pdfrwt>
<totfact> 0.36895225E+01</totfact>
</mgrwt>
</event>
<event>
12    1  0.1397649E-007  0.1304987E+04  0.7818608E-02  0.9025620E-01
          2   -1    0    0  501    0  0.00000000000E+00  0.00000000000E+00  0.16003074227E+04  0.16003074227E+04  0.00000000000E+00 0. -1.
         -2   -1    0    0    0  501 -0.00000000000E+00 -0.00000000000E+00 -0.26604115357E+03  0.26604115357E+03  0.00000000000E+00 0.  1.
         23    2    1    2    0    0  0.90658327205E+02 -0.19395227288E+03 -0.55160585046E+02  0.23923350574E+03  0.91397831909E+02 0.  0.
        254    2    1    2    0    0 -0.90658327205E+02  0.19395227288E+03  0.13894268542E+04  0.16271150705E+04  0.81924358600E+03 0.  0.
        -24    2    4    4    0    0  0.19472340819E+03  0.37076835497E+03  0.10892985097E+04  0.11698092877E+04  0.80598681989E+02 0.  0.
         24    2    4    4    0    0 -0.28538173540E+03 -0.17681608209E+03  0.30012834448E+03  0.45730578286E+03  0.79654843512E+02 0.  0.
         11    1    3    3    0    0  0.20933791834E+02 -0.13146537887E+03 -0.58813120865E+02  0.14553471293E+03  0.00000000000E+00 0.  1.
        -11    1    3    3    0    0  0.69724535371E+02 -0.62486894017E+02  0.36525358193E+01  0.93698792812E+02  0.00000000000E+00 0. -1.
          2    1    6    6  502    0  0.40379221419E+01 -0.17541335455E+01  0.12662446098E+02  0.13405944238E+02  0.00000000000E+00 0. -1.
          1    1    5    5  503    0  0.41085675933E+01  0.70269780088E+02  0.16597423125E+03  0.18028357596E+03  0.00000000000E+00 0. -1.
         -2    1    5    5    0  503  0.19061484060E+03  0.30049857489E+03  0.92332427844E+03  0.98952571170E+03  0.00000000000E+00 0.  1.
         -1    1    6    6    0  502 -0.28941965754E+03 -0.17506194855E+03  0.28746589838E+03  0.44389983862E+03  0.00000000000E+00 0.  1.
<mgrwt>
<rscale>  0 0.13049868E+04</rscale>
<asrwt>0</asrwt>
<pdfrwt beam="1">  1        2 0.24620113E+00 0.13049868E+04</pdfrwt>
<pdfrwt beam="2">  1       -2 0.40929409E-01 0.13049868E+04</pdfrwt>
<totfact> 0.61730889E+01</totfact>
</mgrwt>
</event>
<event>
12    1  0.1397649E-007  0.2313670E+04  0.7818608E-02  0.8472551E-01
         -2   -1    0    0    0  501 -0.00000000000E+00  0.00000000000E+00  0.14695687844E+04  0.14695687844E+04  0.00000000000E+00 0. -1.
          2   -1    0    0  501    0  0.00000000000E+00 -0.00000000000E+00 -0.91065324913E+03  0.91065324913E+03  0.00000000000E+00 0.  1.
         23    2    1    2    0    0  0.46170165082E+03 -0.60689225635E+03 -0.38604223699E+03  0.85901569199E+03  0.85980958112E+02 0.  0.
        254    2    1    2    0    0 -0.46170165082E+03  0.60689225635E+03  0.94495777224E+03  0.15212063415E+04  0.91631703956E+03 0.  0.
        -24    2    4    4    0    0  0.97467356235E+02 -0.15116645615E+03  0.20242867456E+02  0.19836702608E+03  0.81169700992E+02 0.  0.
         24    2    4    4    0    0 -0.55916900706E+03  0.75805871250E+03  0.92471490478E+03  0.13228393154E+04  0.86505544953E+02 0.  0.
         13    1    3    3    0    0  0.16240046817E+03 -0.18052816370E+03 -0.84512151043E+02  0.25711210323E+03  0.00000000000E+00 0. -1.
        -13    1    3    3    0    0  0.29930118265E+03 -0.42636409265E+03 -0.30153008595E+03  0.60190358877E+03  0.00000000000E+00 0.  1.
          4    1    6    6  502    0 -0.49708623379E+03  0.70937056222E+03  0.86232651859E+03  0.12222554328E+04  0.00000000000E+00 0. -1.
          3    1    5    5  503    0  0.10338110664E+03 -0.12058452363E+03  0.36871816147E+02  0.16305769340E+03  0.00000000000E+00 0. -1.
         -4    1    5    5    0  503 -0.59137504066E+01 -0.30581932515E+02 -0.16628948691E+02  0.35309332687E+02  0.00000000000E+00 0.  1.
         -3    1    6    6    0  502 -0.62082773264E+02  0.48688150272E+02  0.62388386193E+02  0.10058388263E+03  0.00000000000E+00 0.  1.
<mgrwt>
<rscale>  0 0.23136703E+04</rscale>
<asrwt>0</asrwt>
<pdfrwt beam="1">  1        2 0.14010050E+00 0.23136703E+04</pdfrwt>
<pdfrwt beam="2">  1       -2 0.22608750E+00 0.23136703E+04</pdfrwt>
<totfact> 0.23621498E+00</totfact>
</mgrwt>
</event>
<event>
12    1  0.1397649E-007  0.1267177E+04  0.7818608E-02  0.9056007E-01
          2   -1    0    0  501    0  0.00000000000E+00  0.00000000000E+00  0.10546360459E+04  0.10546360459E+04  0.00000000000E+00 0.  1.
         -2   -1    0    0    0  501 -0.00000000000E+00 -0.00000000000E+00 -0.38063796729E+03  0.38063796729E+03  0.00000000000E+00 0. -1.
         23    2    1    2    0    0 -0.28118567311E+03 -0.95003156314E+02  0.19161624972E+03  0.36447812074E+03  0.89646700258E+02 0.  0.
        254    2    1    2    0    0  0.28118567311E+03  0.95003156314E+02  0.48238182886E+03  0.10707958924E+04  0.90874673695E+03 0.  0.
        -24    2    4    4    0    0 -0.17402662693E+03 -0.10748004988E+03  0.52066497515E+03  0.56482316744E+03  0.78076668270E+02 0.  0.
         24    2    4    4    0    0  0.45521230005E+03  0.20248320619E+03 -0.38283146285E+02  0.50597272498E+03  0.79530574143E+02 0.  0.
         13    1    3    3    0    0 -0.10582387878E+03 -0.79964504347E+02  0.99598058583E+02  0.16586979396E+03  0.00000000000E+00 0. -1.
        -13    1    3    3    0    0 -0.17536179434E+03 -0.15038651967E+02  0.92018191134E+02  0.19860832678E+03  0.00000000000E+00 0.  1.
          4    1    6    6  502    0  0.38686883552E+03  0.17943153983E+03 -0.59984887014E+02  0.43065224956E+03  0.00000000000E+00 0. -1.
          3    1    5    5  503    0 -0.17853951623E+03 -0.90351483332E+02  0.46027982786E+03  0.50189368329E+03  0.00000000000E+00 0. -1.
         -4    1    5    5    0  503  0.45128892992E+01 -0.17128566548E+02  0.60385147293E+02  0.62929484150E+02  0.00000000000E+00 0.  1.
         -3    1    6    6    0  502  0.68343464525E+02  0.23051666366E+02  0.21701740729E+02  0.75320475412E+02  0.00000000000E+00 0.  1.
<mgrwt>
<rscale>  0 0.12671772E+04</rscale>
<asrwt>0</asrwt>
<pdfrwt beam="1">  1        2 0.16225170E+00 0.12671772E+04</pdfrwt>
<pdfrwt beam="2">  1       -2 0.58559688E-01 0.12671772E+04</pdfrwt>
<totfact> 0.62276452E+01</totfact>
</mgrwt>
</event>
<event>
12    1  0.1397649E-007  0.1627954E+04  0.7818608E-02  0.8803557E-01
         -1   -1    0    0    0  501 -0.00000000000E+00  0.00000000000E+00  0.29151107512E+03  0.29151107512E+03  0.00000000000E+00 0. -1.
          1   -1    0    0  501    0  0.00000000000E+00 -0.00000000000E+00 -0.22728416955E+04  0.22728416955E+04  0.00000000000E+00 0.  1.
         23    2    1    2    0    0 -0.36700105060E+03  0.18002177977E+03 -0.90525825673E+02  0.42833158365E+03  0.90417963399E+02 0.  0.
        254    2    1    2    0    0  0.36700105060E+03 -0.18002177977E+03 -0.18908047947E+04  0.21360211870E+04  0.90572961042E+03 0.  0.
        -24    2    4    4    0    0 -0.74706010868E+02  0.16008278932E+03 -0.13190116486E+04  0.13332603740E+04  0.81141901548E+02 0.  0.
         24    2    4    4    0    0  0.44170706146E+03 -0.34010456909E+03 -0.57179314610E+03  0.80276081299E+03  0.81861314939E+02 0.  0.
         11    1    3    3    0    0 -0.29819050233E+03  0.11838800794E+03 -0.98495509430E+02  0.33561087807E+03  0.00000000000E+00 0. -1.
        -11    1    3    3    0    0 -0.68810548267E+02  0.61633771831E+02  0.79696837567E+01  0.92720705573E+02  0.00000000000E+00 0.  1.
          2    1    6    6  502    0  0.25093687550E+03 -0.15404462214E+03 -0.26211803914E+03  0.39421431676E+03  0.00000000000E+00 0. -1.
          1    1    5    5  503    0 -0.47876689614E+02  0.11883567297E+03 -0.65400153315E+03  0.66643236712E+03  0.00000000000E+00 0. -1.
         -2    1    5    5    0  503 -0.26829321253E+02  0.41247116350E+02 -0.66501011544E+03  0.66682800685E+03  0.00000000000E+00 0.  1.
         -3    1    6    6    0  502  0.19077018596E+03 -0.18605994695E+03 -0.30967510697E+03  0.40854649624E+03  0.00000000000E+00 0.  1.
<mgrwt>
<rscale>  0 0.16279540E+04</rscale>
<asrwt>0</asrwt>
<pdfrwt beam="1">  1        1 0.34966796E+00 0.16279540E+04</pdfrwt>
<pdfrwt beam="2">  1       -1 0.44847857E-01 0.16279540E+04</pdfrwt>
<totfact> 0.91753652E+00</totfact>
</mgrwt>
</event>
<event>
12    1  0.1397649E-007  0.2209226E+04  0.7818608E-02  0.8514598E-01
         -2   -1    0    0    0  501 -0.00000000000E+00  0.00000000000E+00  0.14168098539E+04  0.14168098539E+04  0.00000000000E+00 0.  1.
          2   -1    0    0  501    0  0.00000000000E+00 -0.00000000000E+00 -0.86120961424E+03  0.86120961424E+03  0.00000000000E+00 0. -1.
         23    2    1    2    0    0 -0.34315563774E+03  0.36739845484E+03  0.10425876281E+04  0.11612641299E+04  0.93850950489E+02 0.  0.
        254    2    1    2    0    0  0.34315563774E+03 -0.36739845484E+03 -0.48698738843E+03  0.11167553382E+04  0.87020017960E+03 0.  0.
        -24    2    4    4    0    0  0.23716150657E+02  0.23719166650E+03  0.33461488026E+02  0.25367103111E+03  0.80043603026E+02 0.  0.
         24    2    4    4    0    0  0.31943948709E+03 -0.60459012134E+03 -0.52044887646E+03  0.86308430709E+03  0.80477869069E+02 0.  0.
         13    1    3    3    0    0 -0.29943982797E+01 -0.55255856825E+01  0.86164241291E+01  0.10664955835E+02  0.00000000000E+00 0. -1.
        -13    1    3    3    0    0 -0.34016123946E+03  0.37292404052E+03  0.10339712040E+04  0.11505991741E+04  0.00000000000E+00 0.  1.
          2    1    6    6  502    0  0.66430673964E+02 -0.12965042595E+03 -0.71529894457E+02  0.16229230787E+03  0.00000000000E+00 0. -1.
          3    1    5    5  503    0  0.19628760240E+02  0.40682663167E+02  0.34951784739E+02  0.57113873686E+02  0.00000000000E+00 0. -1.
         -4    1    5    5    0  503  0.40873904167E+01  0.19650900333E+03 -0.14902967129E+01  0.19655715742E+03  0.00000000000E+00 0.  1.
         -1    1    6    6    0  502  0.25300881312E+03 -0.47493969539E+03 -0.44891898200E+03  0.70079199923E+03  0.00000000000E+00 0.  1.
<mgrwt>
<rscale>  0 0.22092264E+04</rscale>
<asrwt>0</asrwt>
<pdfrwt beam="1">  1        2 0.13249379E+00 0.22092264E+04</pdfrwt>
<pdfrwt beam="2">  1       -2 0.21797075E+00 0.22092264E+04</pdfrwt>
<totfact> 0.28977756E+00</totfact>
</mgrwt>
</event>
<event>
12    1  0.1397649E-007  0.2118454E+04  0.7818608E-02  0.8553158E-01
          2   -1    0    0  501    0  0.00000000000E+00  0.00000000000E+00  0.83158100770E+03  0.83158100770E+03  0.00000000000E+00 0. -1.
         -2   -1    0    0    0  501 -0.00000000000E+00 -0.00000000000E+00 -0.13491906701E+04  0.13491906701E+04  0.00000000000E+00 0.  1.
         23    2    1    2    0    0  0.78882415327E+03 -0.28237976181E+03 -0.43069035428E+03  0.94724977791E+03  0.99025682593E+02 0.  0.
        254    2    1    2    0    0 -0.78882415327E+03  0.28237976181E+03 -0.86919308135E+02  0.12335218999E+04  0.90113230813E+03 0.  0.
        -24    2    4    4    0    0 -0.98195235160E+03  0.24704519728E+03 -0.10456432904E+03  0.10210488040E+04  0.79656832171E+02 0.  0.
         24    2    4    4    0    0  0.19312819834E+03  0.35334564534E+02  0.17645020909E+02  0.21247309591E+03  0.79287056195E+02 0.  0.
         13    1    3    3    0    0  0.11319397791E+03 -0.57014966189E+01 -0.50089077646E+02  0.12391246668E+03  0.00000000000E+00 0.  1.
        -13    1    3    3    0    0  0.67563017536E+03 -0.27667826519E+03 -0.38060127664E+03  0.82333731123E+03  0.00000000000E+00 0. -1.
          2    1    6    6  502    0  0.12966814022E+03  0.91920855401E+01  0.46445127186E+02  0.13804155484E+03  0.00000000000E+00 0. -1.
          3    1    5    5  503    0 -0.33813171752E+03  0.12055898786E+03 -0.53368920965E+02  0.36292667258E+03  0.00000000000E+00 0. -1.
         -4    1    5    5    0  503 -0.64382063409E+03  0.12648620941E+03 -0.51195408079E+02  0.65812213141E+03  0.00000000000E+00 0.  1.
         -1    1    6    6    0  502  0.63460058120E+02  0.26142478994E+02 -0.28800106277E+02  0.74431541071E+02  0.00000000000E+00 0.  1.
<mgrwt>
<rscale>  0 0.21184535E+04</rscale>
<asrwt>0</asrwt>
<pdfrwt beam="1">  1        2 0.12793554E+00 0.21184535E+04</pdfrwt>
<pdfrwt beam="2">  1       -2 0.20756780E+00 0.21184535E+04</pdfrwt>
<totfact> 0.35706540E+00</totfact>
</mgrwt>
</event>
<event>
12    1  0.1397649E-007  0.1703595E+04  0.7818608E-02  0.8759317E-01
          2   -1    0    0  501    0  0.00000000000E+00  0.00000000000E+00  0.53532786387E+03  0.53532786387E+03  0.00000000000E+00 0. -1.
         -2   -1    0    0    0  501 -0.00000000000E+00 -0.00000000000E+00 -0.13553537353E+04  0.13553537353E+04  0.00000000000E+00 0.  1.
         23    2    1    2    0    0 -0.15972258455E+03  0.56588512693E+03 -0.50026333763E+03  0.77734349703E+03  0.90896779448E+02 0.  0.
        254    2    1    2    0    0  0.15972258455E+03 -0.56588512693E+03 -0.31976253380E+03  0.11133381021E+04  0.88968329800E+03 0.  0.
        -24    2    4    4    0    0 -0.93156960553E+02 -0.73922278905E+03 -0.22598784471E+03  0.78286154059E+03  0.81689256521E+02 0.  0.
         24    2    4    4    0    0  0.25287954510E+03  0.17333766212E+03 -0.93774689090E+02  0.33047656154E+03  0.80168921497E+02 0.  0.
         11    1    3    3    0    0 -0.34800688755E+02  0.15716865213E+03 -0.87673541508E+02  0.18330227230E+03  0.00000000000E+00 0. -1.
        -11    1    3    3    0    0 -0.12492189579E+03  0.40871647479E+03 -0.41258979612E+03  0.59404122473E+03  0.00000000000E+00 0.  1.
          2    1    6    6  502    0  0.17300921228E+03  0.12071767983E+03 -0.10228890075E+03  0.23445247914E+03  0.00000000000E+00 0. -1.
          1    1    5    5  503    0 -0.10436038136E+03 -0.61204050637E+03 -0.17213781959E+03  0.64429504078E+03  0.00000000000E+00 0. -1.
         -2    1    5    5    0  503  0.11203420809E+02 -0.12718228268E+03 -0.53850025126E+02  0.13856649982E+03  0.00000000000E+00 0.  1.
         -1    1    6    6    0  502  0.79870332818E+02  0.52619982295E+02  0.85142116593E+01  0.96024082403E+02  0.00000000000E+00 0.  1.
<mgrwt>
<rscale>  0 0.17035946E+04</rscale>
<asrwt>0</asrwt>
<pdfrwt beam="1">  1        2 0.82358133E-01 0.17035946E+04</pdfrwt>
<pdfrwt beam="2">  1       -2 0.20851596E+00 0.17035946E+04</pdfrwt>
<totfact> 0.63243414E+00</totfact>
</mgrwt>
</event>
<event>
12    1  0.1397649E-007  0.4414982E+04  0.7818608E-02  0.7925692E-01
         -1   -1    0    0    0  501 -0.00000000000E+00  0.00000000000E+00  0.10048229370E+04  0.10048229370E+04  0.00000000000E+00 0.  1.
          1   -1    0    0  501    0  0.00000000000E+00 -0.00000000000E+00 -0.48496267170E+04  0.48496267170E+04  0.00000000000E+00 0. -1.
         23    2    1    2    0    0 -0.12428643658E+04  0.14071154206E+02  0.42818068525E+03  0.13176135914E+04  0.88639990703E+02 0.  0.
        254    2    1    2    0    0  0.12428643658E+04 -0.14071154206E+02 -0.42729844652E+04  0.45368360626E+04  0.88293566547E+03 0.  0.
        -24    2    4    4    0    0  0.59816648517E+03  0.41067962125E+03 -0.24223627692E+04  0.25300379068E+04  0.82398596912E+02 0.  0.
         24    2    4    4    0    0  0.64469788065E+03 -0.42475077546E+03 -0.18506216960E+04  0.20067981558E+04  0.79934959588E+02 0.  0.
         13    1    3    3    0    0 -0.17114905382E+03 -0.68188400303E+01  0.28685782954E+02  0.17367028919E+03  0.00000000000E+00 0. -1.
        -13    1    3    3    0    0 -0.10717153120E+04  0.20889994236E+02  0.39949490230E+03  0.11439433023E+04  0.00000000000E+00 0.  1.
          2    1    6    6  502    0  0.29707754034E+03 -0.22730814830E+03 -0.81717681653E+03  0.89872243142E+03  0.00000000000E+00 0. -1.
          1    1    5    5  503    0  0.54419565636E+02  0.11383708509E+02 -0.17814589559E+03  0.18662003659E+03  0.00000000000E+00 0. -1.
         -4    1    5    5    0  503  0.54374691953E+03  0.39929591275E+03 -0.22442168736E+04  0.23434178702E+04  0.00000000000E+00 0.  1.
         -1    1    6    6    0  502  0.34762034030E+03 -0.19744262716E+03 -0.10334448795E+04  0.11080757244E+04  0.00000000000E+00 0.  1.
<mgrwt>
<rscale>  0 0.44149818E+04</rscale>
<asrwt>0</asrwt>
<pdfrwt beam="1">  1        1 0.74609642E+00 0.44149818E+04</pdfrwt>
<pdfrwt beam="2">  1       -1 0.15458814E+00 0.44149818E+04</pdfrwt>
<totfact> 0.31903555E-03</totfact>
</mgrwt>
</event>
<event>
12    1  0.1397649E-007  0.1641041E+04  0.7818608E-02  0.8795724E-01
         -2   -1    0    0    0  501 -0.00000000000E+00  0.00000000000E+00  0.69241612684E+03  0.69241612684E+03  0.00000000000E+00 0.  1.
          2   -1    0    0  501    0  0.00000000000E+00 -0.00000000000E+00 -0.97232521149E+03  0.97232521149E+03  0.00000000000E+00 0. -1.
         23    2    1    2    0    0  0.75064990097E+01  0.20762749406E+03  0.43588277613E+03  0.49010373629E+03  0.83918734411E+02 0.  0.
        254    2    1    2    0    0 -0.75064990097E+01 -0.20762749406E+03 -0.71579186079E+03  0.11746376020E+04  0.90788214231E+03 0.  0.
        -24    2    4    4    0    0 -0.33717507785E+03  0.18040553900E+03 -0.17715157666E+03  0.42918079265E+03  0.81118925275E+02 0.  0.
         24    2    4    4    0    0  0.32966857884E+03 -0.38803303306E+03 -0.53864028412E+03  0.74545680938E+03  0.79507813147E+02 0.  0.
         13    1    3    3    0    0 -0.31681441082E+02  0.47574880329E+02  0.84677189006E+02  0.10216315033E+03  0.00000000000E+00 0. -1.
        -13    1    3    3    0    0  0.39187940092E+02  0.16005261373E+03  0.35120558712E+03  0.38794058596E+03  0.00000000000E+00 0.  1.
          4    1    6    6  502    0  0.31311499856E+03 -0.32989907342E+03 -0.47900666948E+03  0.66054658456E+03  0.00000000000E+00 0. -1.
          1    1    5    5  503    0 -0.27977026460E+03  0.13978010502E+03 -0.10885248862E+03  0.33114761511E+03  0.00000000000E+00 0. -1.
         -2    1    5    5    0  503 -0.57404813251E+02  0.40625433983E+02 -0.68299088048E+02  0.98033177541E+02  0.00000000000E+00 0.  1.
         -3    1    6    6    0  502  0.16553580279E+02 -0.58133959647E+02 -0.59633614645E+02  0.84910224825E+02  0.00000000000E+00 0.  1.
<mgrwt>
<rscale>  0 0.16410407E+04</rscale>
<asrwt>0</asrwt>
<pdfrwt beam="1">  1        2 0.14958849E+00 0.16410407E+04</pdfrwt>
<pdfrwt beam="2">  1       -2 0.10652556E+00 0.16410407E+04</pdfrwt>
<totfact> 0.17818840E+01</totfact>
</mgrwt>
</event>
<event>
12    1  0.1397649E-007  0.2746034E+04  0.7818608E-02  0.8320221E-01
          2   -1    0    0  501    0  0.00000000000E+00  0.00000000000E+00  0.19423426851E+04  0.19423426851E+04  0.00000000000E+00 0. -1.
         -2   -1    0    0    0  501 -0.00000000000E+00 -0.00000000000E+00 -0.97056835602E+03  0.97056835602E+03  0.00000000000E+00 0.  1.
         23    2    1    2    0    0  0.13410633944E+02  0.53213631430E+01  0.17438068478E+04  0.17463777632E+04  0.93620550544E+02 0.  0.
        254    2    1    2    0    0 -0.13410633944E+02 -0.53213631430E+01 -0.77203251871E+03  0.11665332779E+04  0.87438979667E+03 0.  0.
        -24    2    4    4    0    0 -0.13898575433E+03  0.39189777125E+03 -0.52429621863E+03  0.67390563663E+03  0.79758254697E+02 0.  0.
         24    2    4    4    0    0  0.12557512039E+03 -0.39721913439E+03 -0.24773630008E+03  0.49262764128E+03  0.88071374412E+02 0.  0.
         13    1    3    3    0    0  0.34538287769E+01  0.19351934838E+02  0.16847812526E+04  0.16848959301E+04  0.00000000000E+00 0. -1.
        -13    1    3    3    0    0  0.99568051666E+01 -0.14030571694E+02  0.59025595185E+02  0.61481833074E+02  0.00000000000E+00 0.  1.
          4    1    6    6  502    0  0.69667743970E+02 -0.18726917714E+03 -0.69316494517E+02  0.21149022594E+03  0.00000000000E+00 0. -1.
          1    1    5    5  503    0 -0.94537214971E+02  0.34350990675E+03 -0.42149201902E+03  0.55189841742E+03  0.00000000000E+00 0. -1.
         -2    1    5    5    0  503 -0.44448539364E+02  0.48387864497E+02 -0.10280419960E+03  0.12200721921E+03  0.00000000000E+00 0.  1.
         -3    1    6    6    0  502  0.55907376421E+02 -0.20994995725E+03 -0.17841980556E+03  0.28113741534E+03  0.00000000000E+00 0.  1.
<mgrwt>
<rscale>  0 0.27460345E+04</rscale>
<asrwt>0</asrwt>
<pdfrwt beam="1">  1        2 0.29882195E+00 0.27460345E+04</pdfrwt>
<pdfrwt beam="2">  1       -2 0.14931821E+00 0.27460345E+04</pdfrwt>
<totfact> 0.19067278E+00</totfact>
</mgrwt>
</event>
<event>
12    1  0.1397649E-007  0.1952344E+04  0.7818608E-02  0.8629231E-01
         -1   -1    0    0    0  501 -0.00000000000E+00  0.00000000000E+00  0.16915521737E+04  0.16915521737E+04  0.00000000000E+00 0.  1.
          1   -1    0    0  501    0  0.00000000000E+00 -0.00000000000E+00 -0.56333574278E+03  0.56333574278E+03  0.00000000000E+00 0. -1.
         23    2    1    2    0    0 -0.52268133574E+03 -0.23303235629E+03  0.10249011665E+04  0.11773120795E+04  0.90230115649E+02 0.  0.
        254    2    1    2    0    0  0.52268133574E+03  0.23303235629E+03  0.10331526444E+03  0.10775758369E+04  0.90719115001E+03 0.  0.
        -24    2    4    4    0    0  0.24811496585E+03  0.32425134819E+03 -0.34362579155E+03  0.53956643517E+03  0.79707466778E+02 0.  0.
         24    2    4    4    0    0  0.27456636988E+03 -0.91218991900E+02  0.44694105598E+03  0.53800940176E+03  0.77396465718E+02 0.  0.
         13    1    3    3    0    0 -0.52347103042E+03 -0.22717667035E+03  0.99667288093E+03  0.11484720244E+04  0.00000000000E+00 0.  1.
        -13    1    3    3    0    0  0.78969468419E+00 -0.58556859417E+01  0.28228285544E+02  0.28840055137E+02  0.00000000000E+00 0. -1.
          4    1    6    6  502    0  0.22345103305E+03 -0.51275730127E+02  0.38630707917E+03  0.44921345047E+03  0.00000000000E+00 0. -1.
          3    1    5    5  503    0  0.11641672360E+03  0.11743100702E+03 -0.18198112536E+03  0.24588620321E+03  0.00000000000E+00 0. -1.
         -4    1    5    5    0  503  0.13169824225E+03  0.20682034117E+03 -0.16164466619E+03  0.29368023195E+03  0.00000000000E+00 0.  1.
         -3    1    6    6    0  502  0.51115336832E+02 -0.39943261773E+02  0.60633976817E+02  0.88795951288E+02  0.00000000000E+00 0.  1.
<mgrwt>
<rscale>  0 0.19523440E+04</rscale>
<asrwt>0</asrwt>
<pdfrwt beam="1">  1        1 0.86667038E-01 0.19523440E+04</pdfrwt>
<pdfrwt beam="2">  1       -1 0.26023879E+00 0.19523440E+04</pdfrwt>
<totfact> 0.20882598E+00</totfact>
</mgrwt>
</event>
<event>
12    1  0.1397649E-007  0.2609094E+04  0.7818608E-02  0.8365119E-01
          2   -1    0    0  501    0  0.00000000000E+00  0.00000000000E+00  0.37077684870E+04  0.37077684870E+04  0.00000000000E+00 0. -1.
         -2   -1    0    0    0  501 -0.00000000000E+00 -0.00000000000E+00 -0.45899380394E+03  0.45899380394E+03  0.00000000000E+00 0.  1.
         23    2    1    2    0    0 -0.10140905980E+04 -0.39744192434E+03  0.85803083028E+03  0.13896497813E+04  0.92573132308E+02 0.  0.
        254    2    1    2    0    0  0.10140905980E+04  0.39744192434E+03  0.23907438528E+04  0.27771125097E+04  0.90019881004E+03 0.  0.
        -24    2    4    4    0    0  0.75902836008E+03 -0.15657775004E+03  0.11035820226E+04  0.13505292977E+04  0.73453796192E+02 0.  0.
         24    2    4    4    0    0  0.25506223789E+03  0.55401967437E+03  0.12871618302E+04  0.14265832120E+04  0.79746716130E+02 0.  0.
         13    1    3    3    0    0 -0.32199378214E+03 -0.17211607632E+03  0.27551689531E+03  0.45739862163E+03  0.00000000000E+00 0. -1.
        -13    1    3    3    0    0 -0.69209681582E+03 -0.22532584802E+03  0.58251393497E+03  0.93225115966E+03  0.00000000000E+00 0.  1.
          4    1    6    6  502    0  0.66907723797E+02  0.14999116641E+03  0.43367734100E+03  0.46373486994E+03  0.00000000000E+00 0. -1.
          3    1    5    5  503    0  0.25940798887E+03 -0.24341466907E+02  0.40446616358E+03  0.48112149108E+03  0.00000000000E+00 0. -1.
         -4    1    5    5    0  503  0.49962037121E+03 -0.13223628313E+03  0.69911585903E+03  0.86940780664E+03  0.00000000000E+00 0.  1.
         -3    1    6    6    0  502  0.18815451409E+03  0.40402850796E+03  0.85348448920E+03  0.96284834202E+03  0.00000000000E+00 0.  1.
<mgrwt>
<rscale>  0 0.26090939E+04</rscale>
<asrwt>0</asrwt>
<pdfrwt beam="1">  1        2 0.57042590E+00 0.26090939E+04</pdfrwt>
<pdfrwt beam="2">  1       -2 0.70614434E-01 0.26090939E+04</pdfrwt>
<totfact> 0.92968316E-01</totfact>
</mgrwt>
</event>
<event>
12    1  0.1397649E-007  0.1673176E+04  0.7818608E-02  0.8776813E-01
          2   -1    0    0  501    0  0.00000000000E+00  0.00000000000E+00  0.18353682123E+04  0.18353682123E+04  0.00000000000E+00 0. -1.
         -2   -1    0    0    0  501 -0.00000000000E+00 -0.00000000000E+00 -0.38132898399E+03  0.38132898399E+03  0.00000000000E+00 0.  1.
         23    2    1    2    0    0 -0.12877732451E+03  0.58203546192E+03  0.47645953291E+03  0.76937577587E+03  0.97859694201E+02 0.  0.
        254    2    1    2    0    0  0.12877732451E+03 -0.58203546192E+03  0.97757969538E+03  0.14473214204E+04  0.88528433562E+03 0.  0.
        -24    2    4    4    0    0 -0.11990291384E+03 -0.68239384170E+03  0.39583687070E+03  0.80193285659E+03  0.79821139701E+02 0.  0.
         24    2    4    4    0    0  0.24868023835E+03  0.10035837978E+03  0.58174282468E+03  0.64538856381E+03  0.78663961828E+02 0.  0.
         13    1    3    3    0    0  0.66406962811E+01  0.47663080933E+00  0.81244590456E+01  0.10503944917E+02  0.00000000000E+00 0. -1.
        -13    1    3    3    0    0 -0.13541802079E+03  0.58155883111E+03  0.46833507387E+03  0.75887183095E+03  0.00000000000E+00 0.  1.
          2    1    6    6  502    0  0.60721251377E+02  0.36065051080E+01  0.19969256056E+03  0.20875151734E+03  0.00000000000E+00 0. -1.
          1    1    5    5  503    0 -0.82958455360E+02 -0.30150742886E+03  0.14759717016E+03  0.34579438921E+03  0.00000000000E+00 0. -1.
         -2    1    5    5    0  503 -0.36944458476E+02 -0.38088641284E+03  0.24823970054E+03  0.45613846738E+03  0.00000000000E+00 0.  1.
         -1    1    6    6    0  502  0.18795898697E+03  0.96751874670E+02  0.38205026412E+03  0.43663704647E+03  0.00000000000E+00 0.  1.
<mgrwt>
<rscale>  0 0.16731755E+04</rscale>
<asrwt>0</asrwt>
<pdfrwt beam="1">  1        2 0.28236434E+00 0.16731755E+04</pdfrwt>
<pdfrwt beam="2">  1       -2 0.58665998E-01 0.16731755E+04</pdfrwt>
<totfact> 0.21357363E+01</totfact>
</mgrwt>
</event>
<event>
12    1  0.1397649E-007  0.2616002E+04  0.7818608E-02  0.8362786E-01
          1   -1    0    0  501    0  0.00000000000E+00  0.00000000000E+00  0.75908440679E+03  0.75908440679E+03  0.00000000000E+00 0. -1.
         -1   -1    0    0    0  501 -0.00000000000E+00 -0.00000000000E+00 -0.22538552770E+04  0.22538552770E+04  0.00000000000E+00 0.  1.
         23    2    1    2    0    0 -0.17164348099E+03  0.70982549424E+03 -0.16854398529E+04  0.18390398861E+04  0.89702218409E+02 0.  0.
        254    2    1    2    0    0  0.17164348099E+03 -0.70982549424E+03  0.19066898276E+03  0.11738997977E+04  0.89909529923E+03 0.  0.
        -24    2    4    4    0    0  0.42906771264E+03 -0.30147938654E+03 -0.18003821312E+03  0.56012937783E+03  0.79638176680E+02 0.  0.
         24    2    4    4    0    0 -0.25742423165E+03 -0.40834610770E+03  0.37070719588E+03  0.61377041982E+03  0.79224519252E+02 0.  0.
         13    1    3    3    0    0 -0.11454808658E+02  0.15536982451E+03 -0.29573965432E+03  0.33426477252E+03  0.00000000000E+00 0. -1.
        -13    1    3    3    0    0 -0.16018867233E+03  0.55445566973E+03 -0.13897001986E+04  0.15047751136E+04  0.00000000000E+00 0.  1.
          4    1    6    6  502    0 -0.37732479955E+02 -0.98274855534E+02  0.11404508268E+03  0.15520299017E+03  0.00000000000E+00 0. -1.
          1    1    5    5  503    0  0.22079226272E+03 -0.12442737423E+03 -0.54078807997E+02  0.25914457782E+03  0.00000000000E+00 0. -1.
         -2    1    5    5    0  503  0.20827544992E+03 -0.17705201231E+03 -0.12595940512E+03  0.30098480002E+03  0.00000000000E+00 0.  1.
         -3    1    6    6    0  502 -0.21969175170E+03 -0.31007125216E+03  0.25666211321E+03  0.45856742965E+03  0.00000000000E+00 0.  1.
<mgrwt>
<rscale>  0 0.26160018E+04</rscale>
<asrwt>0</asrwt>
<pdfrwt beam="1">  1        1 0.11678222E+00 0.26160018E+04</pdfrwt>
<pdfrwt beam="2">  1       -1 0.34674697E+00 0.26160018E+04</pdfrwt>
<totfact> 0.34519728E-01</totfact>
</mgrwt>
</event>
<event>
12    1  0.1397649E-007  0.1256688E+04  0.7818608E-02  0.9064635E-01
         -1   -1    0    0    0  501 -0.00000000000E+00  0.00000000000E+00  0.75841415812E+03  0.75841415812E+03  0.00000000000E+00 0.  1.
          1   -1    0    0  501    0  0.00000000000E+00 -0.00000000000E+00 -0.52058135172E+03  0.52058135172E+03  0.00000000000E+00 0. -1.
         23    2    1    2    0    0 -0.22035117808E+03 -0.49365557059E+00 -0.13933146806E+03  0.27616415620E+03  0.91096091027E+02 0.  0.
        254    2    1    2    0    0  0.22035117808E+03  0.49365557059E+00  0.37716427446E+03  0.10028313536E+04  0.90269759527E+03 0.  0.
        -24    2    4    4    0    0  0.33031701913E+03 -0.64116794127E+02  0.62413307299E+03  0.71380544503E+03  0.82193820597E+02 0.  0.
         24    2    4    4    0    0 -0.10996584105E+03  0.64610449698E+02 -0.24696879853E+03  0.28902590859E+03  0.79217371735E+02 0.  0.
         13    1    3    3    0    0 -0.27212297984E+02  0.27697511234E+02 -0.48386145629E+01  0.39128934065E+02  0.00000000000E+00 0.  1.
        -13    1    3    3    0    0 -0.19313888010E+03 -0.28191166805E+02 -0.13449285350E+03  0.23703522214E+03  0.00000000000E+00 0. -1.
          2    1    6    6  502    0 -0.64974769323E+02  0.39214397089E+02 -0.21564146818E+03  0.22860606376E+03  0.00000000000E+00 0. -1.
          3    1    5    5  503    0  0.11183492634E+03 -0.66314783271E+01  0.28585018566E+03  0.30702012295E+03  0.00000000000E+00 0. -1.
         -4    1    5    5    0  503  0.21848209280E+03 -0.57485315800E+02  0.33828288733E+03  0.40678532209E+03  0.00000000000E+00 0.  1.
         -1    1    6    6    0  502 -0.44991071727E+02  0.25396052609E+02 -0.31327330344E+02  0.60419844834E+02  0.00000000000E+00 0.  1.
<mgrwt>
<rscale>  0 0.12566881E+04</rscale>
<asrwt>0</asrwt>
<pdfrwt beam="1">  1        1 0.80089438E-01 0.12566881E+04</pdfrwt>
<pdfrwt beam="2">  1       -1 0.11667910E+00 0.12566881E+04</pdfrwt>
<totfact> 0.27391151E+01</totfact>
</mgrwt>
</event>
<event>
12    1  0.1397649E-007  0.1663339E+04  0.7818608E-02  0.8782554E-01
         -2   -1    0    0    0  501 -0.00000000000E+00  0.00000000000E+00  0.19511173479E+03  0.19511173479E+03  0.00000000000E+00 0.  1.
          2   -1    0    0  501    0  0.00000000000E+00 -0.00000000000E+00 -0.35450150158E+04  0.35450150158E+04  0.00000000000E+00 0. -1.
         23    2    1    2    0    0 -0.20048876265E+02 -0.18122285331E+03 -0.24414591930E+04  0.24499459019E+04  0.90929925436E+02 0.  0.
        254    2    1    2    0    0  0.20048876265E+02  0.18122285331E+03 -0.90844408807E+03  0.12901808487E+04  0.89780414414E+03 0.  0.
        -24    2    4    4    0    0 -0.13172744278E+03  0.51584299672E+03 -0.56955542295E+03  0.78387300241E+03  0.81347327209E+02 0.  0.
         24    2    4    4    0    0  0.15177631904E+03 -0.33462014341E+03 -0.33888866512E+03  0.50630784630E+03  0.80594146730E+02 0.  0.
         11    1    3    3    0    0 -0.29624876413E+02 -0.16056133335E+03 -0.16277221562E+04  0.16358902753E+04  0.00000000000E+00 0. -1.
        -11    1    3    3    0    0  0.95760001481E+01 -0.20661519962E+02 -0.81373703675E+03  0.81405562658E+03  0.00000000000E+00 0.  1.
          2    1    6    6  502    0  0.11855460860E+03 -0.18214790727E+03 -0.22718925263E+03  0.31440103666E+03  0.00000000000E+00 0. -1.
          1    1    5    5  503    0 -0.11651433477E+03  0.34886558384E+03 -0.35102042279E+03  0.50842710688E+03  0.00000000000E+00 0. -1.
         -2    1    5    5    0  503 -0.15213108011E+02  0.16697741288E+03 -0.21853500016E+03  0.27544589553E+03  0.00000000000E+00 0.  1.
         -1    1    6    6    0  502  0.33221710444E+02 -0.15247223613E+03 -0.11169941249E+03  0.19190680964E+03  0.00000000000E+00 0.  1.
<mgrwt>
<rscale>  0 0.16633388E+04</rscale>
<asrwt>0</asrwt>
<pdfrwt beam="1">  1        2 0.54538688E+00 0.16633388E+04</pdfrwt>
<pdfrwt beam="2">  1       -2 0.30017192E-01 0.16633388E+04</pdfrwt>
<totfact> 0.74705086E+00</totfact>
</mgrwt>
</event>
<event>
12    1  0.1397649E-007  0.1129807E+04  0.7818608E-02  0.9176617E-01
         -2   -1    0    0    0  501 -0.00000000000E+00  0.00000000000E+00  0.33845688839E+03  0.33845688839E+03  0.00000000000E+00 0.  1.
          2   -1    0    0  501    0  0.00000000000E+00 -0.00000000000E+00 -0.94285617280E+03  0.94285617280E+03  0.00000000000E+00 0. -1.
         23    2    1    2    0    0 -0.14220146601E+03 -0.91806707148E+02 -0.15530719105E+03  0.26085834659E+03  0.12360026285E+03 0.  0.
        254    2    1    2    0    0  0.14220146601E+03  0.91806707148E+02 -0.44909209336E+03  0.10204547146E+04  0.90055226824E+03 0.  0.
        -24    2    4    4    0    0 -0.21870470730E+03  0.14316034619E+03  0.15210852840E+03  0.31284462617E+03  0.80050746391E+02 0.  0.
         24    2    4    4    0    0  0.36090617331E+03 -0.51353639045E+02 -0.60120062176E+03  0.70761008844E+03  0.79871067860E+02 0.  0.
         13    1    3    3    0    0 -0.12295388764E+03 -0.60928141581E+02 -0.17265854542E+03  0.22054675293E+03  0.00000000000E+00 0. -1.
        -13    1    3    3    0    0 -0.19247578370E+02 -0.30878565567E+02  0.17351354367E+02  0.40311593655E+02  0.00000000000E+00 0.  1.
          2    1    6    6  502    0 -0.37158880984E+01  0.20753587038E+01 -0.11154862731E+02  0.11939258798E+02  0.00000000000E+00 0. -1.
          1    1    5    5  503    0 -0.62274926706E+02  0.21521519770E+02  0.50529254322E+01  0.66082330201E+02  0.00000000000E+00 0. -1.
         -4    1    5    5    0  503 -0.15642978059E+03  0.12163882642E+03  0.14705560296E+03  0.24676229597E+03  0.00000000000E+00 0.  1.
         -1    1    6    6    0  502  0.36462206141E+03 -0.53428997749E+02 -0.59004575903E+03  0.69567082964E+03  0.00000000000E+00 0.  1.
<mgrwt>
<rscale>  0 0.11298074E+04</rscale>
<asrwt>0</asrwt>
<pdfrwt beam="1">  1        2 0.14505479E+00 0.11298074E+04</pdfrwt>
<pdfrwt beam="2">  1       -2 0.52070291E-01 0.11298074E+04</pdfrwt>
<totfact> 0.94714079E+01</totfact>
</mgrwt>
</event>
<event>
12    1  0.1708614E-007  0.1796488E+04  0.7818608E-02  0.8708169E-01
         -1   -1    0    0    0  501 -0.00000000000E+00  0.00000000000E+00  0.86279942700E+03  0.86279942700E+03  0.00000000000E+00 0.  1.
          1   -1    0    0  501    0  0.00000000000E+00 -0.00000000000E+00 -0.93514471519E+03  0.93514471519E+03  0.00000000000E+00 0. -1.
         23    2    1    2    0    0 -0.43469536327E+03  0.48662496002E+03 -0.12703852828E+03  0.67073740761E+03  0.89364264299E+02 0.  0.
        254    2    1    2    0    0  0.43469536327E+03 -0.48662496002E+03  0.54693240086E+02  0.11272067346E+04  0.91751826216E+03 0.  0.
        -24    2    4    4    0    0 -0.77491274004E+02  0.20824510904E+03  0.10154184414E+03  0.25906615633E+03  0.86218352191E+02 0.  0.
         24    2    4    4    0    0  0.51218663728E+03 -0.69487006907E+03 -0.46848604059E+02  0.86814057825E+03  0.79332891117E+02 0.  0.
         13    1    3    3    0    0 -0.40148423406E+03  0.43882712189E+03 -0.89483779872E+02  0.60147001585E+03  0.00000000000E+00 0.  1.
        -13    1    3    3    0    0 -0.33211129211E+02  0.47797838133E+02 -0.37554748404E+02  0.69267391761E+02  0.00000000000E+00 0. -1.
          4    1    6    6  502    0  0.15561613336E+03 -0.23997790518E+03  0.17675631921E+02  0.28656273990E+03  0.00000000000E+00 0. -1.
          1    1    5    5  503    0  0.49488163926E+00  0.65493969920E+01 -0.12846576247E+02  0.14428237247E+02  0.00000000000E+00 0. -1.
         -2    1    5    5    0  503 -0.77986155644E+02  0.20169571205E+03  0.11438842039E+03  0.24463791908E+03  0.00000000000E+00 0.  1.
         -3    1    6    6    0  502  0.35657050392E+03 -0.45489216389E+03 -0.64524235980E+02  0.58157783835E+03  0.00000000000E+00 0.  1.
<mgrwt>
<rscale>  0 0.17964880E+04</rscale>
<asrwt>0</asrwt>
<pdfrwt beam="1">  1        1 0.14386842E+00 0.17964880E+04</pdfrwt>
<pdfrwt beam="2">  1       -1 0.13273837E+00 0.17964880E+04</pdfrwt>
<totfact> 0.77359223E+00</totfact>
</mgrwt>
</event>
<event>
12    1  0.1397649E-007  0.1210299E+04  0.7818608E-02  0.9103889E-01
         -1   -1    0    0    0  501 -0.00000000000E+00  0.00000000000E+00  0.21754854262E+03  0.21754854262E+03  0.00000000000E+00 0.  1.
          1   -1    0    0  501    0  0.00000000000E+00 -0.00000000000E+00 -0.16833296075E+04  0.16833296075E+04  0.00000000000E+00 0. -1.
         23    2    1    2    0    0 -0.10915446030E+03 -0.10349023718E+03 -0.12328808799E+01  0.17592014883E+03  0.91222000497E+02 0.  0.
        254    2    1    2    0    0  0.10915446030E+03  0.10349023718E+03 -0.14645481840E+04  0.17249580012E+04  0.89886250201E+03 0.  0.
        -24    2    4    4    0    0  0.13330517312E+03  0.28896766335E+03 -0.96603207259E+02  0.34198690120E+03  0.79688652264E+02 0.  0.
         24    2    4    4    0    0 -0.24150712817E+02 -0.18547742617E+03 -0.13679449767E+04  0.13829711000E+04  0.79689846960E+02 0.  0.
         13    1    3    3    0    0 -0.10799853440E+03 -0.62146237838E+02  0.24803305036E+02  0.12704740159E+03  0.00000000000E+00 0.  1.
        -13    1    3    3    0    0 -0.11559259051E+01 -0.41343999343E+02 -0.26036185916E+02  0.48872747246E+02  0.00000000000E+00 0. -1.
          2    1    6    6  502    0 -0.52180179803E+02 -0.11635759886E+03 -0.93351360752E+03  0.94218337780E+03  0.00000000000E+00 0. -1.
          1    1    5    5  503    0  0.11945811888E+03  0.28957949113E+03 -0.86946771063E+02  0.32509423995E+03  0.00000000000E+00 0. -1.
         -2    1    5    5    0  503  0.13847054238E+02 -0.61182777794E+00 -0.96564361961E+01  0.16892661256E+02  0.00000000000E+00 0.  1.
         -1    1    6    6    0  502  0.28029466986E+02 -0.69119827314E+02 -0.43443136918E+03  0.44078772224E+03  0.00000000000E+00 0.  1.
<mgrwt>
<rscale>  0 0.12102990E+04</rscale>
<asrwt>0</asrwt>
<pdfrwt beam="1">  1        1 0.25897378E+00 0.12102990E+04</pdfrwt>
<pdfrwt beam="2">  1       -1 0.33469007E-01 0.12102990E+04</pdfrwt>
<totfact> 0.40687655E+01</totfact>
</mgrwt>
</event>
<event>
12    1  0.1397649E-007  0.1770149E+04  0.7818608E-02  0.8722337E-01
         -1   -1    0    0    0  501 -0.00000000000E+00  0.00000000000E+00  0.25274724758E+03  0.25274724758E+03  0.00000000000E+00 0.  1.
          1   -1    0    0  501    0  0.00000000000E+00 -0.00000000000E+00 -0.30993677641E+04  0.30993677641E+04  0.00000000000E+00 0. -1.
         23    2    1    2    0    0 -0.12284259280E+03 -0.29596577354E+03  0.91484312609E+01  0.34092378537E+03  0.11601418847E+03 0.  0.
        254    2    1    2    0    0  0.12284259280E+03  0.29596577354E+03 -0.28557689478E+04  0.30111912263E+04  0.89953892447E+03 0.  0.
        -24    2    4    4    0    0  0.19372451794E+03  0.57705643232E+03 -0.14693240415E+04  0.15924664907E+04  0.80703593862E+02 0.  0.
         24    2    4    4    0    0 -0.70881925140E+02 -0.28109065878E+03 -0.13864449063E+04  0.14187247357E+04  0.80710542088E+02 0.  0.
         11    1    3    3    0    0 -0.13039801995E+03 -0.22049369538E+03  0.39563871003E+02  0.25920342049E+03  0.00000000000E+00 0.  1.
        -11    1    3    3    0    0  0.75554271425E+01 -0.75472078160E+02 -0.30415439742E+02  0.81720364878E+02  0.00000000000E+00 0. -1.
          4    1    6    6  502    0 -0.12804700018E+02  0.27998942095E+00 -0.83825146291E+02  0.84797959217E+02  0.00000000000E+00 0. -1.
          3    1    5    5  503    0  0.41933720470E+02  0.78044906593E+02 -0.15674363361E+03  0.18005002370E+03  0.00000000000E+00 0. -1.
         -4    1    5    5    0  503  0.15179079747E+03  0.49901152572E+03 -0.13125804079E+04  0.14124164669E+04  0.00000000000E+00 0.  1.
         -3    1    6    6    0  502 -0.58077225122E+02 -0.28137064820E+03 -0.13026197600E+04  0.13339267765E+04  0.00000000000E+00 0.  1.
<mgrwt>
<rscale>  0 0.17701488E+04</rscale>
<asrwt>0</asrwt>
<pdfrwt beam="1">  1        1 0.47682576E+00 0.17701488E+04</pdfrwt>
<pdfrwt beam="2">  1       -1 0.38884196E-01 0.17701488E+04</pdfrwt>
<totfact> 0.30778310E+00</totfact>
</mgrwt>
</event>
<event>
12    1  0.1397649E-007  0.4195795E+04  0.7818608E-02  0.7966173E-01
         -2   -1    0    0    0  501 -0.00000000000E+00  0.00000000000E+00  0.11782055438E+04  0.11782055438E+04  0.00000000000E+00 0.  1.
          2   -1    0    0  501    0  0.00000000000E+00 -0.00000000000E+00 -0.37354887278E+04  0.37354887278E+04  0.00000000000E+00 0. -1.
         23    2    1    2    0    0  0.15051262732E+04  0.13062072970E+04 -0.10216531304E+04  0.22423406164E+04  0.11284378632E+03 0.  0.
        254    2    1    2    0    0 -0.15051262732E+04 -0.13062072970E+04 -0.15356300536E+04  0.26713536552E+04  0.89799114055E+03 0.  0.
        -24    2    4    4    0    0 -0.19451534340E+03 -0.66942472987E+03 -0.69295139287E+03  0.98635892050E+03  0.82198536516E+02 0.  0.
         24    2    4    4    0    0 -0.13106109298E+04 -0.63678256718E+03 -0.84267866076E+03  0.16849947347E+04  0.76856252500E+02 0.  0.
         11    1    3    3    0    0  0.63240135750E+03  0.61166324780E+03 -0.48401865116E+03  0.10041600771E+04  0.00000000000E+00 0. -1.
        -11    1    3    3    0    0  0.87272491568E+03  0.69454404924E+03 -0.53763447920E+03  0.12381805393E+04  0.00000000000E+00 0.  1.
          2    1    6    6  502    0 -0.57775037149E+03 -0.24168831298E+03 -0.37872014364E+03  0.73187272090E+03  0.00000000000E+00 0. -1.
          3    1    5    5  503    0 -0.87445413686E+01 -0.14873114521E+03 -0.15441602276E+03  0.21457336425E+03  0.00000000000E+00 0. -1.
         -4    1    5    5    0  503 -0.18577080203E+03 -0.52069358465E+03 -0.53853537010E+03  0.77178555625E+03  0.00000000000E+00 0.  1.
         -1    1    6    6    0  502 -0.73286055829E+03 -0.39509425420E+03 -0.46395851712E+03  0.95312201381E+03  0.00000000000E+00 0.  1.
<mgrwt>
<rscale>  0 0.41957948E+04</rscale>
<asrwt>0</asrwt>
<pdfrwt beam="1">  1        2 0.57469057E+00 0.41957948E+04</pdfrwt>
<pdfrwt beam="2">  1       -2 0.18126239E+00 0.41957948E+04</pdfrwt>
<totfact> 0.75605734E-02</totfact>
</mgrwt>
</event>
<event>
12    1  0.1397649E-007  0.1535145E+04  0.7818608E-02  0.8861413E-01
         -2   -1    0    0    0  501 -0.00000000000E+00  0.00000000000E+00  0.70564602653E+03  0.70564602653E+03  0.00000000000E+00 0.  1.
          2   -1    0    0  501    0  0.00000000000E+00 -0.00000000000E+00 -0.83493319832E+03  0.83493319832E+03  0.00000000000E+00 0. -1.
         23    2    1    2    0    0 -0.14298012526E+03  0.45496853142E+03 -0.18537462330E+03  0.51978423163E+03  0.91499812477E+02 0.  0.
        254    2    1    2    0    0  0.14298012526E+03 -0.45496853142E+03  0.56087451509E+02  0.10207949932E+04  0.90079794358E+03 0.  0.
        -24    2    4    4    0    0  0.93207745685E+02 -0.63832805697E+03 -0.21098462919E+03  0.68336513628E+03  0.79517316090E+02 0.  0.
         24    2    4    4    0    0  0.49772379577E+02  0.18335952555E+03  0.26707208070E+03  0.33742985693E+03  0.80208520015E+02 0.  0.
         11    1    3    3    0    0 -0.14689170596E+03  0.44953588481E+03 -0.19195403887E+03  0.51039792128E+03  0.00000000000E+00 0. -1.
        -11    1    3    3    0    0  0.39115806953E+01  0.54326466126E+01  0.65794155677E+01  0.93863103489E+01  0.00000000000E+00 0.  1.
          2    1    6    6  502    0  0.33044008716E+02  0.75989666685E+02  0.18009072419E+03  0.19823976618E+03  0.00000000000E+00 0. -1.
          1    1    5    5  503    0  0.48516621021E+02 -0.51693683547E+03 -0.15060164125E+03  0.54060929398E+03  0.00000000000E+00 0. -1.
         -2    1    5    5    0  503  0.44691124665E+02 -0.12139122150E+03 -0.60382987933E+02  0.14275584231E+03  0.00000000000E+00 0.  1.
         -1    1    6    6    0  502  0.16728370861E+02  0.10736985887E+03  0.86981356506E+02  0.13919009076E+03  0.00000000000E+00 0.  1.
<mgrwt>
<rscale>  0 0.15351447E+04</rscale>
<asrwt>0</asrwt>
<pdfrwt beam="1">  1        2 0.12845126E+00 0.15351447E+04</pdfrwt>
<pdfrwt beam="2">  1       -2 0.10856093E+00 0.15351447E+04</pdfrwt>
<totfact> 0.21260224E+01</totfact>
</mgrwt>
</event>
<event>
12    1  0.1397649E-007  0.3326959E+04  0.7818608E-02  0.8156069E-01
         -2   -1    0    0    0  501 -0.00000000000E+00  0.00000000000E+00  0.12457484248E+04  0.12457484248E+04  0.00000000000E+00 0.  1.
          2   -1    0    0  501    0  0.00000000000E+00 -0.00000000000E+00 -0.22212867151E+04  0.22212867151E+04  0.00000000000E+00 0. -1.
         23    2    1    2    0    0 -0.29038601336E+02  0.13014917575E+04  0.40689070686E+03  0.13665271540E+04  0.84334928277E+02 0.  0.
        254    2    1    2    0    0  0.29038601336E+02 -0.13014917575E+04 -0.13824289971E+04  0.21005079860E+04  0.89794199810E+03 0.  0.
        -24    2    4    4    0    0  0.16910698935E+03 -0.13656814382E+04 -0.13364762721E+04  0.19199344201E+04  0.79349778806E+02 0.  0.
         24    2    4    4    0    0 -0.14006838802E+03  0.64189680692E+02 -0.45952725037E+02  0.18057356584E+03  0.82193012557E+02 0.  0.
         11    1    3    3    0    0 -0.37820953184E+01  0.38177310500E+03  0.15960231078E+03  0.41380902063E+03  0.00000000000E+00 0. -1.
        -11    1    3    3    0    0 -0.25256506017E+02  0.91971865246E+03  0.24728839608E+03  0.95271813335E+03  0.00000000000E+00 0.  1.
          2    1    6    6  502    0 -0.89167424028E+02  0.44418451654E+02 -0.69127293968E+02  0.12125349944E+03  0.00000000000E+00 0. -1.
          3    1    5    5  503    0  0.10777165478E+03 -0.72579996697E+03 -0.66298915355E+03  0.98891604262E+03  0.00000000000E+00 0. -1.
         -4    1    5    5    0  503  0.61335334575E+02 -0.63988147119E+03 -0.67348711855E+03  0.93101837753E+03  0.00000000000E+00 0.  1.
         -1    1    6    6    0  502 -0.50900963988E+02  0.19771229038E+02  0.23174568931E+02  0.59320066400E+02  0.00000000000E+00 0.  1.
<mgrwt>
<rscale>  0 0.33269592E+04</rscale>
<asrwt>0</asrwt>
<pdfrwt beam="1">  1        2 0.34173641E+00 0.33269592E+04</pdfrwt>
<pdfrwt beam="2">  1       -2 0.19165361E+00 0.33269592E+04</pdfrwt>
<totfact> 0.63252000E-01</totfact>
</mgrwt>
</event>
<event>
12    1  0.1397649E-007  0.1220053E+04  0.7818608E-02  0.9095483E-01
          2   -1    0    0  501    0  0.00000000000E+00  0.00000000000E+00  0.83228195807E+03  0.83228195807E+03  0.00000000000E+00 0. -1.
         -2   -1    0    0    0  501 -0.00000000000E+00 -0.00000000000E+00 -0.44712301049E+03  0.44712301049E+03  0.00000000000E+00 0.  1.
         23    2    1    2    0    0  0.25964362246E+03  0.65076680605E+02  0.10095092427E+03  0.30015536404E+03  0.90842547350E+02 0.  0.
        254    2    1    2    0    0 -0.25964362246E+03 -0.65076680605E+02  0.28420802332E+03  0.97924960453E+03  0.89805668107E+03 0.  0.
        -24    2    4    4    0    0 -0.27655523396E+03  0.22856081365E+03  0.48891338930E+03  0.61224485925E+03  0.84170199473E+02 0.  0.
         24    2    4    4    0    0  0.16911611508E+02 -0.29363749425E+03 -0.20470536598E+03  0.36700474528E+03  0.79241501506E+02 0.  0.
         11    1    3    3    0    0  0.26307400261E+03  0.51061814332E+02  0.98541455306E+02  0.28552698322E+03  0.00000000000E+00 0. -1.
        -11    1    3    3    0    0 -0.34303801549E+01  0.14014866273E+02  0.24094689607E+01  0.14628380817E+02  0.00000000000E+00 0.  1.
          2    1    6    6  502    0 -0.27565286453E+02 -0.16381380484E+03 -0.95396842563E+02  0.19156034361E+03  0.00000000000E+00 0. -1.
          1    1    5    5  503    0 -0.39447237831E+02  0.69573953952E+02  0.76569442774E+02  0.11072262284E+03  0.00000000000E+00 0. -1.
         -2    1    5    5    0  503 -0.23710799613E+03  0.15898685969E+03  0.41234394652E+03  0.50152223642E+03  0.00000000000E+00 0.  1.
         -1    1    6    6    0  502  0.44476897961E+02 -0.12982368942E+03 -0.10930852342E+03  0.17544440167E+03  0.00000000000E+00 0.  1.
<mgrwt>
<rscale>  0 0.12200531E+04</rscale>
<asrwt>0</asrwt>
<pdfrwt beam="1">  1        2 0.12804338E+00 0.12200531E+04</pdfrwt>
<pdfrwt beam="2">  1       -2 0.68788155E-01 0.12200531E+04</pdfrwt>
<totfact> 0.62182905E+01</totfact>
</mgrwt>
</event>
<event>
12    1  0.1397649E-007  0.1510439E+04  0.7818608E-02  0.8877541E-01
          1   -1    0    0  501    0  0.00000000000E+00  0.00000000000E+00  0.89043675627E+03  0.89043675627E+03  0.00000000000E+00 0. -1.
         -1   -1    0    0    0  501 -0.00000000000E+00 -0.00000000000E+00 -0.64053568169E+03  0.64053568169E+03  0.00000000000E+00 0.  1.
         23    2    1    2    0    0  0.71486320318E+01  0.17761874506E+03  0.52592711408E+03  0.56240397314E+03  0.89996545160E+02 0.  0.
        254    2    1    2    0    0 -0.71486320318E+01 -0.17761874506E+03 -0.27602603951E+03  0.96856846482E+03  0.91122718079E+03 0.  0.
        -24    2    4    4    0    0 -0.14578226725E+03 -0.14908976357E+03  0.29820081211E+03  0.37206768134E+03  0.77655702352E+02 0.  0.
         24    2    4    4    0    0  0.13863363522E+03 -0.28528981483E+02 -0.57422685162E+03  0.59650078347E+03  0.77740079494E+02 0.  0.
         11    1    3    3    0    0 -0.31189970838E+02  0.28822247111E+02  0.77374348762E+02  0.88262823747E+02  0.00000000000E+00 0. -1.
        -11    1    3    3    0    0  0.38338602870E+02  0.14879649794E+03  0.44855276532E+03  0.47414114939E+03  0.00000000000E+00 0.  1.
          4    1    6    6  502    0  0.36880055838E+02  0.21434647448E+02 -0.96477248758E+02  0.10548669185E+03  0.00000000000E+00 0. -1.
          3    1    5    5  503    0 -0.91930875028E+02 -0.12407640449E+03  0.16369231462E+03  0.22503647216E+03  0.00000000000E+00 0. -1.
         -4    1    5    5    0  503 -0.53851392224E+02 -0.25013359078E+02  0.13450849749E+03  0.14703120918E+03  0.00000000000E+00 0.  1.
         -3    1    6    6    0  502  0.10175357938E+03 -0.49963628930E+02 -0.47774960287E+03  0.49101409162E+03  0.00000000000E+00 0.  1.
<mgrwt>
<rscale>  0 0.15104390E+04</rscale>
<asrwt>0</asrwt>
<pdfrwt beam="1">  1        1 0.13699027E+00 0.15104390E+04</pdfrwt>
<pdfrwt beam="2">  1       -1 0.98543951E-01 0.15104390E+04</pdfrwt>
<totfact> 0.17657046E+01</totfact>
</mgrwt>
</event>
<event>
12    1  0.1397649E-007  0.1735985E+04  0.7818608E-02  0.8741103E-01
          1   -1    0    0  501    0  0.00000000000E+00  0.00000000000E+00  0.59138774648E+03  0.59138774648E+03  0.00000000000E+00 0. -1.
         -1   -1    0    0    0  501 -0.00000000000E+00 -0.00000000000E+00 -0.12739707452E+04  0.12739707452E+04  0.00000000000E+00 0.  1.
         23    2    1    2    0    0 -0.24007177527E+03  0.57412440040E+03 -0.12902609044E+03  0.64219048293E+03  0.92236651796E+02 0.  0.
        254    2    1    2    0    0  0.24007177527E+03 -0.57412440040E+03 -0.55355690827E+03  0.12231680087E+04  0.89580212239E+03 0.  0.
        -24    2    4    4    0    0 -0.22440200879E+03 -0.33618067273E+03 -0.56004576565E+03  0.69526993130E+03  0.79845547682E+02 0.  0.
         24    2    4    4    0    0  0.46447378407E+03 -0.23794372767E+03  0.64888573831E+01  0.52789807743E+03  0.79253777591E+02 0.  0.
         13    1    3    3    0    0 -0.46678481656E+02  0.15714787501E+03  0.30063722079E+01  0.16396150019E+03  0.00000000000E+00 0. -1.
        -13    1    3    3    0    0 -0.19339329362E+03  0.41697652539E+03 -0.13203246265E+03  0.47822898274E+03  0.00000000000E+00 0.  1.
          4    1    6    6  502    0  0.38545288882E+03 -0.22884008615E+03  0.29263633539E+01  0.44827477972E+03  0.00000000000E+00 0. -1.
          3    1    5    5  503    0 -0.10860690241E+03 -0.17541581278E+03 -0.21919058630E+03  0.30101607888E+03  0.00000000000E+00 0. -1.
         -4    1    5    5    0  503 -0.11579510639E+03 -0.16076485995E+03 -0.34085517935E+03  0.39425385242E+03  0.00000000000E+00 0.  1.
         -3    1    6    6    0  502  0.79020895249E+02 -0.91036415132E+01  0.35624940292E+01  0.79623297712E+02  0.00000000000E+00 0.  1.
<mgrwt>
<rscale>  0 0.17359847E+04</rscale>
<asrwt>0</asrwt>
<pdfrwt beam="1">  1        1 0.90982732E-01 0.17359847E+04</pdfrwt>
<pdfrwt beam="2">  1       -1 0.19599550E+00 0.17359847E+04</pdfrwt>
<totfact> 0.53221812E+00</totfact>
</mgrwt>
</event>
<event>
12    1  0.1397649E-007  0.2235906E+04  0.7818608E-02  0.8503630E-01
          1   -1    0    0  501    0  0.00000000000E+00  0.00000000000E+00  0.20670439501E+04  0.20670439501E+04  0.00000000000E+00 0. -1.
         -1   -1    0    0    0  501 -0.00000000000E+00 -0.00000000000E+00 -0.60464087591E+03  0.60464087591E+03  0.00000000000E+00 0.  1.
         23    2    1    2    0    0  0.92346281546E+03 -0.94794956732E+02  0.51563484767E+03  0.10658838777E+04  0.91975482112E+02 0.  0.
        254    2    1    2    0    0 -0.92346281546E+03  0.94794956732E+02  0.94676822655E+03  0.16058009483E+04  0.90579079010E+03 0.  0.
        -24    2    4    4    0    0 -0.78000333952E+02  0.32201376146E+03  0.37417806789E+02  0.34088651564E+03  0.70898586814E+02 0.  0.
         24    2    4    4    0    0 -0.84546248151E+03 -0.22721880473E+03  0.90935041976E+03  0.12649144327E+04  0.81579061056E+02 0.  0.
         11    1    3    3    0    0  0.23385713895E+03  0.14499261969E+02  0.14216613102E+03  0.27406312931E+03  0.00000000000E+00 0. -1.
        -11    1    3    3    0    0  0.68960567651E+03 -0.10929421870E+03  0.37346871665E+03  0.79182074842E+03  0.00000000000E+00 0.  1.
          2    1    6    6  502    0 -0.49190118270E+03 -0.95009368529E+02  0.49193287243E+03  0.70213353761E+03  0.00000000000E+00 0. -1.
          3    1    5    5  503    0 -0.54488668577E+02  0.29816299252E+03  0.21661203146E+02  0.30387397524E+03  0.00000000000E+00 0. -1.
         -4    1    5    5    0  503 -0.23511665375E+02  0.23850768943E+02  0.15756603643E+02  0.37012540392E+02  0.00000000000E+00 0.  1.
         -1    1    6    6    0  502 -0.35356129881E+03 -0.13220943620E+03  0.41741754733E+03  0.56278089507E+03  0.00000000000E+00 0.  1.
<mgrwt>
<rscale>  0 0.22359063E+04</rscale>
<asrwt>0</asrwt>
<pdfrwt beam="1">  1        1 0.31800676E+00 0.22359063E+04</pdfrwt>
<pdfrwt beam="2">  1       -1 0.93021674E-01 0.22359063E+04</pdfrwt>
<totfact> 0.27370788E+00</totfact>
</mgrwt>
</event>
<event>
12    1  0.1397649E-007  0.1682944E+04  0.7818608E-02  0.8771152E-01
          2   -1    0    0  501    0  0.00000000000E+00  0.00000000000E+00  0.99622291529E+03  0.99622291529E+03  0.00000000000E+00 0.  1.
         -2   -1    0    0    0  501 -0.00000000000E+00 -0.00000000000E+00 -0.71075950582E+03  0.71075950582E+03  0.00000000000E+00 0. -1.
         23    2    1    2    0    0  0.57086536292E+03 -0.17117072317E+03  0.10172103462E+03  0.61128762390E+03  0.90214805869E+02 0.  0.
        254    2    1    2    0    0 -0.57086536292E+03  0.17117072317E+03  0.18374237485E+03  0.10956947972E+04  0.90088797820E+03 0.  0.
        -24    2    4    4    0    0 -0.13512985772E+03  0.49477028569E+03  0.17453006932E+03  0.54705806843E+03  0.75855593622E+02 0.  0.
         24    2    4    4    0    0 -0.43573550520E+03 -0.32359956252E+03  0.92123055314E+01  0.54863672878E+03  0.79594511425E+02 0.  0.
         11    1    3    3    0    0  0.46032847149E+03 -0.17380317037E+03  0.88319661572E+02  0.49991019825E+03  0.00000000000E+00 0.  1.
        -11    1    3    3    0    0  0.11053689142E+03  0.26324471965E+01  0.13401373050E+02  0.11137742565E+03  0.00000000000E+00 0. -1.
          4    1    6    6  502    0 -0.18149303499E+03 -0.87051391719E+02  0.41812858627E+01  0.20133342917E+03  0.00000000000E+00 0. -1.
          1    1    5    5  503    0 -0.11355159833E+03  0.47661891498E+03  0.16060632086E+03  0.51561026551E+03  0.00000000000E+00 0. -1.
         -2    1    5    5    0  503 -0.21578259388E+02  0.18151370707E+02  0.13923748463E+02  0.31447802913E+02  0.00000000000E+00 0.  1.
         -3    1    6    6    0  502 -0.25424247021E+03 -0.23654817080E+03  0.50310196687E+01  0.34730329962E+03  0.00000000000E+00 0.  1.
<mgrwt>
<rscale>  0 0.16829437E+04</rscale>
<asrwt>0</asrwt>
<pdfrwt beam="1">  1        2 0.15326506E+00 0.16829437E+04</pdfrwt>
<pdfrwt beam="2">  1       -2 0.10934762E+00 0.16829437E+04</pdfrwt>
<totfact> 0.16089396E+01</totfact>
</mgrwt>
</event>
<event>
12    1  0.1397649E-007  0.2145021E+04  0.7818608E-02  0.8541667E-01
         -2   -1    0    0    0  501 -0.00000000000E+00  0.00000000000E+00  0.65365841157E+03  0.65365841157E+03  0.00000000000E+00 0.  1.
          2   -1    0    0  501    0  0.00000000000E+00 -0.00000000000E+00 -0.17597549873E+04  0.17597549873E+04  0.00000000000E+00 0. -1.
         23    2    1    2    0    0 -0.25489827479E+03 -0.86521679017E+03 -0.81415218366E+03  0.12182919186E+04  0.88420565212E+02 0.  0.
        254    2    1    2    0    0  0.25489827479E+03  0.86521679017E+03 -0.29194439206E+03  0.11951214802E+04  0.72767478997E+03 0.  0.
        -24    2    4    4    0    0  0.26956348464E+03  0.52710280018E+03 -0.50949372778E+03  0.78533806836E+03  0.81671223547E+02 0.  0.
         24    2    4    4    0    0 -0.14665209846E+02  0.33811398999E+03  0.21754933572E+03  0.40978341187E+03  0.77836961435E+02 0.  0.
         11    1    3    3    0    0 -0.11488160028E+03 -0.35186466898E+03 -0.27800193811E+03  0.46291641249E+03  0.00000000000E+00 0. -1.
        -11    1    3    3    0    0 -0.14001667451E+03 -0.51335212119E+03 -0.53615024554E+03  0.75537550614E+03  0.00000000000E+00 0.  1.
          2    1    6    6  502    0 -0.10947283510E+02  0.22273545945E+03  0.18525087335E+03  0.28991173483E+03  0.00000000000E+00 0. -1.
          3    1    5    5  503    0  0.15572727227E+03  0.38296525539E+03 -0.36817749522E+03  0.55359555467E+03  0.00000000000E+00 0. -1.
         -4    1    5    5    0  503  0.11383621237E+03  0.14413754479E+03 -0.14131623256E+03  0.23174251369E+03  0.00000000000E+00 0.  1.
         -1    1    6    6    0  502 -0.37179263359E+01  0.11537853054E+03  0.32298462365E+02  0.11987167704E+03  0.00000000000E+00 0.  1.
<mgrwt>
<rscale>  0 0.21450209E+04</rscale>
<asrwt>0</asrwt>
<pdfrwt beam="1">  1        2 0.27073154E+00 0.21450209E+04</pdfrwt>
<pdfrwt beam="2">  1       -2 0.10056283E+00 0.21450209E+04</pdfrwt>
<totfact> 0.67986837E+00</totfact>
</mgrwt>
</event>
<event>
12    1  0.1397649E-007  0.2452437E+04  0.7818608E-02  0.8420129E-01
         -2   -1    0    0    0  501 -0.00000000000E+00  0.00000000000E+00  0.13390093140E+04  0.13390093140E+04  0.00000000000E+00 0.  1.
          2   -1    0    0  501    0  0.00000000000E+00 -0.00000000000E+00 -0.11229286031E+04  0.11229286031E+04  0.00000000000E+00 0. -1.
         23    2    1    2    0    0 -0.18455815321E+03  0.75426223376E+03 -0.62385768416E+03  0.10003103693E+04  0.91919506325E+02 0.  0.
        254    2    1    2    0    0  0.18455815321E+03 -0.75426223376E+03  0.83993839507E+03  0.14616275478E+04  0.90988205378E+03 0.  0.
        -24    2    4    4    0    0  0.88122733738E+02 -0.83961773525E+03  0.95042253243E+03  0.12737595380E+04  0.80229751808E+02 0.  0.
         24    2    4    4    0    0  0.96435419470E+02  0.85355501492E+02 -0.11048413736E+03  0.18786800976E+03  0.80636795069E+02 0.  0.
         13    1    3    3    0    0 -0.18708051781E+03  0.75429892987E+03 -0.61486840924E+03  0.99097384246E+03  0.00000000000E+00 0. -1.
        -13    1    3    3    0    0  0.25223646054E+01 -0.36696116252E-01 -0.89892749153E+01  0.93365268333E+01  0.00000000000E+00 0.  1.
          2    1    6    6  502    0  0.66487405628E+02  0.59920677674E+01 -0.55135064931E+02  0.86581495531E+02  0.00000000000E+00 0. -1.
          3    1    5    5  503    0  0.42752460497E+02 -0.15397942314E+03  0.20538319085E+03  0.26023007266E+03  0.00000000000E+00 0. -1.
         -4    1    5    5    0  503  0.45370273241E+02 -0.68563831211E+03  0.74503934158E+03  0.10135294654E+04  0.00000000000E+00 0.  1.
         -1    1    6    6    0  502  0.29948013841E+02  0.79363433725E+02 -0.55349072425E+02  0.10128651423E+03  0.00000000000E+00 0.  1.
<mgrwt>
<rscale>  0 0.24524370E+04</rscale>
<asrwt>0</asrwt>
<pdfrwt beam="1">  1        2 0.17275825E+00 0.24524370E+04</pdfrwt>
<pdfrwt beam="2">  1       -2 0.20600143E+00 0.24524370E+04</pdfrwt>
<totfact> 0.22945696E+00</totfact>
</mgrwt>
</event>
<event>
12    1  0.1397649E-007  0.2054863E+04  0.7818608E-02  0.8581392E-01
          1   -1    0    0  501    0  0.00000000000E+00  0.00000000000E+00  0.19416616729E+04  0.19416616729E+04  0.00000000000E+00 0. -1.
         -1   -1    0    0    0  501 -0.00000000000E+00 -0.00000000000E+00 -0.54366587255E+03  0.54366587255E+03  0.00000000000E+00 0.  1.
         23    2    1    2    0    0 -0.37609465263E+02 -0.16415915196E+03  0.15236153972E+04  0.15356512121E+04  0.91967753682E+02 0.  0.
        254    2    1    2    0    0  0.37609465263E+02  0.16415915196E+03 -0.12561959687E+03  0.94967633330E+03  0.92614370152E+03 0.  0.
        -24    2    4    4    0    0 -0.29921533763E+03 -0.11603202663E+03  0.21083984874E+03  0.39155814672E+03  0.76623044619E+02 0.  0.
         24    2    4    4    0    0  0.33682480289E+03  0.28019117858E+03 -0.33645944560E+03  0.55811818658E+03  0.79579565573E+02 0.  0.
         13    1    3    3    0    0 -0.67674015436E+02 -0.10047368856E+03  0.91987141333E+03  0.92781364051E+03  0.00000000000E+00 0. -1.
        -13    1    3    3    0    0  0.30064550173E+02 -0.63685463399E+02  0.60374398384E+03  0.60783757160E+03  0.00000000000E+00 0.  1.
          4    1    6    6  502    0  0.24815870498E+03  0.18194391975E+03 -0.27295984809E+03  0.41133126730E+03  0.00000000000E+00 0. -1.
          1    1    5    5  503    0 -0.12430614507E+03 -0.51797196905E+02  0.13408845494E+03  0.19003863044E+03  0.00000000000E+00 0. -1.
         -2    1    5    5    0  503 -0.17490919256E+03 -0.64234829723E+02  0.76751393794E+02  0.20151951628E+03  0.00000000000E+00 0.  1.
         -3    1    6    6    0  502  0.88666097917E+02  0.98247258831E+02 -0.63499597519E+02  0.14678691928E+03  0.00000000000E+00 0.  1.
<mgrwt>
<rscale>  0 0.20548627E+04</rscale>
<asrwt>0</asrwt>
<pdfrwt beam="1">  1        1 0.29871718E+00 0.20548627E+04</pdfrwt>
<pdfrwt beam="2">  1       -1 0.83640905E-01 0.20548627E+04</pdfrwt>
<totfact> 0.42726039E+00</totfact>
</mgrwt>
</event>
<event>
12    1  0.1397649E-007  0.4513412E+04  0.7818608E-02  0.7908293E-01
         -1   -1    0    0    0  501 -0.00000000000E+00  0.00000000000E+00  0.17408891821E+04  0.17408891821E+04  0.00000000000E+00 0.  1.
          1   -1    0    0  501    0  0.00000000000E+00 -0.00000000000E+00 -0.29253569800E+04  0.29253569800E+04  0.00000000000E+00 0. -1.
         23    2    1    2    0    0 -0.97892578001E+03 -0.17964342456E+03  0.14201052221E+04  0.17364996500E+04  0.90359005711E+02 0.  0.
        254    2    1    2    0    0  0.97892578001E+03  0.17964342456E+03 -0.26045730200E+04  0.29297465120E+04  0.89947015809E+03 0.  0.
        -24    2    4    4    0    0 -0.11682038301E+03  0.18857133037E+03 -0.58364271956E+03  0.62947000426E+03  0.79921922178E+02 0.  0.
         24    2    4    4    0    0  0.10957461630E+04 -0.89279058096E+01 -0.20209303005E+04  0.23002765078E+04  0.79833398660E+02 0.  0.
         11    1    3    3    0    0 -0.17242553450E+03 -0.85809377447E+01  0.20352416721E+03  0.26688252861E+03  0.00000000000E+00 0. -1.
        -11    1    3    3    0    0 -0.80650024552E+03 -0.17106248682E+03  0.12165810549E+04  0.14696171214E+04  0.00000000000E+00 0.  1.
          4    1    6    6  502    0  0.71905803113E+03 -0.45887866685E+01 -0.12451362718E+04  0.14378559888E+04  0.00000000000E+00 0. -1.
          3    1    5    5  503    0 -0.38103481418E+02  0.39762472472E+02 -0.70761377762E+02  0.89666616397E+02  0.00000000000E+00 0. -1.
         -4    1    5    5    0  503 -0.78716901589E+02  0.14880885790E+03 -0.51288134180E+03  0.53980338786E+03  0.00000000000E+00 0.  1.
         -3    1    6    6    0  502  0.37668813189E+03 -0.43391191410E+01 -0.77579402863E+03  0.86242051896E+03  0.00000000000E+00 0.  1.
<mgrwt>
<rscale>  0 0.45134122E+04</rscale>
<asrwt>0</asrwt>
<pdfrwt beam="1">  1        1 0.45005492E+00 0.45134122E+04</pdfrwt>
<pdfrwt beam="2">  1       -1 0.26782911E+00 0.45134122E+04</pdfrwt>
<totfact> 0.27129653E-02</totfact>
</mgrwt>
</event>
<event>
12    1  0.1397649E-007  0.3814926E+04  0.7818608E-02  0.8042959E-01
          2   -1    0    0  501    0  0.00000000000E+00  0.00000000000E+00  0.18578149688E+04  0.18578149688E+04  0.00000000000E+00 0. -1.
         -2   -1    0    0    0  501 -0.00000000000E+00 -0.00000000000E+00 -0.19584380000E+04  0.19584380000E+04  0.00000000000E+00 0.  1.
         23    2    1    2    0    0  0.52718519052E+03 -0.16306433961E+04  0.50347446810E+03  0.17885638569E+04  0.92477131618E+02 0.  0.
        254    2    1    2    0    0 -0.52718519052E+03  0.16306433961E+04 -0.60409749931E+03  0.20276891119E+04  0.89981511183E+03 0.  0.
        -24    2    4    4    0    0 -0.32766594985E+03  0.28961857055E+03 -0.49468746646E+03  0.66509886297E+03  0.79980728665E+02 0.  0.
         24    2    4    4    0    0 -0.19951924067E+03  0.13410248256E+04 -0.10941003285E+03  0.13625902489E+04  0.80784410762E+02 0.  0.
         13    1    3    3    0    0  0.44829086528E+02 -0.88460127726E+02  0.45138368080E+02  0.10896014624E+03  0.00000000000E+00 0. -1.
        -13    1    3    3    0    0  0.48235610400E+03 -0.15421832684E+04  0.45833610002E+03  0.16796037107E+04  0.00000000000E+00 0.  1.
          2    1    6    6  502    0 -0.75228252009E+02  0.77470060969E+03 -0.57332472629E+02  0.78045328942E+03  0.00000000000E+00 0. -1.
          3    1    5    5  503    0 -0.31995735684E+03  0.25529075445E+03 -0.45846292694E+03  0.61460095581E+03  0.00000000000E+00 0. -1.
         -4    1    5    5    0  503 -0.77085930064E+01  0.34327816099E+02 -0.36224539517E+02  0.50497907160E+02  0.00000000000E+00 0.  1.
         -3    1    6    6    0  502 -0.12429098867E+03  0.56632421587E+03 -0.52077560219E+02  0.58213695950E+03  0.00000000000E+00 0.  1.
<mgrwt>
<rscale>  0 0.38149262E+04</rscale>
<asrwt>0</asrwt>
<pdfrwt beam="1">  1        2 0.28581769E+00 0.38149262E+04</pdfrwt>
<pdfrwt beam="2">  1       -2 0.30129815E+00 0.38149262E+04</pdfrwt>
<totfact> 0.20028341E-01</totfact>
</mgrwt>
</event>
<event>
12    1  0.1397649E-007  0.1673616E+04  0.7818608E-02  0.8776557E-01
         -1   -1    0    0    0  501 -0.00000000000E+00  0.00000000000E+00  0.48532863970E+03  0.48532863970E+03  0.00000000000E+00 0.  1.
          1   -1    0    0  501    0  0.00000000000E+00 -0.00000000000E+00 -0.14428320142E+04  0.14428320142E+04  0.00000000000E+00 0. -1.
         23    2    1    2    0    0 -0.56689260564E+03  0.66686095626E+02 -0.50242688162E+03  0.76595136647E+03  0.91839331103E+02 0.  0.
        254    2    1    2    0    0  0.56689260564E+03 -0.66686095626E+02 -0.45507649290E+03  0.11622092875E+04  0.90433486707E+03 0.  0.
        -24    2    4    4    0    0  0.43206586109E+03  0.58247338272E+02 -0.71081282121E+03  0.83790890677E+03  0.82236296805E+02 0.  0.
         24    2    4    4    0    0  0.13482674455E+03 -0.12493343390E+03  0.25573632831E+03  0.32430038069E+03  0.77350199415E+02 0.  0.
         13    1    3    3    0    0 -0.55840730555E+03  0.77351982870E+02 -0.49601902725E+03  0.75089075340E+03  0.00000000000E+00 0. -1.
        -13    1    3    3    0    0 -0.84853000879E+01 -0.10665887245E+02 -0.64078543711E+01  0.15060613066E+02  0.00000000000E+00 0.  1.
          2    1    6    6  502    0 -0.33504672793E+01 -0.27945729823E+02  0.56777638250E+02  0.63371047424E+02  0.00000000000E+00 0. -1.
          1    1    5    5  503    0  0.29741364813E+03  0.69488412061E+02 -0.44508523261E+03  0.53980031659E+03  0.00000000000E+00 0. -1.
         -2    1    5    5    0  503  0.13465221296E+03 -0.11241073789E+02 -0.26572758860E+03  0.29810859018E+03  0.00000000000E+00 0.  1.
         -1    1    6    6    0  502  0.13817721183E+03 -0.96987704074E+02  0.19895869006E+03  0.26092933327E+03  0.00000000000E+00 0.  1.
<mgrwt>
<rscale>  0 0.16736161E+04</rscale>
<asrwt>0</asrwt>
<pdfrwt beam="1">  1        1 0.22197416E+00 0.16736161E+04</pdfrwt>
<pdfrwt beam="2">  1       -1 0.74665944E-01 0.16736161E+04</pdfrwt>
<totfact> 0.12339747E+01</totfact>
</mgrwt>
</event>
<event>
12    1  0.1397649E-007  0.2819908E+04  0.7818608E-02  0.8297114E-01
          2   -1    0    0  501    0  0.00000000000E+00  0.00000000000E+00  0.20314839474E+04  0.20314839474E+04  0.00000000000E+00 0. -1.
         -2   -1    0    0    0  501 -0.00000000000E+00 -0.00000000000E+00 -0.97858046001E+03  0.97858046001E+03  0.00000000000E+00 0.  1.
         23    2    1    2    0    0 -0.48538894115E+03 -0.10325399002E+04 -0.10322380441E+03  0.11490495748E+04  0.88987088209E+02 0.  0.
        254    2    1    2    0    0  0.48538894115E+03  0.10325399002E+04  0.11561272918E+04  0.18610148326E+04  0.90829776095E+03 0.  0.
        -24    2    4    4    0    0  0.46686807232E+03  0.67003237747E+02  0.49288536765E+03  0.68687605113E+03  0.80046818495E+02 0.  0.
         24    2    4    4    0    0  0.18520868836E+02  0.96553666247E+03  0.66324192416E+03  0.11741387815E+04  0.78153432625E+02 0.  0.
         11    1    3    3    0    0 -0.33565679203E+03 -0.65888720903E+03 -0.10238088178E+03  0.74651167520E+03  0.00000000000E+00 0.  1.
        -11    1    3    3    0    0 -0.14973214912E+03 -0.37365269118E+03 -0.84292263657E+00  0.40253789962E+03  0.00000000000E+00 0. -1.
          4    1    6    6  502    0  0.43060322802E+02  0.80522357874E+03  0.54082324413E+03  0.97094231783E+03  0.00000000000E+00 0. -1.
          1    1    5    5  503    0  0.45688762579E+03  0.58263202906E+02  0.49142806962E+03  0.67352984420E+03  0.00000000000E+00 0. -1.
         -2    1    5    5    0  503  0.99804465316E+01  0.87400348414E+01  0.14572980314E+01  0.13346206935E+02  0.00000000000E+00 0.  1.
         -3    1    6    6    0  502 -0.24539453966E+02  0.16031308373E+03  0.12241868003E+03  0.20319646364E+03  0.00000000000E+00 0.  1.
<mgrwt>
<rscale>  0 0.28199082E+04</rscale>
<asrwt>0</asrwt>
<pdfrwt beam="1">  1        2 0.31253599E+00 0.28199082E+04</pdfrwt>
<pdfrwt beam="2">  1       -2 0.15055084E+00 0.28199082E+04</pdfrwt>
<totfact> 0.16541541E+00</totfact>
</mgrwt>
</event>
<event>
12    1  0.1714812E-007  0.2447489E+04  0.7818608E-02  0.8421935E-01
         -1   -1    0    0    0  501 -0.00000000000E+00  0.00000000000E+00  0.60047118976E+03  0.60047118976E+03  0.00000000000E+00 0.  1.
          1   -1    0    0  501    0  0.00000000000E+00 -0.00000000000E+00 -0.24939594337E+04  0.24939594337E+04  0.00000000000E+00 0. -1.
         23    2    1    2    0    0 -0.49777464529E+03  0.61354410997E+03  0.64669581572E+02  0.79786816013E+03  0.90528856170E+02 0.  0.
        254    2    1    2    0    0  0.49777464529E+03 -0.61354410997E+03 -0.19581578255E+04  0.22965624634E+04  0.90310636473E+03 0.  0.
        -24    2    4    4    0    0  0.91418568171E+02 -0.65963292311E+03 -0.16399055437E+04  0.17718431374E+04  0.81639227646E+02 0.  0.
         24    2    4    4    0    0  0.40635607712E+03  0.46088813134E+02 -0.31825228184E+03  0.52471932595E+03  0.82440378566E+02 0.  0.
         11    1    3    3    0    0 -0.40255696343E+02  0.66379097816E+02  0.31732090941E+02  0.83866747346E+02  0.00000000000E+00 0. -1.
        -11    1    3    3    0    0 -0.45751894895E+03  0.54716501216E+03  0.32937490630E+02  0.71400141279E+03  0.00000000000E+00 0.  1.
          2    1    6    6  502    0  0.13068519395E+03 -0.18938245940E+02 -0.78404685074E+02  0.15357269197E+03  0.00000000000E+00 0. -1.
          1    1    5    5  503    0  0.11599405947E+02 -0.26379815896E+02 -0.39807763275E+02  0.49143655969E+02  0.00000000000E+00 0. -1.
         -2    1    5    5    0  503  0.79819162224E+02 -0.63325310721E+03 -0.16000977804E+04  0.17226994814E+04  0.00000000000E+00 0.  1.
         -1    1    6    6    0  502  0.27567088317E+03  0.65027059074E+02 -0.23984759676E+03  0.37114663398E+03  0.00000000000E+00 0.  1.
<mgrwt>
<rscale>  0 0.24474892E+04</rscale>
<asrwt>0</asrwt>
<pdfrwt beam="1">  1        1 0.38368605E+00 0.24474892E+04</pdfrwt>
<pdfrwt beam="2">  1       -1 0.92380186E-01 0.24474892E+04</pdfrwt>
<totfact> 0.13912316E+00</totfact>
</mgrwt>
</event>
<event>
12    1  0.1397649E-007  0.1604258E+04  0.7818608E-02  0.8817936E-01
         -2   -1    0    0    0  501 -0.00000000000E+00  0.00000000000E+00  0.41913721451E+03  0.41913721451E+03  0.00000000000E+00 0.  1.
          2   -1    0    0  501    0  0.00000000000E+00 -0.00000000000E+00 -0.15350845807E+04  0.15350845807E+04  0.00000000000E+00 0. -1.
         23    2    1    2    0    0  0.43777767709E+03  0.23265157717E+02  0.12983176633E+02  0.44793058903E+03  0.91009272030E+02 0.  0.
        254    2    1    2    0    0 -0.43777767709E+03 -0.23265157717E+02 -0.11289305428E+04  0.15062912062E+04  0.89567765695E+03 0.  0.
        -24    2    4    4    0    0  0.10175695991E+03 -0.71060489735E+02  0.88233410012E+02  0.17164097221E+03  0.79192276178E+02 0.  0.
         24    2    4    4    0    0 -0.53953463700E+03  0.47795332018E+02 -0.12171639528E+04  0.13346502340E+04  0.80132020240E+02 0.  0.
         13    1    3    3    0    0  0.12220850562E+03  0.24903540939E+02  0.40572442147E+02  0.13115345309E+03  0.00000000000E+00 0. -1.
        -13    1    3    3    0    0  0.31556917147E+03 -0.16383832219E+01 -0.27589265515E+02  0.31677713594E+03  0.00000000000E+00 0.  1.
          2    1    6    6  502    0 -0.12605870456E+03  0.45486911233E+02 -0.29054117522E+03  0.31995942022E+03  0.00000000000E+00 0. -1.
          3    1    5    5  503    0  0.62830910100E+02 -0.59934530210E+02  0.15222380185E+02  0.88156633522E+02  0.00000000000E+00 0. -1.
         -2    1    5    5    0  503  0.38926049810E+02 -0.11125959525E+02  0.73011029827E+02  0.83484338684E+02  0.00000000000E+00 0.  1.
         -1    1    6    6    0  502 -0.41347593244E+03  0.23084207856E+01 -0.92662277761E+03  0.10146908137E+04  0.00000000000E+00 0.  1.
<mgrwt>
<rscale>  0 0.16042582E+04</rscale>
<asrwt>0</asrwt>
<pdfrwt beam="1">  1        2 0.23616686E+00 0.16042582E+04</pdfrwt>
<pdfrwt beam="2">  1       -2 0.64482648E-01 0.16042582E+04</pdfrwt>
<totfact> 0.25819410E+01</totfact>
</mgrwt>
</event>
<event>
12    1  0.1397649E-007  0.1205355E+04  0.7818608E-02  0.9108182E-01
         -2   -1    0    0    0  501 -0.00000000000E+00  0.00000000000E+00  0.72277795006E+03  0.72277795006E+03  0.00000000000E+00 0.  1.
          2   -1    0    0  501    0  0.00000000000E+00 -0.00000000000E+00 -0.50253393096E+03  0.50253393096E+03  0.00000000000E+00 0. -1.
         23    2    1    2    0    0  0.17769631127E+03  0.72794642067E+02 -0.11703939647E+03  0.24292786695E+03  0.91873223855E+02 0.  0.
        254    2    1    2    0    0 -0.17769631127E+03 -0.72794642067E+02  0.33728341558E+03  0.98238401407E+03  0.90246507396E+03 0.  0.
        -24    2    4    4    0    0 -0.30112453736E+03 -0.36912280519E+03  0.42238865508E+03  0.64078645849E+03  0.72577387240E+02 0.  0.
         24    2    4    4    0    0  0.12342822608E+03  0.29632816312E+03 -0.85105239503E+02  0.34159755558E+03  0.80006755546E+02 0.  0.
         13    1    3    3    0    0  0.10219622771E+03  0.26977673857E+02 -0.13053332980E+02  0.10650001571E+03  0.00000000000E+00 0.  1.
        -13    1    3    3    0    0  0.75500083568E+02  0.45816968210E+02 -0.10398606349E+03  0.13642785124E+03  0.00000000000E+00 0. -1.
          2    1    6    6  502    0  0.12109866049E+03  0.27556566303E+03 -0.98584819874E+02  0.31673377926E+03  0.00000000000E+00 0. -1.
          3    1    5    5  503    0 -0.16628899163E+03 -0.19953491534E+03  0.27779049243E+03  0.38030746622E+03  0.00000000000E+00 0. -1.
         -4    1    5    5    0  503 -0.13483554573E+03 -0.16958788984E+03  0.14459816265E+03  0.26047899228E+03  0.00000000000E+00 0.  1.
         -1    1    6    6    0  502  0.23295655914E+01  0.20762500091E+02  0.13479580370E+02  0.24863776319E+02  0.00000000000E+00 0.  1.
<mgrwt>
<rscale>  0 0.12053555E+04</rscale>
<asrwt>0</asrwt>
<pdfrwt beam="1">  1        2 0.77312913E-01 0.12053555E+04</pdfrwt>
<pdfrwt beam="2">  1       -2 0.11119661E+00 0.12053555E+04</pdfrwt>
<totfact> 0.38644446E+01</totfact>
</mgrwt>
</event>
<event>
12    1  0.1397649E-007  0.2168533E+04  0.7818608E-02  0.8531641E-01
         -1   -1    0    0    0  501 -0.00000000000E+00  0.00000000000E+00  0.52976417546E+03  0.52976417546E+03  0.00000000000E+00 0.  1.
          1   -1    0    0  501    0  0.00000000000E+00 -0.00000000000E+00 -0.22191649567E+04  0.22191649567E+04  0.00000000000E+00 0. -1.
         23    2    1    2    0    0  0.30761210800E+03 -0.80994879948E+03 -0.98588911517E+03  0.13156863899E+04  0.91711844551E+02 0.  0.
        254    2    1    2    0    0 -0.30761210800E+03  0.80994879948E+03 -0.70351166603E+03  0.14332427422E+04  0.89922957417E+03 0.  0.
        -24    2    4    4    0    0 -0.17214418898E+03  0.82610149969E+03 -0.15418674181E+03  0.86162929759E+03  0.80957924451E+02 0.  0.
         24    2    4    4    0    0 -0.13546791903E+03 -0.16152700203E+02 -0.54932492422E+03  0.57161344461E+03  0.79822245536E+02 0.  0.
         11    1    3    3    0    0  0.10407763986E+01 -0.56585842309E+02 -0.47680288950E+02  0.74003045341E+02  0.00000000000E+00 0. -1.
        -11    1    3    3    0    0  0.30657133161E+03 -0.75336295718E+03 -0.93820882622E+03  0.12416833446E+04  0.00000000000E+00 0.  1.
          4    1    6    6  502    0 -0.55479148722E+02 -0.14169132733E+02 -0.10011405572E+03  0.11533223495E+03  0.00000000000E+00 0. -1.
          3    1    5    5  503    0 -0.14910359931E+02  0.86135583477E+02 -0.41600975936E+02  0.96810633574E+02  0.00000000000E+00 0. -1.
         -4    1    5    5    0  503 -0.15723382904E+03  0.73996591621E+03 -0.11258576587E+03  0.76481866402E+03  0.00000000000E+00 0.  1.
         -3    1    6    6    0  502 -0.79988770307E+02 -0.19835674695E+01 -0.44921086849E+03  0.45628120966E+03  0.00000000000E+00 0.  1.
<mgrwt>
<rscale>  0 0.21685332E+04</rscale>
<asrwt>0</asrwt>
<pdfrwt beam="1">  1        1 0.34140999E+00 0.21685332E+04</pdfrwt>
<pdfrwt beam="2">  1       -1 0.81502182E-01 0.21685332E+04</pdfrwt>
<totfact> 0.28966872E+00</totfact>
</mgrwt>
</event>
<event>
12    1  0.1397649E-007  0.2961795E+04  0.7818608E-02  0.8254725E-01
          2   -1    0    0  501    0  0.00000000000E+00  0.00000000000E+00  0.17801839765E+04  0.17801839765E+04  0.00000000000E+00 0. -1.
         -2   -1    0    0    0  501 -0.00000000000E+00 -0.00000000000E+00 -0.12319277265E+04  0.12319277265E+04  0.00000000000E+00 0.  1.
         23    2    1    2    0    0  0.86927821809E+02  0.10233572074E+04  0.11286658863E+04  0.15287705638E+04  0.91849516243E+02 0.  0.
        254    2    1    2    0    0 -0.86927821809E+02 -0.10233572074E+04 -0.58040963637E+03  0.14833411391E+04  0.89922698399E+03 0.  0.
        -24    2    4    4    0    0  0.37398073666E+03 -0.33277937665E+03 -0.85031290298E+02  0.51323533608E+03  0.74675865967E+02 0.  0.
         24    2    4    4    0    0 -0.46090855847E+03 -0.69057783079E+03 -0.49537834607E+03  0.97010580302E+03  0.79819318706E+02 0.  0.
         13    1    3    3    0    0  0.85874149506E+02  0.10240067508E+04  0.11198874562E+04  0.15199052963E+04  0.00000000000E+00 0. -1.
        -13    1    3    3    0    0  0.10536723038E+01 -0.64954337956E+00  0.87784301750E+01  0.88652675235E+01  0.00000000000E+00 0.  1.
          2    1    6    6  502    0 -0.17052073743E+03 -0.27476289572E+03 -0.23687244921E+03  0.40084975733E+03  0.00000000000E+00 0. -1.
          3    1    5    5  503    0  0.24808474254E+03 -0.20770063034E+03 -0.89534900575E+02  0.33571131906E+03  0.00000000000E+00 0. -1.
         -4    1    5    5    0  503  0.12589599412E+03 -0.12507874631E+03  0.45036102770E+01  0.17752401702E+03  0.00000000000E+00 0.  1.
         -1    1    6    6    0  502 -0.29038782104E+03 -0.41581493507E+03 -0.25850589686E+03  0.56925604568E+03  0.00000000000E+00 0.  1.
<mgrwt>
<rscale>  0 0.29617954E+04</rscale>
<asrwt>0</asrwt>
<pdfrwt beam="1">  1        2 0.27387446E+00 0.29617954E+04</pdfrwt>
<pdfrwt beam="2">  1       -2 0.18952734E+00 0.29617954E+04</pdfrwt>
<totfact> 0.11867575E+00</totfact>
</mgrwt>
</event>
<event>
12    1  0.1397649E-007  0.1688362E+04  0.7818608E-02  0.8768030E-01
          2   -1    0    0  501    0  0.00000000000E+00  0.00000000000E+00  0.16313008139E+04  0.16313008139E+04  0.00000000000E+00 0. -1.
         -2   -1    0    0    0  501 -0.00000000000E+00 -0.00000000000E+00 -0.43685466549E+03  0.43685466549E+03  0.00000000000E+00 0.  1.
         23    2    1    2    0    0  0.44240491790E+03 -0.33696969129E+03  0.81099668234E+03  0.98734377102E+03  0.88664644435E+02 0.  0.
        254    2    1    2    0    0 -0.44240491790E+03  0.33696969129E+03  0.38344946603E+03  0.10808117083E+04  0.84371190085E+03 0.  0.
        -24    2    4    4    0    0 -0.56348499643E+03  0.24082849384E+03 -0.42736982422E+02  0.62033412808E+03  0.86453896130E+02 0.  0.
         24    2    4    4    0    0  0.12108007853E+03  0.96141197452E+02  0.42618644845E+03  0.46047758025E+03  0.80630005610E+02 0.  0.
         13    1    3    3    0    0  0.11366867507E+03 -0.13478470838E+03  0.22900850137E+03  0.28901968619E+03  0.00000000000E+00 0.  1.
        -13    1    3    3    0    0  0.32873624283E+03 -0.20218498291E+03  0.58198818097E+03  0.69832408483E+03  0.00000000000E+00 0. -1.
          4    1    6    6  502    0 -0.32519131645E+00  0.40920737796E+02  0.94480308268E+02  0.10296184333E+03  0.00000000000E+00 0. -1.
          3    1    5    5  503    0 -0.74227009568E+02  0.16456337158E+01 -0.34397583289E+01  0.74324888140E+02  0.00000000000E+00 0. -1.
         -4    1    5    5    0  503 -0.48925798686E+03  0.23918286013E+03 -0.39297224093E+02  0.54600923994E+03  0.00000000000E+00 0.  1.
         -3    1    6    6    0  502  0.12140526985E+03  0.55220459656E+02  0.33170614018E+03  0.35751573692E+03  0.00000000000E+00 0.  1.
<mgrwt>
<rscale>  0 0.16883618E+04</rscale>
<asrwt>0</asrwt>
<pdfrwt beam="1">  1        2 0.25096935E+00 0.16883618E+04</pdfrwt>
<pdfrwt beam="2">  1       -2 0.67208411E-01 0.16883618E+04</pdfrwt>
<totfact> 0.20718710E+01</totfact>
</mgrwt>
</event>
<event>
12    1  0.1397649E-007  0.2001645E+04  0.7818608E-02  0.8605852E-01
         -2   -1    0    0    0  501 -0.00000000000E+00  0.00000000000E+00  0.66219402181E+03  0.66219402181E+03  0.00000000000E+00 0.  1.
          2   -1    0    0  501    0  0.00000000000E+00 -0.00000000000E+00 -0.15126160992E+04  0.15126160992E+04  0.00000000000E+00 0. -1.
         23    2    1    2    0    0 -0.14809214139E+03  0.67438931505E+03 -0.77602970088E+03  0.10428021771E+04  0.92098063829E+02 0.  0.
        254    2    1    2    0    0  0.14809214139E+03 -0.67438931505E+03 -0.74392376499E+02  0.11320079439E+04  0.89396617873E+03 0.  0.
        -24    2    4    4    0    0  0.14216833603E+03 -0.22174721266E+03  0.39087327114E+03  0.47788413229E+03  0.78788753678E+02 0.  0.
         24    2    4    4    0    0  0.59238053659E+01 -0.45264210239E+03 -0.46526564764E+03  0.65412381158E+03  0.80534922128E+02 0.  0.
         13    1    3    3    0    0 -0.10480539472E+03  0.61023190425E+03 -0.69173475455E+03  0.92836637077E+03  0.00000000000E+00 0. -1.
        -13    1    3    3    0    0 -0.43286746668E+02  0.64157410804E+02 -0.84294946325E+02  0.11443580635E+03  0.00000000000E+00 0.  1.
          2    1    6    6  502    0 -0.20151188872E+02 -0.15517352819E+03 -0.11708047835E+03  0.19542961054E+03  0.00000000000E+00 0. -1.
          1    1    5    5  503    0  0.66314514778E+02 -0.53908831401E+02  0.83064092831E+02  0.11917810408E+03  0.00000000000E+00 0. -1.
         -2    1    5    5    0  503  0.75853821249E+02 -0.16783838126E+03  0.30780917831E+03  0.35870602821E+03  0.00000000000E+00 0.  1.
         -1    1    6    6    0  502  0.26074994238E+02 -0.29746857420E+03 -0.34818516929E+03  0.45869420105E+03  0.00000000000E+00 0.  1.
<mgrwt>
<rscale>  0 0.20016447E+04</rscale>
<asrwt>0</asrwt>
<pdfrwt beam="1">  1        2 0.23271017E+00 0.20016447E+04</pdfrwt>
<pdfrwt beam="2">  1       -2 0.10187600E+00 0.20016447E+04</pdfrwt>
<totfact> 0.91676393E+00</totfact>
</mgrwt>
</event>
<event>
12    1  0.1397649E-007  0.1678055E+04  0.7818608E-02  0.8773980E-01
         -3   -1    0    0    0  501 -0.00000000000E+00  0.00000000000E+00  0.53853768284E+03  0.53853768284E+03  0.00000000000E+00 0.  1.
          3   -1    0    0  501    0  0.00000000000E+00 -0.00000000000E+00 -0.13071828149E+04  0.13071828149E+04  0.00000000000E+00 0. -1.
         23    2    1    2    0    0 -0.48031685786E+02 -0.58095579657E+03 -0.40572219131E+03  0.71571220748E+03  0.88412595295E+02 0.  0.
        254    2    1    2    0    0  0.48031685786E+02  0.58095579657E+03 -0.36292294071E+03  0.11300082902E+04  0.89743467431E+03 0.  0.
        -24    2    4    4    0    0  0.32299191309E+03  0.49242238718E+03 -0.52145381453E+03  0.79073940500E+03  0.80939129034E+02 0.  0.
         24    2    4    4    0    0 -0.27496022730E+03  0.88533409387E+02  0.15853087382E+03  0.33926888522E+03  0.80808708347E+02 0.  0.
         11    1    3    3    0    0 -0.27250767946E+02 -0.42885277733E+03 -0.25051363423E+03  0.49740766973E+03  0.00000000000E+00 0.  1.
        -11    1    3    3    0    0 -0.20780917840E+02 -0.15210301924E+03 -0.15520855709E+03  0.21830453775E+03  0.00000000000E+00 0. -1.
          2    1    6    6  502    0 -0.64964053695E+02  0.13579340798E+02  0.77488859716E+02  0.10202573278E+03  0.00000000000E+00 0. -1.
          3    1    5    5  503    0  0.55649828662E+02  0.13112002962E+03 -0.15790026405E+03  0.21265431805E+03  0.00000000000E+00 0. -1.
         -4    1    5    5    0  503  0.26734208443E+03  0.36130235757E+03 -0.36355355048E+03  0.57808508695E+03  0.00000000000E+00 0.  1.
         -3    1    6    6    0  502 -0.20999617361E+03  0.74954068589E+02  0.81042014108E+02  0.23724315244E+03  0.00000000000E+00 0.  1.
<mgrwt>
<rscale>  0 0.16780551E+04</rscale>
<asrwt>0</asrwt>
<pdfrwt beam="1">  1        3 0.20110505E+00 0.16780551E+04</pdfrwt>
<pdfrwt beam="2">  1       -3 0.82851952E-01 0.16780551E+04</pdfrwt>
<totfact> 0.48630384E-01</totfact>
</mgrwt>
</event>
<event>
12    1  0.1397649E-007  0.1882946E+04  0.7818608E-02  0.8663392E-01
         -1   -1    0    0    0  501 -0.00000000000E+00  0.00000000000E+00  0.75242693195E+03  0.75242693195E+03  0.00000000000E+00 0.  1.
          1   -1    0    0  501    0  0.00000000000E+00 -0.00000000000E+00 -0.11780165764E+04  0.11780165764E+04  0.00000000000E+00 0. -1.
         23    2    1    2    0    0 -0.54519799993E+03 -0.33027333344E+03  0.18066027901E+03  0.66902616129E+03  0.92932955268E+02 0.  0.
        254    2    1    2    0    0  0.54519799993E+03  0.33027333344E+03 -0.60624992342E+03  0.12614173470E+04  0.90405388103E+03 0.  0.
        -24    2    4    4    0    0  0.72303542310E+03  0.95615358544E+02 -0.61334225056E+03  0.95586992161E+03  0.74673093400E+02 0.  0.
         24    2    4    4    0    0 -0.17783742317E+03  0.23465797490E+03  0.70923271413E+01  0.30554742540E+03  0.81353634248E+02 0.  0.
         13    1    3    3    0    0 -0.14687456727E+03 -0.58275097178E+02  0.76578960017E+02  0.17559174974E+03  0.00000000000E+00 0. -1.
        -13    1    3    3    0    0 -0.39832343266E+03 -0.27199823626E+03  0.10408131899E+03  0.49343441155E+03  0.00000000000E+00 0.  1.
          4    1    6    6  502    0  0.38149136290E+01 -0.11932494736E+01  0.67566475647E+01  0.78504583698E+01  0.00000000000E+00 0. -1.
          1    1    5    5  503    0  0.86389676546E+02  0.23448702006E+01 -0.10407463730E+03  0.13527824940E+03  0.00000000000E+00 0. -1.
         -2    1    5    5    0  503  0.63664574655E+03  0.93270488344E+02 -0.50926761325E+03  0.82059167221E+03  0.00000000000E+00 0.  1.
         -3    1    6    6    0  502 -0.18165233680E+03  0.23585122437E+03  0.33567957664E+00  0.29769696703E+03  0.00000000000E+00 0.  1.
<mgrwt>
<rscale>  0 0.18829460E+04</rscale>
<asrwt>0</asrwt>
<pdfrwt beam="1">  1        1 0.18123332E+00 0.18829460E+04</pdfrwt>
<pdfrwt beam="2">  1       -1 0.11575799E+00 0.18829460E+04</pdfrwt>
<totfact> 0.70216478E+00</totfact>
</mgrwt>
</event>
<event>
12    1  0.1397649E-007  0.1269405E+04  0.7818608E-02  0.9054186E-01
          2   -1    0    0  501    0  0.00000000000E+00  0.00000000000E+00  0.13293758137E+04  0.13293758137E+04  0.00000000000E+00 0. -1.
         -2   -1    0    0    0  501 -0.00000000000E+00 -0.00000000000E+00 -0.30303469678E+03  0.30303469678E+03  0.00000000000E+00 0.  1.
         23    2    1    2    0    0 -0.16858533961E+03 -0.59568619822E+02 -0.50096983745E+02  0.20725694473E+03  0.92066802711E+02 0.  0.
        254    2    1    2    0    0  0.16858533961E+03  0.59568619822E+02  0.10764381006E+04  0.14251535657E+04  0.91671929410E+03 0.  0.
        -24    2    4    4    0    0 -0.69050773363E+01 -0.28767568724E+03  0.22958229971E+02  0.29929344494E+03  0.79022178781E+02 0.  0.
         24    2    4    4    0    0  0.17549041694E+03  0.34724430706E+03  0.10534798707E+04  0.11258601208E+04  0.79785201833E+02 0.  0.
         11    1    3    3    0    0 -0.93472637936E+02 -0.70638573503E+02 -0.58345790486E+02  0.13088610842E+03  0.00000000000E+00 0. -1.
        -11    1    3    3    0    0 -0.75112701670E+02  0.11069953681E+02  0.82488067411E+01  0.76370836314E+02  0.00000000000E+00 0.  1.
          2    1    6    6  502    0  0.10357817160E+03  0.12638064704E+03  0.38780103933E+03  0.42082080709E+03  0.00000000000E+00 0. -1.
          1    1    5    5  503    0 -0.43159709848E+01 -0.23950760823E+01  0.12913059884E+02  0.13824294215E+02  0.00000000000E+00 0. -1.
         -2    1    5    5    0  503 -0.25891063515E+01 -0.28528061116E+03  0.10045170087E+02  0.28546915072E+03  0.00000000000E+00 0.  1.
         -1    1    6    6    0  502  0.71912245341E+02  0.22086366002E+03  0.66567883134E+03  0.70503931368E+03  0.00000000000E+00 0.  1.
<mgrwt>
<rscale>  0 0.12694046E+04</rscale>
<asrwt>0</asrwt>
<pdfrwt beam="1">  1        2 0.20451935E+00 0.12694046E+04</pdfrwt>
<pdfrwt beam="2">  1       -2 0.46620723E-01 0.12694046E+04</pdfrwt>
<totfact> 0.68063428E+01</totfact>
</mgrwt>
</event>
<event>
12    1  0.1397649E-007  0.1563421E+04  0.7818608E-02  0.8843341E-01
         -1   -1    0    0    0  501 -0.00000000000E+00  0.00000000000E+00  0.49584648865E+03  0.49584648865E+03  0.00000000000E+00 0.  1.
          1   -1    0    0  501    0  0.00000000000E+00 -0.00000000000E+00 -0.12323795664E+04  0.12323795664E+04  0.00000000000E+00 0. -1.
         23    2    1    2    0    0  0.39216767065E+03  0.22381484300E+03  0.24210369664E+02  0.46167287567E+03  0.93097455808E+02 0.  0.
        254    2    1    2    0    0 -0.39216767065E+03 -0.22381484300E+03 -0.76074344745E+03  0.12665531794E+04  0.90638722276E+03 0.  0.
        -24    2    4    4    0    0 -0.43793326519E+03  0.24605449552E+03 -0.53143268812E+03  0.73551591429E+03  0.78959474641E+02 0.  0.
         24    2    4    4    0    0  0.45765594540E+02 -0.46986933853E+03 -0.22931075933E+03  0.53103726513E+03  0.80904064664E+02 0.  0.
         13    1    3    3    0    0  0.23273222877E+03  0.11620937855E+03  0.57633406828E+02  0.26644046155E+03  0.00000000000E+00 0.  1.
        -13    1    3    3    0    0  0.15943544188E+03  0.10760546445E+03 -0.33423037164E+02  0.19523241412E+03  0.00000000000E+00 0. -1.
          4    1    6    6  502    0  0.23330809872E+02 -0.30157646411E+02 -0.11513807681E+02  0.39829362205E+02  0.00000000000E+00 0. -1.
          3    1    5    5  503    0 -0.74609723217E+02  0.43690942677E+02 -0.52214676266E+02  0.10100436470E+03  0.00000000000E+00 0. -1.
         -4    1    5    5    0  503 -0.36332354198E+03  0.20236355285E+03 -0.47921801186E+03  0.63451154959E+03  0.00000000000E+00 0.  1.
         -3    1    6    6    0  502  0.22434784668E+02 -0.43971169211E+03 -0.21779695165E+03  0.49120790292E+03  0.00000000000E+00 0.  1.
<mgrwt>
<rscale>  0 0.15634207E+04</rscale>
<asrwt>0</asrwt>
<pdfrwt beam="1">  1        1 0.18959685E+00 0.15634207E+04</pdfrwt>
<pdfrwt beam="2">  1       -1 0.76284076E-01 0.15634207E+04</pdfrwt>
<totfact> 0.16804696E+01</totfact>
</mgrwt>
</event>
<event>
12    1  0.1397649E-007  0.1989260E+04  0.7818608E-02  0.8611658E-01
         -2   -1    0    0    0  501 -0.00000000000E+00  0.00000000000E+00  0.34315455046E+03  0.34315455046E+03  0.00000000000E+00 0.  1.
          2   -1    0    0  501    0  0.00000000000E+00 -0.00000000000E+00 -0.28829249396E+04  0.28829249396E+04  0.00000000000E+00 0. -1.
         23    2    1    2    0    0 -0.74781418166E+03 -0.22753946817E-01 -0.58001001366E+03  0.95093390959E+03  0.92938870497E+02 0.  0.
        254    2    1    2    0    0  0.74781418166E+03  0.22753946817E-01 -0.19597603755E+04  0.22751455805E+04  0.88113598966E+03 0.  0.
        -24    2    4    4    0    0 -0.37495368321E+02  0.29138897073E+03 -0.66080393526E+03  0.72748539122E+03  0.79118383940E+02 0.  0.
         24    2    4    4    0    0  0.78530954998E+03 -0.29136621679E+03 -0.12989564402E+04  0.15476601893E+04  0.79742499667E+02 0.  0.
         13    1    3    3    0    0 -0.18621414649E+03 -0.13134610424E+02 -0.98571884476E+02  0.21110339351E+03  0.00000000000E+00 0.  1.
        -13    1    3    3    0    0 -0.56160003517E+03  0.13111856477E+02 -0.48143812918E+03  0.73983051607E+03  0.00000000000E+00 0. -1.
          2    1    6    6  502    0  0.42299396131E+02 -0.15699290912E+01 -0.46901678339E+02  0.63178089726E+02  0.00000000000E+00 0. -1.
          1    1    5    5  503    0 -0.50372680905E+02  0.11229384627E+03 -0.30630079346E+03  0.33010224320E+03  0.00000000000E+00 0. -1.
         -2    1    5    5    0  503  0.12877312584E+02  0.17909512447E+03 -0.35450314179E+03  0.39738314802E+03  0.00000000000E+00 0.  1.
         -1    1    6    6    0  502  0.74301015385E+03 -0.28979628770E+03 -0.12520547619E+04  0.14844820995E+04  0.00000000000E+00 0.  1.
<mgrwt>
<rscale>  0 0.19892600E+04</rscale>
<asrwt>0</asrwt>
<pdfrwt beam="1">  1        2 0.44352689E+00 0.19892600E+04</pdfrwt>
<pdfrwt beam="2">  1       -2 0.52793011E-01 0.19892600E+04</pdfrwt>
<totfact> 0.64899021E+00</totfact>
</mgrwt>
</event>
<event>
12    1  0.1397649E-007  0.1951434E+04  0.7818608E-02  0.8629670E-01
         -1   -1    0    0    0  501 -0.00000000000E+00  0.00000000000E+00  0.55201141666E+03  0.55201141666E+03  0.00000000000E+00 0.  1.
          1   -1    0    0  501    0  0.00000000000E+00 -0.00000000000E+00 -0.17246440127E+04  0.17246440127E+04  0.00000000000E+00 0. -1.
         23    2    1    2    0    0 -0.63214944026E+03  0.42304141029E+03 -0.35866351629E+03  0.84594473976E+03  0.91684432558E+02 0.  0.
        254    2    1    2    0    0  0.63214944026E+03 -0.42304141029E+03 -0.81396907978E+03  0.14307106896E+04  0.89766946308E+03 0.  0.
        -24    2    4    4    0    0  0.22165025707E+02  0.23596545604E+03 -0.30691798523E+03  0.39597928954E+03  0.80187051807E+02 0.  0.
         24    2    4    4    0    0  0.60998441455E+03 -0.65900686633E+03 -0.50705109455E+03  0.10347314001E+04  0.84836442607E+02 0.  0.
         11    1    3    3    0    0 -0.28644696548E+03  0.21772079542E+03 -0.12495034211E+03  0.38087635367E+03  0.00000000000E+00 0. -1.
        -11    1    3    3    0    0 -0.34570247478E+03  0.20532061487E+03 -0.23371317417E+03  0.46506838609E+03  0.00000000000E+00 0.  1.
          4    1    6    6  502    0  0.46748414872E+03 -0.54813424618E+03 -0.38542324781E+03  0.81703345164E+03  0.00000000000E+00 0. -1.
          1    1    5    5  503    0  0.44602350352E+02  0.72773717226E+02 -0.11062374943E+03  0.13972472048E+03  0.00000000000E+00 0. -1.
         -2    1    5    5    0  503 -0.22437324645E+02  0.16319173881E+03 -0.19629423580E+03  0.25625456906E+03  0.00000000000E+00 0.  1.
         -3    1    6    6    0  502  0.14250026583E+03 -0.11087262015E+03 -0.12162784674E+03  0.21769794845E+03  0.00000000000E+00 0.  1.
<mgrwt>
<rscale>  0 0.19514335E+04</rscale>
<asrwt>0</asrwt>
<pdfrwt beam="1">  1        1 0.26532985E+00 0.19514335E+04</pdfrwt>
<pdfrwt beam="2">  1       -1 0.84924832E-01 0.19514335E+04</pdfrwt>
<totfact> 0.58580342E+00</totfact>
</mgrwt>
</event>
<event>
12    1  0.1397649E-007  0.1435895E+04  0.7818608E-02  0.8928238E-01
         -1   -1    0    0    0  501 -0.00000000000E+00  0.00000000000E+00  0.47785794409E+03  0.47785794409E+03  0.00000000000E+00 0.  1.
          1   -1    0    0  501    0  0.00000000000E+00 -0.00000000000E+00 -0.10786645379E+04  0.10786645379E+04  0.00000000000E+00 0. -1.
         23    2    1    2    0    0  0.39460398015E+03 -0.75628793894E+02 -0.29407020950E+02  0.41352074929E+03  0.93287842702E+02 0.  0.
        254    2    1    2    0    0 -0.39460398015E+03  0.75628793894E+02 -0.57139957283E+03  0.11430017327E+04  0.90472287108E+03 0.  0.
        -24    2    4    4    0    0 -0.65323173721E+03  0.10660413497E+03 -0.55928089213E+03  0.87001925015E+03  0.77860357222E+02 0.  0.
         24    2    4    4    0    0  0.25862775706E+03 -0.30975341075E+02 -0.12118680700E+02  0.27298248253E+03  0.80776140469E+02 0.  0.
         13    1    3    3    0    0  0.33520914316E+03 -0.28210568498E+02 -0.27104983434E+02  0.33748434921E+03  0.00000000000E+00 0.  1.
        -13    1    3    3    0    0  0.59394836992E+02 -0.47418225396E+02 -0.23020375161E+01  0.76036400084E+02  0.00000000000E+00 0. -1.
          2    1    6    6  502    0  0.84354304325E+02 -0.47406084312E+02  0.63143593719E+01  0.96968327934E+02  0.00000000000E+00 0. -1.
          1    1    5    5  503    0 -0.25784878041E+03  0.80778873653E+02 -0.22499272852E+03  0.35161477198E+03  0.00000000000E+00 0. -1.
         -2    1    5    5    0  503 -0.39538295680E+03  0.25825261316E+02 -0.33428816361E+03  0.51840447817E+03  0.00000000000E+00 0.  1.
         -1    1    6    6    0  502  0.17427345274E+03  0.16430743238E+02 -0.18433040071E+02  0.17601415460E+03  0.00000000000E+00 0.  1.
<mgrwt>
<rscale>  0 0.14358947E+04</rscale>
<asrwt>0</asrwt>
<pdfrwt beam="1">  1        1 0.16594839E+00 0.14358947E+04</pdfrwt>
<pdfrwt beam="2">  1       -1 0.73516607E-01 0.14358947E+04</pdfrwt>
<totfact> 0.23854311E+01</totfact>
</mgrwt>
</event>
<event>
12    1  0.1397649E-007  0.3443643E+04  0.7818608E-02  0.8127277E-01
          1   -1    0    0  501    0  0.00000000000E+00  0.00000000000E+00  0.10814458447E+04  0.10814458447E+04  0.00000000000E+00 0. -1.
         -1   -1    0    0    0  501 -0.00000000000E+00 -0.00000000000E+00 -0.27413933956E+04  0.27413933956E+04  0.00000000000E+00 0.  1.
         23    2    1    2    0    0  0.13708097167E+04 -0.80752637260E+03 -0.98961797793E+03  0.18758427169E+04  0.90686462539E+02 0.  0.
        254    2    1    2    0    0 -0.13708097167E+04  0.80752637260E+03 -0.67032957300E+03  0.19469965234E+04  0.90013088137E+03 0.  0.
        -24    2    4    4    0    0 -0.12339375968E+04  0.47158542958E+03 -0.18439752366E+03  0.13365026626E+04  0.85100589384E+02 0.  0.
         24    2    4    4    0    0 -0.13687211991E+03  0.33594094302E+03 -0.48593204934E+03  0.61049386070E+03  0.70586846992E+02 0.  0.
         13    1    3    3    0    0  0.65938215293E+03 -0.36957059696E+03 -0.51990485070E+03  0.91742482173E+03  0.00000000000E+00 0.  1.
        -13    1    3    3    0    0  0.71142756379E+03 -0.43795577565E+03 -0.46971312723E+03  0.95841789519E+03  0.00000000000E+00 0. -1.
          4    1    6    6  502    0 -0.69751772865E+02  0.11983398259E+03 -0.13937120150E+03  0.19659558747E+03  0.00000000000E+00 0. -1.
          1    1    5    5  503    0 -0.14558144189E+03  0.74035960417E+02 -0.61280987426E+00  0.16332683550E+03  0.00000000000E+00 0. -1.
         -2    1    5    5    0  503 -0.10883561549E+04  0.39754946917E+03 -0.18378471378E+03  0.11731758272E+04  0.00000000000E+00 0.  1.
         -3    1    6    6    0  502 -0.67120347041E+02  0.21610696043E+03 -0.34656084784E+03  0.41389827324E+03  0.00000000000E+00 0.  1.
<mgrwt>
<rscale>  0 0.34436425E+04</rscale>
<asrwt>0</asrwt>
<pdfrwt beam="1">  1        1 0.16637629E+00 0.34436425E+04</pdfrwt>
<pdfrwt beam="2">  1       -1 0.42175282E+00 0.34436425E+04</pdfrwt>
<totfact> 0.54377521E-02</totfact>
</mgrwt>
</event>
<event>
12    1  0.1397649E-007  0.1348519E+04  0.7818608E-02  0.8991950E-01
         -2   -1    0    0    0  501 -0.00000000000E+00  0.00000000000E+00  0.26483314184E+03  0.26483314184E+03  0.00000000000E+00 0.  1.
          2   -1    0    0  501    0  0.00000000000E+00 -0.00000000000E+00 -0.17166497498E+04  0.17166497498E+04  0.00000000000E+00 0. -1.
         23    2    1    2    0    0  0.11502599105E+02 -0.21756576118E+03  0.26040786288E+02  0.23804474305E+03  0.92303883561E+02 0.  0.
        254    2    1    2    0    0 -0.11502599105E+02  0.21756576118E+03 -0.14778573942E+04  0.17434381486E+04  0.89891430624E+03 0.  0.
        -24    2    4    4    0    0 -0.44468572842E+03  0.12878633172E+03 -0.66094502163E+03  0.81103014022E+03  0.81180357450E+02 0.  0.
         24    2    4    4    0    0  0.43318312932E+03  0.88779429455E+02 -0.81691237262E+03  0.93240800836E+03  0.80681217681E+02 0.  0.
         13    1    3    3    0    0  0.30262603838E+02 -0.12947151625E+03  0.54335921254E+02  0.14363527091E+03  0.00000000000E+00 0.  1.
        -13    1    3    3    0    0 -0.18760004732E+02 -0.88094244925E+02 -0.28295134966E+02  0.94409472137E+02  0.00000000000E+00 0. -1.
          4    1    6    6  502    0  0.34546962128E+03  0.96063765509E+02 -0.61055278731E+03  0.70806229412E+03  0.00000000000E+00 0. -1.
          3    1    5    5  503    0 -0.41473838903E+03  0.10984175846E+03 -0.56998796491E+03  0.71341392149E+03  0.00000000000E+00 0. -1.
         -4    1    5    5    0  503 -0.29947339395E+02  0.18944573266E+02 -0.90957056717E+02  0.97616218733E+02  0.00000000000E+00 0.  1.
         -3    1    6    6    0  502  0.87713508042E+02 -0.72843360538E+01 -0.20635958531E+03  0.22434571424E+03  0.00000000000E+00 0.  1.
<mgrwt>
<rscale>  0 0.13485188E+04</rscale>
<asrwt>0</asrwt>
<pdfrwt beam="1">  1        2 0.26409997E+00 0.13485188E+04</pdfrwt>
<pdfrwt beam="2">  1       -2 0.40743559E-01 0.13485188E+04</pdfrwt>
<totfact> 0.53487207E+01</totfact>
</mgrwt>
</event>
<event>
12    1  0.1397649E-007  0.1317311E+04  0.7818608E-02  0.9015949E-01
          2   -1    0    0  501    0  0.00000000000E+00  0.00000000000E+00  0.34930660086E+03  0.34930660086E+03  0.00000000000E+00 0. -1.
         -2   -1    0    0    0  501 -0.00000000000E+00 -0.00000000000E+00 -0.12419672901E+04  0.12419672901E+04  0.00000000000E+00 0.  1.
         23    2    1    2    0    0  0.30746199975E+03  0.17194135119E+03 -0.13562762319E+03  0.38831281298E+03  0.91078422331E+02 0.  0.
        254    2    1    2    0    0 -0.30746199975E+03 -0.17194135119E+03 -0.75703306608E+03  0.12029610780E+04  0.86597897348E+03 0.  0.
        -24    2    4    4    0    0  0.23286047597E+03 -0.27987001272E+03 -0.24028295010E+03  0.44325981535E+03  0.78690167786E+02 0.  0.
         24    2    4    4    0    0 -0.54032247572E+03  0.10792866153E+03 -0.51675011598E+03  0.75970126266E+03  0.80736313865E+02 0.  0.
         11    1    3    3    0    0  0.23299577987E+03  0.15436349899E+03 -0.71528777252E+02  0.28849868151E+03  0.00000000000E+00 0. -1.
        -11    1    3    3    0    0  0.74466219887E+02  0.17577852198E+02 -0.64098845934E+02  0.99814131475E+02  0.00000000000E+00 0.  1.
          4    1    6    6  502    0 -0.36631110008E+03  0.10623217890E+03 -0.32886575143E+03  0.50360875722E+03  0.00000000000E+00 0. -1.
          3    1    5    5  503    0  0.21347635535E+03 -0.28079469662E+03 -0.23182357359E+03  0.42209002027E+03  0.00000000000E+00 0. -1.
         -4    1    5    5    0  503  0.19384120621E+02  0.92468390161E+00 -0.84593765110E+01  0.21169795075E+02  0.00000000000E+00 0.  1.
         -3    1    6    6    0  502 -0.17401137563E+03  0.16964826252E+01 -0.18788436455E+03  0.25609250545E+03  0.00000000000E+00 0.  1.
<mgrwt>
<rscale>  0 0.13173115E+04</rscale>
<asrwt>0</asrwt>
<pdfrwt beam="1">  1        2 0.53739477E-01 0.13173115E+04</pdfrwt>
<pdfrwt beam="2">  1       -2 0.19107189E+00 0.13173115E+04</pdfrwt>
<totfact> 0.13808703E+01</totfact>
</mgrwt>
</event>
<event>
12    1  0.1397649E-007  0.1405628E+04  0.7818608E-02  0.8949755E-01
         -2   -1    0    0    0  501 -0.00000000000E+00  0.00000000000E+00  0.12489234799E+03  0.12489234799E+03  0.00000000000E+00 0.  1.
          2   -1    0    0  501    0  0.00000000000E+00 -0.00000000000E+00 -0.39549862006E+04  0.39549862006E+04  0.00000000000E+00 0. -1.
         23    2    1    2    0    0 -0.10140630346E+03  0.14825327208E+03 -0.23904638846E+04  0.23990425418E+04  0.93942868750E+02 0.  0.
        254    2    1    2    0    0  0.10140630346E+03 -0.14825327208E+03 -0.14396299680E+04  0.16808360068E+04  0.84877144505E+03 0.  0.
        -24    2    4    4    0    0  0.33782084437E+03  0.22560120642E+03 -0.60812702326E+03  0.73557610347E+03  0.78961385183E+02 0.  0.
         24    2    4    4    0    0 -0.23641454091E+03 -0.37385447850E+03 -0.83150294477E+03  0.94525990336E+03  0.80374943130E+02 0.  0.
         11    1    3    3    0    0 -0.41879639454E+02  0.13548341671E+03 -0.16839040299E+04  0.16898646225E+04  0.00000000000E+00 0. -1.
        -11    1    3    3    0    0 -0.59526664008E+02  0.12769855375E+02 -0.70655985474E+03  0.70917791933E+03  0.00000000000E+00 0.  1.
          4    1    6    6  502    0 -0.48329336191E+02 -0.60330639567E+02 -0.21527948300E+03  0.22873733103E+03  0.00000000000E+00 0. -1.
          1    1    5    5  503    0  0.15476212510E+02 -0.60354378533E+01 -0.30097877870E+02  0.34377636859E+02  0.00000000000E+00 0. -1.
         -2    1    5    5    0  503  0.32234463186E+03  0.23163664427E+03 -0.57802914539E+03  0.70119846661E+03  0.00000000000E+00 0.  1.
         -3    1    6    6    0  502 -0.18808520472E+03 -0.31352383893E+03 -0.61622346178E+03  0.71652257233E+03  0.00000000000E+00 0.  1.
<mgrwt>
<rscale>  0 0.14056280E+04</rscale>
<asrwt>0</asrwt>
<pdfrwt beam="1">  1        2 0.60845937E+00 0.14056280E+04</pdfrwt>
<pdfrwt beam="2">  1       -2 0.19214209E-01 0.14056280E+04</pdfrwt>
<totfact> 0.85225467E+00</totfact>
</mgrwt>
</event>
<event>
12    1  0.1397649E-007  0.1157091E+04  0.7818608E-02  0.9151267E-01
         -2   -1    0    0    0  501 -0.00000000000E+00  0.00000000000E+00  0.73071806128E+03  0.73071806128E+03  0.00000000000E+00 0. -1.
          2   -1    0    0  501    0  0.00000000000E+00 -0.00000000000E+00 -0.45806264611E+03  0.45806264611E+03  0.00000000000E+00 0.  1.
         23    2    1    2    0    0 -0.80635387604E+02  0.11090953077E+02 -0.17980140398E+03  0.21515014216E+03  0.85650241234E+02 0.  0.
        254    2    1    2    0    0  0.80635387604E+02 -0.11090953077E+02  0.45245681915E+03  0.97363056524E+03  0.85826233134E+03 0.  0.
        -24    2    4    4    0    0  0.94419657109E+02 -0.11632988601E+03  0.68496526757E+03  0.70578981245E+03  0.80710145241E+02 0.  0.
         24    2    4    4    0    0 -0.13784269505E+02  0.10523893293E+03 -0.23250844842E+03  0.26784075279E+03  0.80082777022E+02 0.  0.
         11    1    3    3    0    0 -0.97921100385E+02  0.13131934251E+01 -0.14275360751E+03  0.17311516062E+03  0.00000000000E+00 0.  1.
        -11    1    3    3    0    0  0.17285712780E+02  0.97777596515E+01 -0.37047796466E+02  0.42034981541E+02  0.00000000000E+00 0. -1.
          2    1    6    6  502    0 -0.21775656292E+02  0.69029286132E+02 -0.68375442760E+02  0.99571194246E+02  0.00000000000E+00 0. -1.
          3    1    5    5  503    0  0.48174041800E+01 -0.45545540507E+02  0.10293756683E+03  0.11266652701E+03  0.00000000000E+00 0. -1.
         -4    1    5    5    0  503  0.89602252929E+02 -0.70784345502E+02  0.58202770074E+03  0.59312328544E+03  0.00000000000E+00 0.  1.
         -1    1    6    6    0  502  0.79913867873E+01  0.36209646800E+02 -0.16413300566E+03  0.16826955854E+03  0.00000000000E+00 0.  1.
<mgrwt>
<rscale>  0 0.11570906E+04</rscale>
<asrwt>0</asrwt>
<pdfrwt beam="1">  1        2 0.70471176E-01 0.11570906E+04</pdfrwt>
<pdfrwt beam="2">  1       -2 0.11241816E+00 0.11570906E+04</pdfrwt>
<totfact> 0.42016290E+01</totfact>
</mgrwt>
</event>
<event>
12    1  0.1397649E-007  0.1868022E+04  0.7818608E-02  0.8670940E-01
         -1   -1    0    0    0  501 -0.00000000000E+00  0.00000000000E+00  0.36238173592E+03  0.36238173592E+03  0.00000000000E+00 0.  1.
          1   -1    0    0  501    0  0.00000000000E+00 -0.00000000000E+00 -0.24073415634E+04  0.24073415634E+04  0.00000000000E+00 0. -1.
         23    2    1    2    0    0  0.45133061508E+03 -0.54040686289E+03 -0.61514612599E+03  0.93964230615E+03  0.93723026021E+02 0.  0.
        254    2    1    2    0    0 -0.45133061508E+03  0.54040686289E+03 -0.14298137015E+04  0.18300809932E+04  0.89949447973E+03 0.  0.
        -24    2    4    4    0    0 -0.34949645617E+03  0.40550661795E+02 -0.59160305077E+02  0.36543703579E+03  0.79070578502E+02 0.  0.
         24    2    4    4    0    0 -0.10183415892E+03  0.49985620110E+03 -0.13706533965E+04  0.14646439574E+04  0.79150307057E+02 0.  0.
         13    1    3    3    0    0  0.24755018130E+03 -0.22352225483E+03 -0.28592595104E+03  0.43931417021E+03  0.00000000000E+00 0. -1.
        -13    1    3    3    0    0  0.20378043379E+03 -0.31688460806E+03 -0.32922017495E+03  0.50032813594E+03  0.00000000000E+00 0.  1.
          4    1    6    6  502    0 -0.11351574904E+03  0.41987413893E+03 -0.11328179226E+04  0.12134482121E+04  0.00000000000E+00 0. -1.
          3    1    5    5  503    0 -0.20237201024E+03  0.46587711795E+02 -0.25479013721E+01  0.20768085425E+03  0.00000000000E+00 0. -1.
         -4    1    5    5    0  503 -0.14712444593E+03 -0.60370499999E+01 -0.56612403705E+02  0.15775618154E+03  0.00000000000E+00 0.  1.
         -3    1    6    6    0  502  0.11681590125E+02  0.79982062164E+02 -0.23783547387E+03  0.25119574528E+03  0.00000000000E+00 0.  1.
<mgrwt>
<rscale>  0 0.18680221E+04</rscale>
<asrwt>0</asrwt>
<pdfrwt beam="1">  1        1 0.37036025E+00 0.18680221E+04</pdfrwt>
<pdfrwt beam="2">  1       -1 0.55751035E-01 0.18680221E+04</pdfrwt>
<totfact> 0.47968036E+00</totfact>
</mgrwt>
</event>
<event>
12    1  0.1397649E-007  0.1765252E+04  0.7818608E-02  0.8724999E-01
          1   -1    0    0  501    0  0.00000000000E+00  0.00000000000E+00  0.13216638976E+04  0.13216638976E+04  0.00000000000E+00 0. -1.
         -1   -1    0    0    0  501 -0.00000000000E+00 -0.00000000000E+00 -0.58943019711E+03  0.58943019711E+03  0.00000000000E+00 0.  1.
         23    2    1    2    0    0 -0.44647091304E+03 -0.35317060022E+03 -0.59660650803E+02  0.58011240371E+03  0.94367677915E+02 0.  0.
        254    2    1    2    0    0  0.44647091304E+03  0.35317060022E+03  0.79189435131E+03  0.13309816910E+04  0.90573166507E+03 0.  0.
        -24    2    4    4    0    0  0.63802278356E+03  0.50045174362E+03  0.60782998643E+03  0.10169009034E+04  0.84291961852E+02 0.  0.
         24    2    4    4    0    0 -0.19155187052E+03 -0.14728114341E+03  0.18406436488E+03  0.31408078763E+03  0.79894908722E+02 0.  0.
         13    1    3    3    0    0 -0.96811541142E+02 -0.93786645361E+02 -0.52603917604E+02  0.14469133178E+03  0.00000000000E+00 0.  1.
        -13    1    3    3    0    0 -0.34965937190E+03 -0.25938395486E+03 -0.70567331991E+01  0.43542107193E+03  0.00000000000E+00 0. -1.
          4    1    6    6  502    0 -0.26425003964E+01 -0.14971862993E+02 -0.48428154975E+01  0.15955950357E+02  0.00000000000E+00 0. -1.
          1    1    5    5  503    0  0.24145275383E+03  0.17104445371E+03  0.26973384425E+03  0.40038979034E+03  0.00000000000E+00 0. -1.
         -2    1    5    5    0  503  0.39657002974E+03  0.32940728991E+03  0.33809614218E+03  0.61651111303E+03  0.00000000000E+00 0.  1.
         -3    1    6    6    0  502 -0.18890937013E+03 -0.13230928041E+03  0.18890718038E+03  0.29812483728E+03  0.00000000000E+00 0.  1.
<mgrwt>
<rscale>  0 0.17652519E+04</rscale>
<asrwt>0</asrwt>
<pdfrwt beam="1">  1        1 0.20333291E+00 0.17652519E+04</pdfrwt>
<pdfrwt beam="2">  1       -1 0.90681569E-01 0.17652519E+04</pdfrwt>
<totfact> 0.98141432E+00</totfact>
</mgrwt>
</event>
<event>
12    1  0.1397649E-007  0.1343976E+04  0.7818608E-02  0.8995401E-01
         -3   -1    0    0    0  501 -0.00000000000E+00  0.00000000000E+00  0.53385689723E+03  0.53385689723E+03  0.00000000000E+00 0.  1.
          3   -1    0    0  501    0  0.00000000000E+00 -0.00000000000E+00 -0.84585952048E+03  0.84585952048E+03  0.00000000000E+00 0. -1.
         23    2    1    2    0    0 -0.12028907125E+03 -0.86745032977E+02  0.25605602016E+03  0.31143080064E+03  0.97109714859E+02 0.  0.
        254    2    1    2    0    0  0.12028907125E+03  0.86745032977E+02 -0.56805864340E+03  0.10682856171E+04  0.89249614895E+03 0.  0.
        -24    2    4    4    0    0 -0.35474968116E+02 -0.37969754822E+03 -0.14719463068E+03  0.41582290969E+03  0.76247829067E+02 0.  0.
         24    2    4    4    0    0  0.15576403936E+03  0.46644258120E+03 -0.42086401273E+03  0.65246270738E+03  0.82158078122E+02 0.  0.
         13    1    3    3    0    0 -0.39355567856E+02  0.16127861767E+02  0.37635250965E+02  0.56792435778E+02  0.00000000000E+00 0. -1.
        -13    1    3    3    0    0 -0.80933503389E+02 -0.10287289474E+03  0.21842076919E+03  0.25463836486E+03  0.00000000000E+00 0.  1.
          2    1    6    6  502    0 -0.10070206738E+02  0.32676455137E+02 -0.29072657766E+02  0.44881836122E+02  0.00000000000E+00 0. -1.
          3    1    5    5  503    0  0.11181661264E+02 -0.83671981648E+02 -0.62319653299E+01  0.84645540068E+02  0.00000000000E+00 0. -1.
         -4    1    5    5    0  503 -0.46656629380E+02 -0.29602556657E+03 -0.14096266535E+03  0.33117736962E+03  0.00000000000E+00 0.  1.
         -1    1    6    6    0  502  0.16583424610E+03  0.43376612606E+03 -0.39179135496E+03  0.60758087126E+03  0.00000000000E+00 0.  1.
<mgrwt>
<rscale>  0 0.13439761E+04</rscale>
<asrwt>0</asrwt>
<pdfrwt beam="1">  1        3 0.13013223E+00 0.13439761E+04</pdfrwt>
<pdfrwt beam="2">  1       -3 0.82131830E-01 0.13439761E+04</pdfrwt>
<totfact> 0.16290614E+00</totfact>
</mgrwt>
</event>
<event>
12    1  0.1397649E-007  0.2377801E+04  0.7818608E-02  0.8447862E-01
          1   -1    0    0  501    0  0.00000000000E+00  0.00000000000E+00  0.12870510285E+04  0.12870510285E+04  0.00000000000E+00 0. -1.
         -1   -1    0    0    0  501 -0.00000000000E+00 -0.00000000000E+00 -0.10982345647E+04  0.10982345647E+04  0.00000000000E+00 0.  1.
         23    2    1    2    0    0  0.25886006214E+03 -0.95709697803E+03  0.30755500509E+03  0.10421183623E+04  0.91528371781E+02 0.  0.
        254    2    1    2    0    0 -0.25886006214E+03  0.95709697803E+03 -0.11873854133E+03  0.13431672308E+04  0.89830741488E+03 0.  0.
        -24    2    4    4    0    0  0.22077338716E+03  0.21146294734E+03 -0.29883725012E+03  0.43490334801E+03  0.79873359031E+02 0.  0.
         24    2    4    4    0    0 -0.47963344930E+03  0.74563403070E+03  0.18009870878E+03  0.90826388281E+03  0.80556703602E+02 0.  0.
         11    1    3    3    0    0  0.11626096307E+03 -0.34106650325E+03  0.15106592687E+03  0.39072226124E+03  0.00000000000E+00 0. -1.
        -11    1    3    3    0    0  0.14259909907E+03 -0.61603047479E+03  0.15648907822E+03  0.65139610110E+03  0.00000000000E+00 0.  1.
          4    1    6    6  502    0 -0.48028081857E+03  0.72567116725E+03  0.17471070105E+03  0.88757655261E+03  0.00000000000E+00 0. -1.
          1    1    5    5  503    0  0.10540451285E+03  0.15154218334E+03 -0.19507436554E+03  0.26856871141E+03  0.00000000000E+00 0. -1.
         -2    1    5    5    0  503  0.11536887431E+03  0.59920764000E+02 -0.10376288458E+03  0.16633463660E+03  0.00000000000E+00 0.  1.
         -3    1    6    6    0  502  0.64736927097E+00  0.19962863443E+02  0.53880077332E+01  0.20687330209E+02  0.00000000000E+00 0.  1.
<mgrwt>
<rscale>  0 0.23778006E+04</rscale>
<asrwt>0</asrwt>
<pdfrwt beam="1">  1        1 0.19800785E+00 0.23778006E+04</pdfrwt>
<pdfrwt beam="2">  1       -1 0.16895917E+00 0.23778006E+04</pdfrwt>
<totfact> 0.20780948E+00</totfact>
</mgrwt>
</event>
<event>
12    1  0.1404151E-007  0.1598663E+04  0.7818608E-02  0.8821370E-01
         -1   -1    0    0    0  501 -0.00000000000E+00  0.00000000000E+00  0.11097542452E+04  0.11097542452E+04  0.00000000000E+00 0.  1.
          1   -1    0    0  501    0  0.00000000000E+00 -0.00000000000E+00 -0.57574067310E+03  0.57574067310E+03  0.00000000000E+00 0. -1.
         23    2    1    2    0    0 -0.48447770250E+02  0.36115998563E+03 -0.22233031950E+03  0.43636990965E+03  0.90577068896E+02 0.  0.
        254    2    1    2    0    0  0.48447770250E+02 -0.36115998563E+03  0.75634389165E+03  0.12491250087E+04  0.92491809543E+03 0.  0.
        -24    2    4    4    0    0  0.44617318266E+03 -0.87786167246E+02  0.18667977413E+03  0.49817316802E+03  0.80933597350E+02 0.  0.
         24    2    4    4    0    0 -0.39772541241E+03 -0.27337381839E+03  0.56966411752E+03  0.75095184068E+03  0.80577366357E+02 0.  0.
         13    1    3    3    0    0 -0.59869670460E+02  0.35449826734E+03 -0.20276476953E+03  0.41275531584E+03  0.00000000000E+00 0. -1.
        -13    1    3    3    0    0  0.11421900210E+02  0.66617182897E+01 -0.19565549972E+02  0.23614593807E+02  0.00000000000E+00 0.  1.
          4    1    6    6  502    0 -0.36660426203E+03 -0.27129969626E+03  0.51417637659E+03  0.68729873882E+03  0.00000000000E+00 0. -1.
          1    1    5    5  503    0  0.37859714417E+03 -0.72509162579E+02  0.12451150145E+03  0.40508824992E+03  0.00000000000E+00 0. -1.
         -2    1    5    5    0  503  0.67576038493E+02 -0.15277004667E+02  0.62168272673E+02  0.93084918097E+02  0.00000000000E+00 0.  1.
         -3    1    6    6    0  502 -0.31121150377E+02 -0.20741221304E+01  0.55487740930E+02  0.63653101863E+02  0.00000000000E+00 0.  1.
<mgrwt>
<rscale>  0 0.15986628E+04</rscale>
<asrwt>0</asrwt>
<pdfrwt beam="1">  1        1 0.88575488E-01 0.15986628E+04</pdfrwt>
<pdfrwt beam="2">  1       -1 0.17073142E+00 0.15986628E+04</pdfrwt>
<totfact> 0.84760211E+00</totfact>
</mgrwt>
</event>
<event>
12    1  0.1397649E-007  0.2633472E+04  0.7818608E-02  0.8356919E-01
          1   -1    0    0  501    0  0.00000000000E+00  0.00000000000E+00  0.16094131867E+04  0.16094131867E+04  0.00000000000E+00 0. -1.
         -1   -1    0    0    0  501 -0.00000000000E+00 -0.00000000000E+00 -0.10772834604E+04  0.10772834604E+04  0.00000000000E+00 0.  1.
         23    2    1    2    0    0 -0.25437375980E+03  0.99109374968E+03 -0.31447766236E+03  0.10743388401E+04  0.91295744594E+02 0.  0.
        254    2    1    2    0    0  0.25437375980E+03 -0.99109374968E+03  0.84660738866E+03  0.16123578069E+04  0.91431985468E+03 0.  0.
        -24    2    4    4    0    0  0.34465714288E+03 -0.82540594084E+03  0.10092095788E+04  0.13509974232E+04  0.81280688353E+02 0.  0.
         24    2    4    4    0    0 -0.90283383087E+02 -0.16568780883E+03 -0.16260219012E+03  0.26136038370E+03  0.79159577294E+02 0.  0.
         13    1    3    3    0    0 -0.23322081972E+03  0.81240404884E+03 -0.28518368169E+03  0.89203252274E+03  0.00000000000E+00 0.  1.
        -13    1    3    3    0    0 -0.21152940073E+02  0.17868970084E+03 -0.29293980669E+02  0.18230631740E+03  0.00000000000E+00 0. -1.
          2    1    6    6  502    0 -0.81626594615E+02 -0.16210197780E+03 -0.17056565486E+03  0.24906343524E+03  0.00000000000E+00 0. -1.
          3    1    5    5  503    0  0.19986841240E+03 -0.37422292249E+03  0.48459941201E+03  0.64407046828E+03  0.00000000000E+00 0. -1.
         -4    1    5    5    0  503  0.14478873048E+03 -0.45118301835E+03  0.52461016678E+03  0.70692695493E+03  0.00000000000E+00 0.  1.
         -1    1    6    6    0  502 -0.86567884720E+01 -0.35858310358E+01  0.79634647374E+01  0.12296948463E+02  0.00000000000E+00 0.  1.
<mgrwt>
<rscale>  0 0.26334724E+04</rscale>
<asrwt>0</asrwt>
<pdfrwt beam="1">  1        1 0.24760203E+00 0.26334724E+04</pdfrwt>
<pdfrwt beam="2">  1       -1 0.16573592E+00 0.26334724E+04</pdfrwt>
<totfact> 0.12776212E+00</totfact>
</mgrwt>
</event>
<event>
12    1  0.1397649E-007  0.2300733E+04  0.7818608E-02  0.8477632E-01
         -2   -1    0    0    0  501 -0.00000000000E+00  0.00000000000E+00  0.71986988836E+03  0.71986988836E+03  0.00000000000E+00 0. -1.
          2   -1    0    0  501    0  0.00000000000E+00 -0.00000000000E+00 -0.18383090152E+04  0.18383090152E+04  0.00000000000E+00 0.  1.
         23    2    1    2    0    0 -0.67708137436E+03 -0.61651024219E+03 -0.41485203446E+03  0.10095758028E+04  0.92827931436E+02 0.  0.
        254    2    1    2    0    0  0.67708137436E+03  0.61651024219E+03 -0.70358709237E+03  0.15486031008E+04  0.10318007079E+04 0.  0.
        -24    2    4    4    0    0  0.20703116551E+03  0.19021526846E+03 -0.84452409081E+03  0.89363865199E+03  0.79532059709E+02 0.  0.
         24    2    4    4    0    0  0.47005020885E+03  0.42629497373E+03  0.14093699844E+03  0.65496444877E+03  0.80253275032E+02 0.  0.
         13    1    3    3    0    0 -0.19149638304E+02 -0.43790758547E+02 -0.27619556968E+02  0.55201260026E+02  0.00000000000E+00 0.  1.
        -13    1    3    3    0    0 -0.65793173605E+03 -0.57271948364E+03 -0.38723247750E+03  0.95437454277E+03  0.00000000000E+00 0. -1.
          2    1    6    6  502    0  0.20371751864E+02  0.27954409733E+01  0.12441702529E+02  0.24033699800E+02  0.00000000000E+00 0. -1.
          1    1    5    5  503    0  0.58046464288E+02  0.10153443018E+03 -0.39040703958E+03  0.40754912474E+03  0.00000000000E+00 0. -1.
         -2    1    5    5    0  503  0.14898470122E+03  0.88680838280E+02 -0.45411705124E+03  0.48608952725E+03  0.00000000000E+00 0.  1.
         -1    1    6    6    0  502  0.44967845698E+03  0.42349953276E+03  0.12849529591E+03  0.63093074897E+03  0.00000000000E+00 0.  1.
<mgrwt>
<rscale>  0 0.23007332E+04</rscale>
<asrwt>0</asrwt>
<pdfrwt beam="1">  1        2 0.28281676E+00 0.23007332E+04</pdfrwt>
<pdfrwt beam="2">  1       -2 0.11074922E+00 0.23007332E+04</pdfrwt>
<totfact> 0.48141636E+00</totfact>
</mgrwt>
</event>
<event>
12    1  0.1397649E-007  0.1724668E+04  0.7818608E-02  0.8747419E-01
          2   -1    0    0  501    0  0.00000000000E+00  0.00000000000E+00  0.14134923947E+04  0.14134923947E+04  0.00000000000E+00 0. -1.
         -2   -1    0    0    0  501 -0.00000000000E+00 -0.00000000000E+00 -0.52608707065E+03  0.52608707065E+03  0.00000000000E+00 0.  1.
         23    2    1    2    0    0 -0.57112748699E+03  0.10235584209E+03  0.11548443521E+03  0.59830878324E+03  0.89294011670E+02 0.  0.
        254    2    1    2    0    0  0.57112748699E+03 -0.10235584209E+03  0.77192088883E+03  0.13412706821E+04  0.93085007343E+03 0.  0.
        -24    2    4    4    0    0  0.17752774612E+03 -0.43499604870E+01  0.88982458038E+03  0.91122825764E+03  0.83750408241E+02 0.  0.
         24    2    4    4    0    0  0.39359974088E+03 -0.98005881606E+02 -0.11790369154E+03  0.43004242445E+03  0.80680217527E+02 0.  0.
         13    1    3    3    0    0 -0.25198259854E+02 -0.13320351375E+02  0.11058843669E+02  0.30572570774E+02  0.00000000000E+00 0. -1.
        -13    1    3    3    0    0 -0.54592922714E+03  0.11567619347E+03  0.10442559154E+03  0.56773621247E+03  0.00000000000E+00 0.  1.
          2    1    6    6  502    0  0.42568213248E+02 -0.60685270103E+01 -0.40371099645E+02  0.58980551759E+02  0.00000000000E+00 0. -1.
          3    1    5    5  503    0  0.51294120326E+02  0.25441087596E+02  0.41792726380E+03  0.42183116711E+03  0.00000000000E+00 0. -1.
         -2    1    5    5    0  503  0.12623362579E+03 -0.29791048083E+02  0.47189731657E+03  0.48939709053E+03  0.00000000000E+00 0.  1.
         -1    1    6    6    0  502  0.35103152763E+03 -0.91937354595E+02 -0.77532591899E+02  0.37106187269E+03  0.00000000000E+00 0.  1.
<mgrwt>
<rscale>  0 0.17246682E+04</rscale>
<asrwt>0</asrwt>
<pdfrwt beam="1">  1        2 0.21746037E+00 0.17246682E+04</pdfrwt>
<pdfrwt beam="2">  1       -2 0.80936473E-01 0.17246682E+04</pdfrwt>
<totfact> 0.18179336E+01</totfact>
</mgrwt>
</event>
<event>
12    1  0.1397649E-007  0.1454516E+04  0.7818608E-02  0.8915276E-01
         -2   -1    0    0    0  501 -0.00000000000E+00  0.00000000000E+00  0.16780855815E+04  0.16780855815E+04  0.00000000000E+00 0.  1.
          2   -1    0    0  501    0  0.00000000000E+00 -0.00000000000E+00 -0.31518314297E+03  0.31518314297E+03  0.00000000000E+00 0. -1.
         23    2    1    2    0    0  0.21885819049E+03  0.86120545512E+02  0.94460227296E+03  0.97741153995E+03  0.88001184339E+02 0.  0.
        254    2    1    2    0    0 -0.21885819049E+03 -0.86120545512E+02  0.41830016559E+03  0.10158571845E+04  0.89536313022E+03 0.  0.
        -24    2    4    4    0    0  0.16042140300E+03  0.29228960151E+03  0.31304517483E+03  0.46462012630E+03  0.81892262091E+02 0.  0.
         24    2    4    4    0    0 -0.37927959349E+03 -0.37841014702E+03  0.10525499077E+03  0.55123705825E+03  0.75739236221E+02 0.  0.
         11    1    3    3    0    0  0.50693129011E+02  0.46846358881E+02  0.16396480272E+03  0.17790118381E+03  0.00000000000E+00 0. -1.
        -11    1    3    3    0    0  0.16816506148E+03  0.39274186631E+02  0.78063747024E+03  0.79951035614E+03  0.00000000000E+00 0.  1.
          4    1    6    6  502    0 -0.35209056115E+03 -0.33251265793E+03  0.75445176421E+02  0.49012692803E+03  0.00000000000E+00 0. -1.
          1    1    5    5  503    0  0.12417391325E+03  0.14190882716E+03  0.16714254415E+03  0.25197997147E+03  0.00000000000E+00 0. -1.
         -2    1    5    5    0  503  0.36247489745E+02  0.15038077435E+03  0.14590263068E+03  0.21264015483E+03  0.00000000000E+00 0.  1.
         -3    1    6    6    0  502 -0.27189032338E+02 -0.45897489089E+02  0.29809814348E+02  0.61110130221E+02  0.00000000000E+00 0.  1.
<mgrwt>
<rscale>  0 0.14545161E+04</rscale>
<asrwt>0</asrwt>
<pdfrwt beam="1">  1        2 0.48489715E-01 0.14545161E+04</pdfrwt>
<pdfrwt beam="2">  1       -2 0.25816701E+00 0.14545161E+04</pdfrwt>
<totfact> 0.57746054E+00</totfact>
</mgrwt>
</event>
<event>
12    1  0.1397649E-007  0.1739247E+04  0.7818608E-02  0.8739291E-01
         -2   -1    0    0    0  501 -0.00000000000E+00  0.00000000000E+00  0.50890891352E+03  0.50890891352E+03  0.00000000000E+00 0.  1.
          2   -1    0    0  501    0  0.00000000000E+00 -0.00000000000E+00 -0.14860132334E+04  0.14860132334E+04  0.00000000000E+00 0. -1.
         23    2    1    2    0    0 -0.37410989373E+03  0.88523940613E+02 -0.93707743928E+03  0.10162207023E+04  0.82435962456E+02 0.  0.
        254    2    1    2    0    0  0.37410989373E+03 -0.88523940613E+02 -0.40026880549E+02  0.97870144459E+03  0.89914385158E+03 0.  0.
        -24    2    4    4    0    0  0.33471548403E+03  0.28595696793E+02 -0.43597351167E+03  0.55650791113E+03  0.82316360160E+02 0.  0.
         24    2    4    4    0    0  0.39394409696E+02 -0.11711963741E+03  0.39594663112E+03  0.42219353346E+03  0.78770019813E+02 0.  0.
         11    1    3    3    0    0 -0.18398091392E+03  0.83533381611E+02 -0.44774948287E+03  0.49122947992E+03  0.00000000000E+00 0. -1.
        -11    1    3    3    0    0 -0.19012897981E+03  0.49905590020E+01 -0.48932795641E+03  0.52499122237E+03  0.00000000000E+00 0.  1.
          2    1    6    6  502    0  0.81240920314E+01 -0.60255796448E+02  0.30170000037E+03  0.30776557978E+03  0.00000000000E+00 0. -1.
          3    1    5    5  503    0  0.22018946980E+03 -0.20746561143E+02 -0.27731260324E+03  0.35470565590E+03  0.00000000000E+00 0. -1.
         -2    1    5    5    0  503  0.11452601423E+03  0.49342257936E+02 -0.15866090843E+03  0.20180225523E+03  0.00000000000E+00 0.  1.
         -1    1    6    6    0  502  0.31270317664E+02 -0.56863840958E+02  0.94246630749E+02  0.11442795368E+03  0.00000000000E+00 0.  1.
<mgrwt>
<rscale>  0 0.17392474E+04</rscale>
<asrwt>0</asrwt>
<pdfrwt beam="1">  1        2 0.22861742E+00 0.17392474E+04</pdfrwt>
<pdfrwt beam="2">  1       -2 0.78293679E-01 0.17392474E+04</pdfrwt>
<totfact> 0.17791885E+01</totfact>
</mgrwt>
</event>
<event>
12    1  0.1397649E-007  0.1133734E+04  0.7818608E-02  0.9172922E-01
          1   -1    0    0  501    0  0.00000000000E+00  0.00000000000E+00  0.11028584256E+04  0.11028584256E+04  0.00000000000E+00 0. -1.
         -1   -1    0    0    0  501 -0.00000000000E+00 -0.00000000000E+00 -0.29136860177E+03  0.29136860177E+03  0.00000000000E+00 0.  1.
         23    2    1    2    0    0  0.64882916106E+01 -0.13380437166E+03 -0.21202620876E+02  0.16362610673E+03  0.91532747526E+02 0.  0.
        254    2    1    2    0    0 -0.64882916106E+01  0.13380437166E+03  0.83269244466E+03  0.12306009206E+04  0.89613403606E+03 0.  0.
        -24    2    4    4    0    0 -0.16029562408E+03 -0.95995943639E+01 -0.14319623166E+03  0.22925835900E+03  0.79166881318E+02 0.  0.
         24    2    4    4    0    0  0.15380733247E+03  0.14340396602E+03  0.97588867632E+03  0.10013425616E+04  0.78146171321E+02 0.  0.
         13    1    3    3    0    0 -0.42121162189E+01  0.12953862864E+02 -0.82133890083E+01  0.15906107165E+02  0.00000000000E+00 0. -1.
        -13    1    3    3    0    0  0.10700407830E+02 -0.14675823452E+03 -0.12989231868E+02  0.14771999957E+03  0.00000000000E+00 0.  1.
          4    1    6    6  502    0  0.33871798540E+02  0.68794320869E+02  0.23771935389E+03  0.24978080098E+03  0.00000000000E+00 0. -1.
          1    1    5    5  503    0 -0.85645777219E+01  0.23844025629E+01  0.99494892782E+01  0.13342777223E+02  0.00000000000E+00 0. -1.
         -2    1    5    5    0  503 -0.15173104636E+03 -0.11983996927E+02 -0.15314572094E+03  0.21591558178E+03  0.00000000000E+00 0.  1.
         -3    1    6    6    0  502  0.11993553393E+03  0.74609645150E+02  0.73816932243E+03  0.75156176062E+03  0.00000000000E+00 0.  1.
<mgrwt>
<rscale>  0 0.11337342E+04</rscale>
<asrwt>0</asrwt>
<pdfrwt beam="1">  1        1 0.16967053E+00 0.11337342E+04</pdfrwt>
<pdfrwt beam="2">  1       -1 0.44825939E-01 0.11337342E+04</pdfrwt>
<totfact> 0.61846002E+01</totfact>
</mgrwt>
</event>
<event>
12    1  0.1397649E-007  0.1419180E+04  0.7818608E-02  0.8940051E-01
          2   -1    0    0  501    0  0.00000000000E+00  0.00000000000E+00  0.15045458781E+04  0.15045458781E+04  0.00000000000E+00 0.  1.
         -2   -1    0    0    0  501 -0.00000000000E+00 -0.00000000000E+00 -0.33466433267E+03  0.33466433267E+03  0.00000000000E+00 0. -1.
         23    2    1    2    0    0 -0.43560841535E+02  0.36926150743E+03  0.99385328469E+02  0.39515294453E+03  0.89536575037E+02 0.  0.
        254    2    1    2    0    0  0.43560841535E+02 -0.36926150743E+03  0.10704962170E+04  0.14440572662E+04  0.89503498807E+03 0.  0.
        -24    2    4    4    0    0 -0.74762211571E+01 -0.40073536043E+03  0.12072131103E+04  0.12741857848E+04  0.74439220348E+02 0.  0.
         24    2    4    4    0    0  0.51037062692E+02  0.31473853002E+02 -0.13671689328E+03  0.16987148149E+03  0.81051996426E+02 0.  0.
         13    1    3    3    0    0 -0.50648165362E+01  0.29330592353E+03  0.10021407654E+03  0.30999496492E+03  0.00000000000E+00 0. -1.
        -13    1    3    3    0    0 -0.38496024999E+02  0.75955583902E+02 -0.82874806633E+00  0.85157979603E+02  0.00000000000E+00 0.  1.
          4    1    6    6  502    0 -0.16433981102E+02 -0.75836181743E+01 -0.89341946659E+01  0.20184321485E+02  0.00000000000E+00 0. -1.
          1    1    5    5  503    0  0.34655009318E+01 -0.14701243052E+03  0.33732708363E+03  0.36798671956E+03  0.00000000000E+00 0. -1.
         -2    1    5    5    0  503 -0.10941722089E+02 -0.25372292991E+03  0.86988602662E+03  0.90619906519E+03  0.00000000000E+00 0.  1.
         -3    1    6    6    0  502  0.67471043795E+02  0.39057471177E+02 -0.12778269861E+03  0.14968716001E+03  0.00000000000E+00 0.  1.
<mgrwt>
<rscale>  0 0.14191798E+04</rscale>
<asrwt>0</asrwt>
<pdfrwt beam="1">  1        2 0.23146859E+00 0.14191798E+04</pdfrwt>
<pdfrwt beam="2">  1       -2 0.51486821E-01 0.14191798E+04</pdfrwt>
<totfact> 0.43700440E+01</totfact>
</mgrwt>
</event>
<event>
12    1  0.1397649E-007  0.1346230E+04  0.7818608E-02  0.8993687E-01
         -2   -1    0    0    0  501 -0.00000000000E+00  0.00000000000E+00  0.94256760257E+03  0.94256760257E+03  0.00000000000E+00 0.  1.
          2   -1    0    0  501    0  0.00000000000E+00 -0.00000000000E+00 -0.48069070545E+03  0.48069070545E+03  0.00000000000E+00 0. -1.
         23    2    1    2    0    0  0.11844211123E+03 -0.76580742264E+02 -0.22927320142E+03  0.28333214256E+03  0.88418088189E+02 0.  0.
        254    2    1    2    0    0 -0.11844211123E+03  0.76580742264E+02  0.69115009855E+03  0.11399261655E+04  0.89546080884E+03 0.  0.
        -24    2    4    4    0    0 -0.13567895427E+03 -0.13109210988E+03  0.84397607982E+03  0.86904220975E+03  0.85701920141E+02 0.  0.
         24    2    4    4    0    0  0.17236843036E+02  0.20767285215E+03 -0.15282598126E+03  0.27088395571E+03  0.81223239504E+02 0.  0.
         11    1    3    3    0    0  0.87832489467E+02 -0.90082848050E+02 -0.20976828873E+03  0.24460621553E+03  0.00000000000E+00 0. -1.
        -11    1    3    3    0    0  0.30609621768E+02  0.13502105786E+02 -0.19504912692E+02  0.38725927033E+02  0.00000000000E+00 0.  1.
          4    1    6    6  502    0 -0.20933377582E+02  0.11830916193E+02 -0.14174822263E+02  0.27912406939E+02  0.00000000000E+00 0. -1.
          3    1    5    5  503    0 -0.39443028362E+01 -0.39799208729E+02  0.94405503977E+02  0.10252772172E+03  0.00000000000E+00 0. -1.
         -4    1    5    5    0  503 -0.13173465143E+03 -0.91292901152E+02  0.74957057584E+03  0.76651448803E+03  0.00000000000E+00 0.  1.
         -1    1    6    6    0  502  0.38170220618E+02  0.19584193595E+03 -0.13865115900E+03  0.24297154877E+03  0.00000000000E+00 0.  1.
<mgrwt>
<rscale>  0 0.13462295E+04</rscale>
<asrwt>0</asrwt>
<pdfrwt beam="1">  1        2 0.73952417E-01 0.13462295E+04</pdfrwt>
<pdfrwt beam="2">  1       -2 0.14501040E+00 0.13462295E+04</pdfrwt>
<totfact> 0.20615938E+01</totfact>
</mgrwt>
</event>
<event>
12    1  0.1397649E-007  0.3729577E+04  0.7818608E-02  0.8061439E-01
          1   -1    0    0  501    0  0.00000000000E+00  0.00000000000E+00  0.34865651459E+04  0.34865651459E+04  0.00000000000E+00 0. -1.
         -1   -1    0    0    0  501 -0.00000000000E+00 -0.00000000000E+00 -0.99738169040E+03  0.99738169040E+03  0.00000000000E+00 0.  1.
         23    2    1    2    0    0 -0.86150077897E+03  0.13091959605E+04  0.31229589601E+03  0.16010149424E+04  0.97685535307E+02 0.  0.
        254    2    1    2    0    0  0.86150077897E+03 -0.13091959605E+04  0.21768875595E+04  0.28829318940E+04  0.10565411508E+04 0.  0.
        -24    2    4    4    0    0  0.59564648690E+03 -0.15567657389E+03  0.11800981483E+04  0.13333169698E+04  0.77926692254E+02 0.  0.
         24    2    4    4    0    0  0.26585429207E+03 -0.11535193866E+04  0.99678941126E+03  0.15496149242E+04  0.80198521797E+02 0.  0.
         13    1    3    3    0    0 -0.92940163416E+02  0.15061107892E+03  0.66887982183E+02  0.18919718082E+03  0.00000000000E+00 0. -1.
        -13    1    3    3    0    0 -0.76856061555E+03  0.11585848816E+04  0.24540791382E+03  0.14118177615E+04  0.00000000000E+00 0.  1.
          4    1    6    6  502    0  0.21499054934E+03 -0.88519599868E+03  0.72388374018E+03  0.11635293557E+04  0.00000000000E+00 0. -1.
          3    1    5    5  503    0  0.57143507045E+03 -0.14385230161E+03  0.11543211435E+04  0.12960280964E+04  0.00000000000E+00 0. -1.
         -4    1    5    5    0  503  0.24211416446E+02 -0.11824272279E+02  0.25777004785E+02  0.37288873366E+02  0.00000000000E+00 0.  1.
         -3    1    6    6    0  502  0.50863742725E+02 -0.26832338795E+03  0.27290567108E+03  0.38608556843E+03  0.00000000000E+00 0.  1.
<mgrwt>
<rscale>  0 0.37295770E+04</rscale>
<asrwt>0</asrwt>
<pdfrwt beam="1">  1        1 0.53639463E+00 0.37295770E+04</pdfrwt>
<pdfrwt beam="2">  1       -1 0.15344334E+00 0.37295770E+04</pdfrwt>
<totfact> 0.67126867E-02</totfact>
</mgrwt>
</event>
<event>
12    1  0.1397649E-007  0.1591194E+04  0.7818608E-02  0.8825976E-01
         -1   -1    0    0    0  501 -0.00000000000E+00  0.00000000000E+00  0.63775511959E+03  0.63775511959E+03  0.00000000000E+00 0.  1.
          1   -1    0    0  501    0  0.00000000000E+00 -0.00000000000E+00 -0.99250397236E+03  0.99250397236E+03  0.00000000000E+00 0. -1.
         23    2    1    2    0    0  0.86843668701E+02 -0.12470083503E+03  0.40047607091E+03  0.43789745806E+03  0.90999886543E+02 0.  0.
        254    2    1    2    0    0 -0.86843668701E+02  0.12470083503E+03 -0.75522492369E+03  0.11923616339E+04  0.91009310489E+03 0.  0.
        -24    2    4    4    0    0  0.18732490377E+03 -0.20401847585E+03  0.34862371239E+02  0.29027825300E+03  0.79573369759E+02 0.  0.
         24    2    4    4    0    0 -0.27416857247E+03  0.32871931088E+03 -0.79008729492E+03  0.90208338089E+03  0.79320243318E+02 0.  0.
         11    1    3    3    0    0  0.65248651127E+01 -0.36717003826E+01  0.13560585686E+03  0.13581238405E+03  0.00000000000E+00 0. -1.
        -11    1    3    3    0    0  0.80318803589E+02 -0.12102913465E+03  0.26487021406E+03  0.30208507401E+03  0.00000000000E+00 0.  1.
          2    1    6    6  502    0 -0.25778070450E+03  0.27157299982E+03 -0.65454873849E+03  0.75408012631E+03  0.00000000000E+00 0. -1.
          1    1    5    5  503    0  0.11590331446E+03 -0.11770979803E+03  0.59482156504E+02  0.17557705373E+03  0.00000000000E+00 0. -1.
         -4    1    5    5    0  503  0.71421589313E+02 -0.86308677821E+02 -0.24619785264E+02  0.11470119927E+03  0.00000000000E+00 0.  1.
         -1    1    6    6    0  502 -0.16387867970E+02  0.57146311058E+02 -0.13553855644E+03  0.14800325458E+03  0.00000000000E+00 0.  1.
<mgrwt>
<rscale>  0 0.15911939E+04</rscale>
<asrwt>0</asrwt>
<pdfrwt beam="1">  1        1 0.15269292E+00 0.15911939E+04</pdfrwt>
<pdfrwt beam="2">  1       -1 0.98116173E-01 0.15911939E+04</pdfrwt>
<totfact> 0.14662768E+01</totfact>
</mgrwt>
</event>
<event>
12    1  0.1397649E-007  0.2259426E+04  0.7818608E-02  0.8494093E-01
          1   -1    0    0  501    0  0.00000000000E+00  0.00000000000E+00  0.18812795947E+04  0.18812795947E+04  0.00000000000E+00 0. -1.
         -1   -1    0    0    0  501 -0.00000000000E+00 -0.00000000000E+00 -0.67839542029E+03  0.67839542029E+03  0.00000000000E+00 0.  1.
         23    2    1    2    0    0  0.35726744179E+03 -0.54056242062E+03  0.13088527162E+04  0.14632551996E+04  0.90402382698E+02 0.  0.
        254    2    1    2    0    0 -0.35726744179E+03  0.54056242062E+03 -0.10596854177E+03  0.10964198154E+04  0.87809983732E+03 0.  0.
        -24    2    4    4    0    0 -0.29299883653E+03  0.45634479620E+03  0.32982041922E+03  0.64078122072E+03  0.87864513150E+02 0.  0.
         24    2    4    4    0    0 -0.64268605268E+02  0.84217624421E+02 -0.43578896099E+03  0.45563859472E+03  0.80445314331E+02 0.  0.
         11    1    3    3    0    0  0.26994185954E+03 -0.44017859734E+03  0.11068810686E+04  0.12213973576E+04  0.00000000000E+00 0. -1.
        -11    1    3    3    0    0  0.87325582253E+02 -0.10038382328E+03  0.20197164757E+03  0.24185784196E+03  0.00000000000E+00 0.  1.
          2    1    6    6  502    0  0.38489788922E+01  0.26658931229E+02 -0.30663547853E+02  0.40813801829E+02  0.00000000000E+00 0. -1.
          3    1    5    5  503    0 -0.17946959339E+03  0.19877196193E+03  0.16668113833E+03  0.31543974017E+03  0.00000000000E+00 0. -1.
         -4    1    5    5    0  503 -0.11352924313E+03  0.25757283427E+03  0.16313928090E+03  0.32534148055E+03  0.00000000000E+00 0.  1.
         -1    1    6    6    0  502 -0.68117584160E+02  0.57558693192E+02 -0.40512541313E+03  0.41482479290E+03  0.00000000000E+00 0.  1.
<mgrwt>
<rscale>  0 0.22594260E+04</rscale>
<asrwt>0</asrwt>
<pdfrwt beam="1">  1        1 0.28942763E+00 0.22594260E+04</pdfrwt>
<pdfrwt beam="2">  1       -1 0.10436853E+00 0.22594260E+04</pdfrwt>
<totfact> 0.28091949E+00</totfact>
</mgrwt>
</event>
<event>
12    1  0.1397649E-007  0.1310123E+04  0.7818608E-02  0.9021576E-01
          4   -1    0    0  501    0  0.00000000000E+00  0.00000000000E+00  0.61848605977E+03  0.61848605977E+03  0.00000000000E+00 0. -1.
         -4   -1    0    0    0  501 -0.00000000000E+00 -0.00000000000E+00 -0.69379997384E+03  0.69379997384E+03  0.00000000000E+00 0.  1.
         23    2    1    2    0    0 -0.19092802830E+03 -0.16994398800E+03 -0.24347594282E+03  0.36608414631E+03  0.96966986147E+02 0.  0.
        254    2    1    2    0    0  0.19092802830E+03  0.16994398800E+03  0.16816202874E+03  0.94620188730E+03  0.89536867970E+03 0.  0.
        -24    2    4    4    0    0  0.19630333563E+03 -0.32067909232E+03 -0.76424213115E+02  0.39203735678E+03  0.80514277787E+02 0.  0.
         24    2    4    4    0    0 -0.53753073332E+01  0.49062308032E+03  0.24458624186E+03  0.55416453053E+03  0.80845508968E+02 0.  0.
         13    1    3    3    0    0 -0.49877338482E+02 -0.10053253341E+03 -0.13258228209E+03  0.17370262143E+03  0.00000000000E+00 0.  1.
        -13    1    3    3    0    0 -0.14105068981E+03 -0.69411454585E+02 -0.11089366073E+03  0.19238152488E+03  0.00000000000E+00 0. -1.
          4    1    6    6  502    0  0.14894542707E+02  0.44503302761E+02  0.44983997117E+02  0.65007317709E+02  0.00000000000E+00 0. -1.
          3    1    5    5  503    0  0.46279233529E+02 -0.47725767221E+02 -0.42094078763E+02  0.78685626259E+02  0.00000000000E+00 0. -1.
         -4    1    5    5    0  503  0.15002410210E+03 -0.27295332510E+03 -0.34330134352E+02  0.31335173052E+03  0.00000000000E+00 0.  1.
         -3    1    6    6    0  502 -0.20269850040E+02  0.44611977755E+03  0.19960224474E+03  0.48915721282E+03  0.00000000000E+00 0.  1.
<mgrwt>
<rscale>  0 0.13101231E+04</rscale>
<asrwt>0</asrwt>
<pdfrwt beam="1">  1        4 0.95151702E-01 0.13101231E+04</pdfrwt>
<pdfrwt beam="2">  1       -4 0.10673846E+00 0.13101231E+04</pdfrwt>
<totfact> 0.12819080E+00</totfact>
</mgrwt>
</event>
<event>
12    1  0.1397649E-007  0.1464151E+04  0.7818608E-02  0.8908649E-01
         -1   -1    0    0    0  501 -0.00000000000E+00  0.00000000000E+00  0.12444183016E+04  0.12444183016E+04  0.00000000000E+00 0.  1.
          1   -1    0    0  501    0  0.00000000000E+00 -0.00000000000E+00 -0.43067050310E+03  0.43067050310E+03  0.00000000000E+00 0. -1.
         23    2    1    2    0    0 -0.99488434929E+02  0.41779663823E+03  0.41217153835E+03  0.60217056900E+03  0.90950742344E+02 0.  0.
        254    2    1    2    0    0  0.99488434929E+02 -0.41779663823E+03  0.40157626010E+03  0.10729182357E+04  0.89746201486E+03 0.  0.
        -24    2    4    4    0    0  0.33061240958E+03  0.12768850896E+03  0.22581680737E+02  0.36391990101E+03  0.79491140153E+02 0.  0.
         24    2    4    4    0    0 -0.23112397465E+03 -0.54548514719E+03  0.37899457937E+03  0.70899833464E+03  0.89829894099E+02 0.  0.
         11    1    3    3    0    0 -0.80797582241E+02  0.31002511035E+03  0.35694457603E+03  0.47963866473E+03  0.00000000000E+00 0.  1.
        -11    1    3    3    0    0 -0.18690852689E+02  0.10777152788E+03  0.55226962323E+02  0.12253190427E+03  0.00000000000E+00 0. -1.
          4    1    6    6  502    0 -0.74994451826E+02 -0.19149402985E+03  0.82606408066E+02  0.22162569781E+03  0.00000000000E+00 0. -1.
          1    1    5    5  503    0  0.90391676956E+02  0.11763287209E+02 -0.21288167136E+02  0.93606710491E+02  0.00000000000E+00 0. -1.
         -2    1    5    5    0  503  0.24022073262E+03  0.11592522175E+03  0.43869847873E+02  0.27031319052E+03  0.00000000000E+00 0.  1.
         -3    1    6    6    0  502 -0.15612952282E+03 -0.35399111733E+03  0.29638817130E+03  0.48737263684E+03  0.00000000000E+00 0.  1.
<mgrwt>
<rscale>  0 0.14641506E+04</rscale>
<asrwt>0</asrwt>
<pdfrwt beam="1">  1        1 0.66257001E-01 0.14641506E+04</pdfrwt>
<pdfrwt beam="2">  1       -1 0.19144897E+00 0.14641506E+04</pdfrwt>
<totfact> 0.90975865E+00</totfact>
</mgrwt>
</event>
<event>
12    1  0.1397649E-007  0.1459964E+04  0.7818608E-02  0.8911522E-01
         -2   -1    0    0    0  501 -0.00000000000E+00  0.00000000000E+00  0.37878282026E+03  0.37878282026E+03  0.00000000000E+00 0. -1.
          2   -1    0    0  501    0  0.00000000000E+00 -0.00000000000E+00 -0.14068050593E+04  0.14068050593E+04  0.00000000000E+00 0.  1.
         23    2    1    2    0    0 -0.38917941621E+03 -0.11094474360E+03 -0.55459792945E+03  0.69275968110E+03  0.92562185943E+02 0.  0.
        254    2    1    2    0    0  0.38917941621E+03  0.11094474360E+03 -0.47342430963E+03  0.10928281985E+04  0.89798304013E+03 0.  0.
        -24    2    4    4    0    0  0.18217161475E+03  0.33017733980E+02 -0.72252997108E+03  0.75015003448E+03  0.79992794364E+02 0.  0.
         24    2    4    4    0    0  0.20700780146E+03  0.77927009623E+02  0.24910566145E+03  0.34267816402E+03  0.80310925991E+02 0.  0.
         11    1    3    3    0    0 -0.25157514478E+03 -0.82158633984E+02 -0.28643437974E+03  0.38998044631E+03  0.00000000000E+00 0.  1.
        -11    1    3    3    0    0 -0.13760427143E+03 -0.28786109619E+02 -0.26816354971E+03  0.30277923478E+03  0.00000000000E+00 0. -1.
          2    1    6    6  502    0  0.16722258669E+03  0.89909286572E+02  0.17760891390E+03  0.25998461417E+03  0.00000000000E+00 0. -1.
          1    1    5    5  503    0  0.32476325906E+02 -0.12005885517E+02 -0.25117555341E+03  0.25355080686E+03  0.00000000000E+00 0. -1.
         -2    1    5    5    0  503  0.14969528884E+03  0.45023619497E+02 -0.47135441767E+03  0.49659922762E+03  0.00000000000E+00 0.  1.
         -1    1    6    6    0  502  0.39785214774E+02 -0.11982276949E+02  0.71496747554E+02  0.82693549847E+02  0.00000000000E+00 0.  1.
<mgrwt>
<rscale>  0 0.14599638E+04</rscale>
<asrwt>0</asrwt>
<pdfrwt beam="1">  1        2 0.21643155E+00 0.14599638E+04</pdfrwt>
<pdfrwt beam="2">  1       -2 0.58274280E-01 0.14599638E+04</pdfrwt>
<totfact> 0.38276667E+01</totfact>
</mgrwt>
</event>
<event>
12    1  0.1397649E-007  0.1239436E+04  0.7818608E-02  0.9079022E-01
          1   -1    0    0  501    0  0.00000000000E+00  0.00000000000E+00  0.96577198533E+03  0.96577198533E+03  0.00000000000E+00 0. -1.
         -1   -1    0    0    0  501 -0.00000000000E+00 -0.00000000000E+00 -0.39766149397E+03  0.39766149397E+03  0.00000000000E+00 0.  1.
         23    2    1    2    0    0  0.14945689448E+03 -0.11107389303E+02  0.39137579315E+03  0.42906464923E+03  0.91982195825E+02 0.  0.
        254    2    1    2    0    0 -0.14945689448E+03  0.11107389303E+02  0.17673469820E+03  0.93436883007E+03  0.90517910916E+03 0.  0.
        -24    2    4    4    0    0  0.35412679171E+03  0.64304541749E+02  0.20364351072E+03  0.42178601750E+03  0.83017506627E+02 0.  0.
         24    2    4    4    0    0 -0.50358368619E+03 -0.53197152446E+02 -0.26908812519E+02  0.51258281257E+03  0.74770244916E+02 0.  0.
         13    1    3    3    0    0  0.89553925515E+02  0.38298052056E+02  0.19729178766E+03  0.22002430739E+03  0.00000000000E+00 0. -1.
        -13    1    3    3    0    0  0.59902968965E+02 -0.49405441359E+02  0.19408400549E+03  0.20904034184E+03  0.00000000000E+00 0.  1.
          2    1    6    6  502    0 -0.43728514159E+03 -0.35689001918E+02 -0.46686888836E+02  0.44121612108E+03  0.00000000000E+00 0. -1.
          3    1    5    5  503    0  0.23575262024E+03  0.57594288703E+01  0.11218177860E+03  0.26114597531E+03  0.00000000000E+00 0. -1.
         -4    1    5    5    0  503  0.11837417147E+03  0.58545112879E+02  0.91461732121E+02  0.16064004219E+03  0.00000000000E+00 0.  1.
         -1    1    6    6    0  502 -0.66298544601E+02 -0.17508150529E+02  0.19778076318E+02  0.71366691488E+02  0.00000000000E+00 0.  1.
<mgrwt>
<rscale>  0 0.12394359E+04</rscale>
<asrwt>0</asrwt>
<pdfrwt beam="1">  1        1 0.14858031E+00 0.12394359E+04</pdfrwt>
<pdfrwt beam="2">  1       -1 0.61178692E-01 0.12394359E+04</pdfrwt>
<totfact> 0.43061779E+01</totfact>
</mgrwt>
</event>
<event>
12    1  0.1397649E-007  0.2045277E+04  0.7818608E-02  0.8585740E-01
          1   -1    0    0  501    0  0.00000000000E+00  0.00000000000E+00  0.15967404077E+04  0.15967404077E+04  0.00000000000E+00 0. -1.
         -1   -1    0    0    0  501 -0.00000000000E+00 -0.00000000000E+00 -0.65495285251E+03  0.65495285251E+03  0.00000000000E+00 0.  1.
         23    2    1    2    0    0  0.30982950654E+03 -0.15086018704E+03 -0.43940986341E+03  0.56567870360E+03  0.90323023043E+02 0.  0.
        254    2    1    2    0    0 -0.30982950654E+03  0.15086018704E+03  0.13811974186E+04  0.16860145566E+04  0.90342994016E+03 0.  0.
        -24    2    4    4    0    0  0.97288891875E+02 -0.24159030485E+03  0.89950874833E+03  0.93981676227E+03  0.79426408962E+02 0.  0.
         24    2    4    4    0    0 -0.40711839842E+03  0.39245049188E+03  0.48168867032E+03  0.74619779438E+03  0.70882962060E+02 0.  0.
         13    1    3    3    0    0  0.13112376604E+03 -0.47604837699E+02 -0.24614948419E+03  0.28292972831E+03  0.00000000000E+00 0.  1.
        -13    1    3    3    0    0  0.17870574050E+03 -0.10325534934E+03 -0.19326037922E+03  0.28274897529E+03  0.00000000000E+00 0. -1.
          4    1    6    6  502    0 -0.93749364822E+02  0.11789984887E+03  0.97205198746E+02  0.17927121473E+03  0.00000000000E+00 0. -1.
          1    1    5    5  503    0  0.26918814255E+02 -0.76950416241E+01  0.97301395447E+02  0.10124918658E+03  0.00000000000E+00 0. -1.
         -2    1    5    5    0  503  0.70370077619E+02 -0.23389526322E+03  0.80220735288E+03  0.83856757569E+03  0.00000000000E+00 0.  1.
         -3    1    6    6    0  502 -0.31336903360E+03  0.27455064301E+03  0.38448347157E+03  0.56692657964E+03  0.00000000000E+00 0.  1.
<mgrwt>
<rscale>  0 0.20452772E+04</rscale>
<asrwt>0</asrwt>
<pdfrwt beam="1">  1        1 0.24565237E+00 0.20452772E+04</pdfrwt>
<pdfrwt beam="2">  1       -1 0.10076198E+00 0.20452772E+04</pdfrwt>
<totfact> 0.48542241E+00</totfact>
</mgrwt>
</event>
<event>
12    1  0.1397649E-007  0.1168046E+04  0.7818608E-02  0.9141295E-01
         -2   -1    0    0    0  501 -0.00000000000E+00  0.00000000000E+00  0.10634919147E+04  0.10634919147E+04  0.00000000000E+00 0.  1.
          2   -1    0    0  501    0  0.00000000000E+00 -0.00000000000E+00 -0.32071961722E+03  0.32071961722E+03  0.00000000000E+00 0. -1.
         23    2    1    2    0    0  0.17571406320E+03 -0.25180584177E+02  0.13583133749E+03  0.24259270472E+03  0.94295144690E+02 0.  0.
        254    2    1    2    0    0 -0.17571406320E+03  0.25180584177E+02  0.60694095996E+03  0.11416188272E+04  0.95047710327E+03 0.  0.
        -24    2    4    4    0    0  0.13217292991E+03 -0.33952336245E+03  0.53523249469E+03  0.65250568653E+03  0.80895306030E+02 0.  0.
         24    2    4    4    0    0 -0.30788699311E+03  0.36470394663E+03  0.71708465274E+02  0.48911314064E+03  0.79285503992E+02 0.  0.
         11    1    3    3    0    0  0.54911506185E+02 -0.25081943091E+01 -0.55561608803E+01  0.55248850430E+02  0.00000000000E+00 0.  1.
        -11    1    3    3    0    0  0.12080255702E+03 -0.22672389868E+02  0.14138749837E+03  0.18734385429E+03  0.00000000000E+00 0. -1.
          4    1    6    6  502    0 -0.24467573092E+03  0.24053973292E+03  0.67701215817E+02  0.34972708079E+03  0.00000000000E+00 0. -1.
          1    1    5    5  503    0  0.10233213740E+03 -0.18605233505E+03  0.25716039219E+03  0.33349483509E+03  0.00000000000E+00 0. -1.
         -2    1    5    5    0  503  0.29840792513E+02 -0.15347102739E+03  0.27807210250E+03  0.31901085144E+03  0.00000000000E+00 0.  1.
         -1    1    6    6    0  502 -0.63211262197E+02  0.12416421370E+03  0.40072494569E+01  0.13938605985E+03  0.00000000000E+00 0.  1.
<mgrwt>
<rscale>  0 0.11680458E+04</rscale>
<asrwt>0</asrwt>
<pdfrwt beam="1">  1        2 0.49341480E-01 0.11680458E+04</pdfrwt>
<pdfrwt beam="2">  1       -2 0.16361414E+00 0.11680458E+04</pdfrwt>
<totfact> 0.23846165E+01</totfact>
</mgrwt>
</event>
<event>
12    1  0.1397649E-007  0.2797174E+04  0.7818608E-02  0.8304146E-01
         -2   -1    0    0    0  501 -0.00000000000E+00  0.00000000000E+00  0.81076418121E+03  0.81076418121E+03  0.00000000000E+00 0.  1.
          2   -1    0    0  501    0  0.00000000000E+00 -0.00000000000E+00 -0.24125948082E+04  0.24125948082E+04  0.00000000000E+00 0. -1.
         23    2    1    2    0    0 -0.10527996034E+03 -0.95174987516E+03 -0.16603530608E+04  0.19188268071E+04  0.90621929005E+02 0.  0.
        254    2    1    2    0    0  0.10527996034E+03  0.95174987516E+03  0.58522433814E+02  0.13045321824E+04  0.88400658632E+03 0.  0.
        -24    2    4    4    0    0  0.25029384495E+03  0.70671723162E+03  0.39942106968E+03  0.85324545046E+03  0.79964701810E+02 0.  0.
         24    2    4    4    0    0 -0.14501388461E+03  0.24503264353E+03 -0.34089863587E+03  0.45128673190E+03  0.79861200395E+02 0.  0.
         11    1    3    3    0    0 -0.42521444032E+02 -0.66536424253E+03 -0.12079280319E+04  0.13797129334E+04  0.00000000000E+00 0. -1.
        -11    1    3    3    0    0 -0.62758516308E+02 -0.28638563263E+03 -0.45242502895E+03  0.53911387365E+03  0.00000000000E+00 0.  1.
          4    1    6    6  502    0  0.74923162362E+01  0.64159057698E+00 -0.67377174684E+01  0.10096696377E+02  0.00000000000E+00 0. -1.
          3    1    5    5  503    0  0.95018195826E+02  0.30760486269E+03  0.12943460540E+03  0.34699067158E+03  0.00000000000E+00 0. -1.
         -4    1    5    5    0  503  0.15527564912E+03  0.39911236894E+03  0.26998646428E+03  0.50625477888E+03  0.00000000000E+00 0.  1.
         -3    1    6    6    0  502 -0.15250620084E+03  0.24439105296E+03 -0.33416091840E+03  0.44119003553E+03  0.00000000000E+00 0.  1.
<mgrwt>
<rscale>  0 0.27971739E+04</rscale>
<asrwt>0</asrwt>
<pdfrwt beam="1">  1        2 0.37116843E+00 0.27971739E+04</pdfrwt>
<pdfrwt beam="2">  1       -2 0.12473295E+00 0.27971739E+04</pdfrwt>
<totfact> 0.16401625E+00</totfact>
</mgrwt>
</event>
<event>
12    1  0.1397649E-007  0.1748809E+04  0.7818608E-02  0.8734006E-01
         -1   -1    0    0    0  501 -0.00000000000E+00  0.00000000000E+00  0.54567846903E+03  0.54567846903E+03  0.00000000000E+00 0.  1.
          1   -1    0    0  501    0  0.00000000000E+00 -0.00000000000E+00 -0.14011600237E+04  0.14011600237E+04  0.00000000000E+00 0. -1.
         23    2    1    2    0    0  0.49575265789E+03 -0.38883416891E+03 -0.20200051810E+03  0.66768250637E+03  0.89627067838E+02 0.  0.
        254    2    1    2    0    0 -0.49575265789E+03  0.38883416891E+03 -0.65348103662E+03  0.12791559864E+04  0.90124350961E+03 0.  0.
        -24    2    4    4    0    0 -0.63966471140E+03  0.51021374437E+03 -0.69071028957E+03  0.10737528814E+04  0.79846967465E+02 0.  0.
         24    2    4    4    0    0  0.14391205351E+03 -0.12137957545E+03  0.37229252951E+02  0.20540310502E+03  0.73217059432E+02 0.  0.
         11    1    3    3    0    0  0.24363288631E+03 -0.22003467374E+03 -0.14536903600E+03  0.35903258566E+03  0.00000000000E+00 0.  1.
        -11    1    3    3    0    0  0.25211977157E+03 -0.16879949517E+03 -0.56631482097E+02  0.30864992071E+03  0.00000000000E+00 0. -1.
          4    1    6    6  502    0  0.16778807138E+02 -0.56991104784E+02  0.82835253302E+01  0.59984424523E+02  0.00000000000E+00 0. -1.
          1    1    5    5  503    0 -0.36486428337E+02  0.51053007951E+02 -0.69835913615E+02  0.93886761069E+02  0.00000000000E+00 0. -1.
         -2    1    5    5    0  503 -0.60317828307E+03  0.45916073641E+03 -0.62087437596E+03  0.97986612032E+03  0.00000000000E+00 0.  1.
         -1    1    6    6    0  502  0.12713324638E+03 -0.64388470668E+02  0.28945727621E+02  0.14541868049E+03  0.00000000000E+00 0.  1.
<mgrwt>
<rscale>  0 0.17488086E+04</rscale>
<asrwt>0</asrwt>
<pdfrwt beam="1">  1        1 0.21556308E+00 0.17488086E+04</pdfrwt>
<pdfrwt beam="2">  1       -1 0.83950535E-01 0.17488086E+04</pdfrwt>
<totfact> 0.10221418E+01</totfact>
</mgrwt>
</event>
<event>
12    1  0.1397649E-007  0.1527213E+04  0.7818608E-02  0.8866556E-01
          1   -1    0    0  501    0  0.00000000000E+00  0.00000000000E+00  0.25842231302E+04  0.25842231302E+04  0.00000000000E+00 0. -1.
         -1   -1    0    0    0  501 -0.00000000000E+00 -0.00000000000E+00 -0.22563635591E+03  0.22563635591E+03  0.00000000000E+00 0.  1.
         23    2    1    2    0    0  0.68843283322E+02 -0.13866461654E+03 -0.85296379668E+02  0.19955402210E+03  0.92623225030E+02 0.  0.
        254    2    1    2    0    0 -0.68843283322E+02  0.13866461654E+03  0.24438831539E+04  0.26103054640E+04  0.90397039313E+03 0.  0.
        -24    2    4    4    0    0 -0.14724685144E+03  0.34775450286E+03  0.23017852821E+04  0.23339048306E+04  0.79255561450E+02 0.  0.
         24    2    4    4    0    0  0.78403568122E+02 -0.20908988633E+03  0.14209787184E+03  0.27640063335E+03  0.79622891670E+02 0.  0.
         11    1    3    3    0    0 -0.12810483768E+02 -0.12621142850E+02  0.11066936834E+02  0.21115843154E+02  0.00000000000E+00 0. -1.
        -11    1    3    3    0    0  0.81653767090E+02 -0.12604347369E+03 -0.96363316502E+02  0.17843817895E+03  0.00000000000E+00 0.  1.
          4    1    6    6  502    0  0.71875977506E+02 -0.80619539470E+02  0.56558969285E+02  0.12192039736E+03  0.00000000000E+00 0. -1.
          3    1    5    5  503    0 -0.16244887269E+02  0.12038049692E+03  0.62260286267E+03  0.63434193067E+03  0.00000000000E+00 0. -1.
         -4    1    5    5    0  503 -0.13100196417E+03  0.22737400595E+03  0.16791824194E+04  0.16995628999E+04  0.00000000000E+00 0.  1.
         -1    1    6    6    0  502  0.65275906160E+01 -0.12847034686E+03  0.85538902555E+02  0.15448023599E+03  0.00000000000E+00 0.  1.
<mgrwt>
<rscale>  0 0.15272127E+04</rscale>
<asrwt>0</asrwt>
<pdfrwt beam="1">  1        1 0.39757277E+00 0.15272127E+04</pdfrwt>
<pdfrwt beam="2">  1       -1 0.34713287E-01 0.15272127E+04</pdfrwt>
<totfact> 0.90225254E+00</totfact>
</mgrwt>
</event>
<event>
12    1  0.1397649E-007  0.2442537E+04  0.7818608E-02  0.8423748E-01
         -2   -1    0    0    0  501 -0.00000000000E+00  0.00000000000E+00  0.62518523124E+03  0.62518523124E+03  0.00000000000E+00 0. -1.
          2   -1    0    0  501    0  0.00000000000E+00 -0.00000000000E+00 -0.23856886031E+04  0.23856886031E+04  0.00000000000E+00 0.  1.
         23    2    1    2    0    0 -0.10008365266E+04  0.19490236236E+03 -0.11911213727E+04  0.15714814522E+04  0.10546632802E+03 0.  0.
        254    2    1    2    0    0  0.10008365266E+04 -0.19490236236E+03 -0.56938199914E+03  0.14393923821E+04  0.84142372495E+03 0.  0.
        -24    2    4    4    0    0  0.12479241129E+03 -0.52096954409E+02 -0.52410396015E+03  0.54708667106E+03  0.79571515267E+02 0.  0.
         24    2    4    4    0    0  0.87604411531E+03 -0.14280540796E+03 -0.45278038999E+02  0.89230571104E+03  0.79452530748E+02 0.  0.
         13    1    3    3    0    0 -0.80421930055E+03  0.16483946742E+03 -0.10181573738E+04  0.13078934097E+04  0.00000000000E+00 0.  1.
        -13    1    3    3    0    0 -0.19661722604E+03  0.30062894945E+02 -0.17296399895E+03  0.26358804253E+03  0.00000000000E+00 0. -1.
          4    1    6    6  502    0  0.62597526171E+03 -0.12160189616E+03 -0.62600406586E+02  0.64074242901E+03  0.00000000000E+00 0. -1.
          3    1    5    5  503    0  0.13177566436E+03 -0.52548705314E+02 -0.51993279943E+03  0.53893998560E+03  0.00000000000E+00 0. -1.
         -4    1    5    5    0  503 -0.69832530761E+01  0.45175090513E+00 -0.41711607114E+01  0.81466854662E+01  0.00000000000E+00 0.  1.
         -3    1    6    6    0  502  0.25006885359E+03 -0.21203511796E+02  0.17322367588E+02  0.25156328204E+03  0.00000000000E+00 0.  1.
<mgrwt>
<rscale>  0 0.24425374E+04</rscale>
<asrwt>0</asrwt>
<pdfrwt beam="1">  1        2 0.36702901E+00 0.24425374E+04</pdfrwt>
<pdfrwt beam="2">  1       -2 0.96182345E-01 0.24425374E+04</pdfrwt>
<totfact> 0.32863691E+00</totfact>
</mgrwt>
</event>
<event>
12    1  0.2000358E-007  0.1794930E+04  0.7818608E-02  0.8709000E-01
         -1   -1    0    0    0  501 -0.00000000000E+00  0.00000000000E+00  0.82170782599E+03  0.82170782599E+03  0.00000000000E+00 0.  1.
          1   -1    0    0  501    0  0.00000000000E+00 -0.00000000000E+00 -0.98020631588E+03  0.98020631588E+03  0.00000000000E+00 0. -1.
         23    2    1    2    0    0 -0.51630175620E+03 -0.28570896426E+03 -0.37968520487E+03  0.70861276746E+03  0.98863965638E+02 0.  0.
        254    2    1    2    0    0  0.51630175620E+03  0.28570896426E+03  0.22118671499E+03  0.10933013744E+04  0.89341323959E+03 0.  0.
        -24    2    4    4    0    0  0.38697713008E+03 -0.11769588174E+03 -0.22762360680E+03  0.47087652699E+03  0.79426554184E+02 0.  0.
         24    2    4    4    0    0  0.12932462612E+03  0.40340484601E+03  0.44881032179E+03  0.62242484741E+03  0.80756776986E+02 0.  0.
         13    1    3    3    0    0 -0.39660418549E+02 -0.19943587223E+02 -0.10648422176E+01  0.44405285268E+02  0.00000000000E+00 0.  1.
        -13    1    3    3    0    0 -0.47664133765E+03 -0.26576537704E+03 -0.37862036266E+03  0.66420748220E+03  0.00000000000E+00 0. -1.
          4    1    6    6  502    0  0.11214233954E+03  0.32901240250E+03  0.40750571485E+03  0.53561737551E+03  0.00000000000E+00 0. -1.
          3    1    5    5  503    0  0.38407907562E+03 -0.11082400321E+03 -0.20958848426E+03  0.45136019845E+03  0.00000000000E+00 0. -1.
         -4    1    5    5    0  503  0.28980544625E+01 -0.68718785321E+01 -0.18035122544E+02  0.19516328533E+02  0.00000000000E+00 0.  1.
         -3    1    6    6    0  502  0.17182286574E+02  0.74392443511E+02  0.41304606941E+02  0.86807471902E+02  0.00000000000E+00 0.  1.
<mgrwt>
<rscale>  0 0.17949297E+04</rscale>
<asrwt>0</asrwt>
<pdfrwt beam="1">  1        1 0.15080097E+00 0.17949297E+04</pdfrwt>
<pdfrwt beam="2">  1       -1 0.12641659E+00 0.17949297E+04</pdfrwt>
<totfact> 0.80567110E+00</totfact>
</mgrwt>
</event>
<event>
12    1  0.1397649E-007  0.2022050E+04  0.7818608E-02  0.8596380E-01
          1   -1    0    0  501    0  0.00000000000E+00  0.00000000000E+00  0.76177224122E+03  0.76177224122E+03  0.00000000000E+00 0. -1.
         -1   -1    0    0    0  501 -0.00000000000E+00 -0.00000000000E+00 -0.13418335397E+04  0.13418335397E+04  0.00000000000E+00 0.  1.
         23    2    1    2    0    0  0.79500439248E+03 -0.11307913709E+03 -0.20873764495E+03  0.83464497935E+03  0.90785251146E+02 0.  0.
        254    2    1    2    0    0 -0.79500439248E+03  0.11307913709E+03 -0.37132365356E+03  0.12689608016E+04  0.90970400955E+03 0.  0.
        -24    2    4    4    0    0 -0.20912100862E+03 -0.23694483309E+02 -0.58409780982E+03  0.62542861133E+03  0.75482922877E+02 0.  0.
         24    2    4    4    0    0 -0.58588338386E+03  0.13677362040E+03  0.21277415627E+03  0.64353219026E+03  0.83032979063E+02 0.  0.
         11    1    3    3    0    0  0.15233959845E+02  0.26760599243E+01 -0.17712049025E+02  0.23514921007E+02  0.00000000000E+00 0.  1.
        -11    1    3    3    0    0  0.77977043264E+03 -0.11575519702E+03 -0.19102559592E+03  0.81113005834E+03  0.00000000000E+00 0. -1.
          4    1    6    6  502    0 -0.29680138404E+03  0.53273640499E+02  0.14726820624E+03  0.33558466429E+03  0.00000000000E+00 0. -1.
          3    1    5    5  503    0  0.29292817028E+01 -0.10405405215E+02 -0.36117476338E+02  0.37700467450E+02  0.00000000000E+00 0. -1.
         -4    1    5    5    0  503 -0.21205029033E+03 -0.13289078094E+02 -0.54798033349E+03  0.58772814388E+03  0.00000000000E+00 0.  1.
         -3    1    6    6    0  502 -0.28908199982E+03  0.83499979902E+02  0.65505950030E+02  0.30794752597E+03  0.00000000000E+00 0.  1.
<mgrwt>
<rscale>  0 0.20220500E+04</rscale>
<asrwt>0</asrwt>
<pdfrwt beam="1">  1        1 0.11719573E+00 0.20220500E+04</pdfrwt>
<pdfrwt beam="2">  1       -1 0.20643593E+00 0.20220500E+04</pdfrwt>
<totfact> 0.30081163E+00</totfact>
</mgrwt>
</event>
<event>
12    1  0.1397649E-007  0.2352657E+04  0.7818608E-02  0.8457444E-01
         -1   -1    0    0    0  501 -0.00000000000E+00  0.00000000000E+00  0.84432339947E+03  0.84432339947E+03  0.00000000000E+00 0.  1.
          1   -1    0    0  501    0  0.00000000000E+00 -0.00000000000E+00 -0.16388843446E+04  0.16388843446E+04  0.00000000000E+00 0. -1.
         23    2    1    2    0    0 -0.50238699862E+03 -0.50558272279E+03 -0.10932625935E+04  0.13082320495E+04  0.90782218230E+02 0.  0.
        254    2    1    2    0    0  0.50238699862E+03  0.50558272279E+03  0.29870164829E+03  0.11749756946E+04  0.88506419104E+03 0.  0.
        -24    2    4    4    0    0  0.10260761105E+02  0.29827620530E+03  0.50923865444E+03  0.59544535362E+03  0.78467726543E+02 0.  0.
         24    2    4    4    0    0  0.49212623752E+03  0.20730651749E+03 -0.21053700615E+03  0.57953034098E+03  0.79783201988E+02 0.  0.
         11    1    3    3    0    0 -0.33779567729E+03 -0.32132547827E+03 -0.63715854962E+03  0.78951060786E+03  0.00000000000E+00 0. -1.
        -11    1    3    3    0    0 -0.16459132133E+03 -0.18425724452E+03 -0.45610404384E+03  0.51872144165E+03  0.00000000000E+00 0.  1.
          2    1    6    6  502    0  0.41382499196E+03  0.15852554361E+03 -0.14463241078E+03  0.46615448747E+03  0.00000000000E+00 0. -1.
          3    1    5    5  503    0 -0.20954268942E+02  0.24844660166E+03  0.42447030732E+03  0.49228024240E+03  0.00000000000E+00 0. -1.
         -4    1    5    5    0  503  0.31215030047E+02  0.49829603638E+02  0.84768347119E+02  0.10316511122E+03  0.00000000000E+00 0.  1.
         -1    1    6    6    0  502  0.78301245559E+02  0.48780973880E+02 -0.65904595366E+02  0.11337585351E+03  0.00000000000E+00 0.  1.
<mgrwt>
<rscale>  0 0.23526567E+04</rscale>
<asrwt>0</asrwt>
<pdfrwt beam="1">  1        1 0.25213605E+00 0.23526567E+04</pdfrwt>
<pdfrwt beam="2">  1       -1 0.12989591E+00 0.23526567E+04</pdfrwt>
<totfact> 0.23993683E+00</totfact>
</mgrwt>
</event>
<event>
12    1  0.1397649E-007  0.1375216E+04  0.7818608E-02  0.8971957E-01
          1   -1    0    0  501    0  0.00000000000E+00  0.00000000000E+00  0.32579646237E+03  0.32579646237E+03  0.00000000000E+00 0. -1.
         -1   -1    0    0    0  501 -0.00000000000E+00 -0.00000000000E+00 -0.14512267691E+04  0.14512267691E+04  0.00000000000E+00 0.  1.
         23    2    1    2    0    0 -0.22872518978E+03 -0.27833403903E+03 -0.15018622885E+03  0.40128245995E+03  0.93202251103E+02 0.  0.
        254    2    1    2    0    0  0.22872518978E+03  0.27833403903E+03 -0.97524407792E+03  0.13757407716E+04  0.90098646454E+03 0.  0.
        -24    2    4    4    0    0  0.49337395703E+02  0.19104824705E+03 -0.11039605632E+04  0.11245977080E+04  0.84008739626E+02 0.  0.
         24    2    4    4    0    0  0.17938779407E+03  0.87285791985E+02  0.12871648531E+03  0.25114306357E+03  0.81890870325E+02 0.  0.
         11    1    3    3    0    0 -0.21283510599E+03 -0.27881202834E+03 -0.12674708052E+03  0.37296079138E+03  0.00000000000E+00 0. -1.
        -11    1    3    3    0    0 -0.15890083787E+02  0.47798930547E+00 -0.23439148328E+02  0.28321668575E+02  0.00000000000E+00 0.  1.
          2    1    6    6  502    0  0.72655022538E+02  0.42378146737E+02  0.90052558953E+01  0.84591691405E+02  0.00000000000E+00 0. -1.
          1    1    5    5  503    0 -0.22094675311E+02  0.71981439946E+02 -0.41744314058E+03  0.42417953509E+03  0.00000000000E+00 0. -1.
         -2    1    5    5    0  503  0.71432071015E+02  0.11906680710E+03 -0.68651742266E+03  0.70041817290E+03  0.00000000000E+00 0.  1.
         -1    1    6    6    0  502  0.10673277153E+03  0.44907645248E+02  0.11971122942E+03  0.16655137216E+03  0.00000000000E+00 0.  1.
<mgrwt>
<rscale>  0 0.13752157E+04</rscale>
<asrwt>0</asrwt>
<pdfrwt beam="1">  1        1 0.50122532E-01 0.13752157E+04</pdfrwt>
<pdfrwt beam="2">  1       -1 0.22326566E+00 0.13752157E+04</pdfrwt>
<totfact> 0.80483210E+00</totfact>
</mgrwt>
</event>
<event>
12    1  0.1397649E-007  0.1527166E+04  0.7818608E-02  0.8866586E-01
         -4   -1    0    0    0  501 -0.00000000000E+00  0.00000000000E+00  0.37899327681E+03  0.37899327681E+03  0.00000000000E+00 0. -1.
          4   -1    0    0  501    0  0.00000000000E+00 -0.00000000000E+00 -0.15384423461E+04  0.15384423461E+04  0.00000000000E+00 0.  1.
         23    2    1    2    0    0  0.33789958937E+03 -0.30573230876E+03 -0.12052374393E+03  0.48026619517E+03  0.92093801394E+02 0.  0.
        254    2    1    2    0    0 -0.33789958937E+03  0.30573230876E+03 -0.10389253254E+04  0.14371694277E+04  0.88229346323E+03 0.  0.
        -24    2    4    4    0    0 -0.70277222343E+02  0.39869955539E+03 -0.10642776475E+04  0.11414113288E+04  0.78947368205E+02 0.  0.
         24    2    4    4    0    0 -0.26762236703E+03 -0.92967246629E+02  0.25352322187E+02  0.29575809897E+03  0.81027603850E+02 0.  0.
         13    1    3    3    0    0  0.14275725033E+03 -0.19002630963E+03 -0.52275593939E+02  0.24335646405E+03  0.00000000000E+00 0. -1.
        -13    1    3    3    0    0  0.19514233905E+03 -0.11570599913E+03 -0.68248149996E+02  0.23690973112E+03  0.00000000000E+00 0.  1.
          4    1    6    6  502    0 -0.23683637672E+03 -0.96558074013E+02  0.75819596931E-01  0.25576343903E+03  0.00000000000E+00 0. -1.
          3    1    5    5  503    0  0.35193229601E+01  0.19803312986E+03 -0.48107384428E+03  0.52025142942E+03  0.00000000000E+00 0. -1.
         -4    1    5    5    0  503 -0.73796545303E+02  0.20066642553E+03 -0.58320380326E+03  0.62115989936E+03  0.00000000000E+00 0.  1.
         -3    1    6    6    0  502 -0.30785990307E+02  0.35908273840E+01  0.25276502590E+02  0.39994659939E+02  0.00000000000E+00 0.  1.
<mgrwt>
<rscale>  0 0.15271664E+04</rscale>
<asrwt>0</asrwt>
<pdfrwt beam="1">  1        4 0.23668344E+00 0.15271664E+04</pdfrwt>
<pdfrwt beam="2">  1       -4 0.58306657E-01 0.15271664E+04</pdfrwt>
<totfact> 0.41191783E-01</totfact>
</mgrwt>
</event>
<event>
12    1  0.1397649E-007  0.1602117E+04  0.7818608E-02  0.8819248E-01
         -1   -1    0    0    0  501 -0.00000000000E+00  0.00000000000E+00  0.66738341546E+03  0.66738341546E+03  0.00000000000E+00 0.  1.
          1   -1    0    0  501    0  0.00000000000E+00 -0.00000000000E+00 -0.96150888832E+03  0.96150888832E+03  0.00000000000E+00 0. -1.
         23    2    1    2    0    0 -0.50084430582E+03  0.20727978353E+02 -0.30473283242E+03  0.59422561397E+03  0.94695899480E+02 0.  0.
        254    2    1    2    0    0  0.50084430582E+03 -0.20727978353E+02  0.10607359559E+02  0.10346666898E+04  0.90506793953E+03 0.  0.
        -24    2    4    4    0    0 -0.12815208687E+03 -0.21585353300E+03  0.21716101140E+03  0.34088567304E+03  0.77642978655E+02 0.  0.
         24    2    4    4    0    0  0.62899639270E+03  0.19512555465E+03 -0.20655365184E+03  0.69378101677E+03  0.70407698700E+02 0.  0.
         13    1    3    3    0    0 -0.92196876201E+02  0.39735359590E+02 -0.72267212571E+02  0.12370009214E+03  0.00000000000E+00 0. -1.
        -13    1    3    3    0    0 -0.40864742962E+03 -0.19007381237E+02 -0.23246561985E+03  0.47052552182E+03  0.00000000000E+00 0.  1.
          4    1    6    6  502    0  0.26880527234E+03  0.11346603323E+03 -0.70335797526E+02  0.30012987114E+03  0.00000000000E+00 0. -1.
          3    1    5    5  503    0 -0.33452948702E+02 -0.77478187360E+02  0.29917820112E+02  0.89537954263E+02  0.00000000000E+00 0. -1.
         -4    1    5    5    0  503 -0.94699138172E+02 -0.13837534564E+03  0.18724319129E+03  0.25134771878E+03  0.00000000000E+00 0.  1.
         -3    1    6    6    0  502  0.36019112035E+03  0.81659521414E+02 -0.13621785432E+03  0.39365114563E+03  0.00000000000E+00 0.  1.
<mgrwt>
<rscale>  0 0.16021175E+04</rscale>
<asrwt>0</asrwt>
<pdfrwt beam="1">  1        1 0.14792444E+00 0.16021175E+04</pdfrwt>
<pdfrwt beam="2">  1       -1 0.10267437E+00 0.16021175E+04</pdfrwt>
<totfact> 0.13966077E+01</totfact>
</mgrwt>
</event>
<event>
12    1  0.1397649E-007  0.1292321E+04  0.7818608E-02  0.9035677E-01
          2   -1    0    0  501    0  0.00000000000E+00  0.00000000000E+00  0.13212804989E+04  0.13212804989E+04  0.00000000000E+00 0. -1.
         -2   -1    0    0    0  501 -0.00000000000E+00 -0.00000000000E+00 -0.31599904673E+03  0.31599904673E+03  0.00000000000E+00 0.  1.
         23    2    1    2    0    0  0.31507690867E+03  0.20069005679E+02  0.37220292021E+03  0.49658401580E+03  0.91566629120E+02 0.  0.
        254    2    1    2    0    0 -0.31507690867E+03 -0.20069005679E+02  0.63307853192E+03  0.11406955298E+04  0.89483050950E+03 0.  0.
        -24    2    4    4    0    0 -0.27469738081E+03 -0.83995497804E+02  0.84781067775E+03  0.89874552197E+03  0.80291178085E+02 0.  0.
         24    2    4    4    0    0 -0.40379527865E+02  0.63926492125E+02 -0.21473214583E+03  0.24195000782E+03  0.81931734784E+02 0.  0.
         13    1    3    3    0    0  0.72724068918E+02  0.27656791960E+02  0.46867549199E+02  0.90830917145E+02  0.00000000000E+00 0.  1.
        -13    1    3    3    0    0  0.24235283975E+03 -0.75877862808E+01  0.32533537101E+03  0.40575309865E+03  0.00000000000E+00 0. -1.
          4    1    6    6  502    0 -0.21424190442E+02  0.32452852856E+02 -0.19898105515E+02  0.43682012290E+02  0.00000000000E+00 0. -1.
          1    1    5    5  503    0 -0.32270579950E+01  0.78491513275E+01  0.91935588528E+01  0.12511778620E+02  0.00000000000E+00 0. -1.
         -2    1    5    5    0  503 -0.27147032281E+03 -0.91844649132E+02  0.83861711890E+03  0.88623374335E+03  0.00000000000E+00 0.  1.
         -3    1    6    6    0  502 -0.18955337423E+02  0.31473639269E+02 -0.19483404032E+03  0.19826799553E+03  0.00000000000E+00 0.  1.
<mgrwt>
<rscale>  0 0.12923210E+04</rscale>
<asrwt>0</asrwt>
<pdfrwt beam="1">  1        2 0.20327392E+00 0.12923210E+04</pdfrwt>
<pdfrwt beam="2">  1       -2 0.48615239E-01 0.12923210E+04</pdfrwt>
<totfact> 0.63116584E+01</totfact>
</mgrwt>
</event>
<event>
12    1  0.1397649E-007  0.2105307E+04  0.7818608E-02  0.8558909E-01
         -1   -1    0    0    0  501 -0.00000000000E+00  0.00000000000E+00  0.91567502469E+03  0.91567502469E+03  0.00000000000E+00 0.  1.
          1   -1    0    0  501    0  0.00000000000E+00 -0.00000000000E+00 -0.12101229949E+04  0.12101229949E+04  0.00000000000E+00 0. -1.
         23    2    1    2    0    0  0.66453077762E+03 -0.28182126355E+03  0.34531553458E+03  0.80545091321E+03  0.92108502161E+02 0.  0.
        254    2    1    2    0    0 -0.66453077762E+03  0.28182126355E+03 -0.63976350477E+03  0.13203471064E+04  0.90166222072E+03 0.  0.
        -24    2    4    4    0    0 -0.40926508852E+03  0.58894685126E+03 -0.53914351800E+03  0.90075552628E+03  0.79551736863E+02 0.  0.
         24    2    4    4    0    0 -0.25526568910E+03 -0.30712558771E+03 -0.10061998676E+03  0.41959158008E+03  0.80287070438E+02 0.  0.
         11    1    3    3    0    0  0.18559908853E+03 -0.12155952956E+03  0.12265740517E+03  0.25351248477E+03  0.00000000000E+00 0. -1.
        -11    1    3    3    0    0  0.47893168909E+03 -0.16026173399E+03  0.22265812940E+03  0.55193842844E+03  0.00000000000E+00 0.  1.
          4    1    6    6  502    0 -0.86320919756E+02 -0.16616450806E+03 -0.50192391426E+02  0.19385876581E+03  0.00000000000E+00 0. -1.
          3    1    5    5  503    0 -0.15613446214E+03  0.16029453922E+03 -0.16846284442E+03  0.28009291230E+03  0.00000000000E+00 0. -1.
         -4    1    5    5    0  503 -0.25313062638E+03  0.42865231204E+03 -0.37068067358E+03  0.62066261399E+03  0.00000000000E+00 0.  1.
         -3    1    6    6    0  502 -0.16894476934E+03 -0.14096107966E+03 -0.50427595339E+02  0.22573281427E+03  0.00000000000E+00 0.  1.
<mgrwt>
<rscale>  0 0.21053070E+04</rscale>
<asrwt>0</asrwt>
<pdfrwt beam="1">  1        1 0.18617277E+00 0.21053070E+04</pdfrwt>
<pdfrwt beam="2">  1       -1 0.14087308E+00 0.21053070E+04</pdfrwt>
<totfact> 0.39826313E+00</totfact>
</mgrwt>
</event>
<event>
12    1  0.1397649E-007  0.1888913E+04  0.7818608E-02  0.8660395E-01
         -2   -1    0    0    0  501 -0.00000000000E+00  0.00000000000E+00  0.20607778602E+03  0.20607778602E+03  0.00000000000E+00 0.  1.
          2   -1    0    0  501    0  0.00000000000E+00 -0.00000000000E+00 -0.43284539450E+04  0.43284539450E+04  0.00000000000E+00 0. -1.
         23    2    1    2    0    0 -0.49977425470E+03  0.10522359673E+03 -0.37775318965E+03  0.64201316990E+03  0.92936145068E+02 0.  0.
        254    2    1    2    0    0  0.49977425470E+03 -0.10522359673E+03 -0.37446229693E+04  0.38925185611E+04  0.93201569475E+03 0.  0.
        -24    2    4    4    0    0  0.62649532133E+03 -0.23795338086E+03 -0.35487327216E+04  0.36123467658E+04  0.80168745621E+02 0.  0.
         24    2    4    4    0    0 -0.12672106662E+03  0.13272978413E+03 -0.19589024768E+03  0.28017179529E+03  0.80298327629E+02 0.  0.
         11    1    3    3    0    0 -0.16265125483E+03  0.78746412740E+02 -0.12220288383E+03  0.21815126182E+03  0.00000000000E+00 0. -1.
        -11    1    3    3    0    0 -0.33712299987E+03  0.26477183986E+02 -0.25555030583E+03  0.42386190808E+03  0.00000000000E+00 0.  1.
          4    1    6    6  502    0 -0.93826581696E+02  0.13806468116E+03 -0.16081936363E+03  0.23179333756E+03  0.00000000000E+00 0. -1.
          3    1    5    5  503    0  0.43386981947E+03 -0.18205936603E+03 -0.26565628675E+04  0.26979093576E+04  0.00000000000E+00 0. -1.
         -4    1    5    5    0  503  0.19262550186E+03 -0.55894014829E+02 -0.89216985416E+03  0.91443740821E+03  0.00000000000E+00 0.  1.
         -3    1    6    6    0  502 -0.32894484925E+02 -0.53348970314E+01 -0.35070884046E+02  0.48378457733E+02  0.00000000000E+00 0.  1.
<mgrwt>
<rscale>  0 0.18889131E+04</rscale>
<asrwt>0</asrwt>
<pdfrwt beam="1">  1        2 0.66591596E+00 0.18889131E+04</pdfrwt>
<pdfrwt beam="2">  1       -2 0.31704276E-01 0.18889131E+04</pdfrwt>
<totfact> 0.15756891E+00</totfact>
</mgrwt>
</event>
<event>
12    1  0.1397649E-007  0.1920071E+04  0.7818608E-02  0.8644930E-01
          2   -1    0    0  501    0  0.00000000000E+00  0.00000000000E+00  0.86917832827E+03  0.86917832827E+03  0.00000000000E+00 0. -1.
         -2   -1    0    0    0  501 -0.00000000000E+00 -0.00000000000E+00 -0.10603901830E+04  0.10603901830E+04  0.00000000000E+00 0.  1.
         23    2    1    2    0    0 -0.32832477740E+03 -0.54282477689E+03  0.32644068693E+03  0.71975454693E+03  0.95011514459E+02 0.  0.
        254    2    1    2    0    0  0.32832477740E+03  0.54282477689E+03 -0.51765254166E+03  0.12098139643E+04  0.89063447977E+03 0.  0.
        -24    2    4    4    0    0  0.47376297355E+03  0.20673957899E+03 -0.62945042721E+03  0.81838465464E+03  0.79705671182E+02 0.  0.
         24    2    4    4    0    0 -0.14543819614E+03  0.33608519790E+03  0.11179788555E+03  0.39142930970E+03  0.81317944698E+02 0.  0.
         13    1    3    3    0    0 -0.23306340586E+03 -0.35226704429E+03  0.16941261286E+03  0.45509477588E+03  0.00000000000E+00 0. -1.
        -13    1    3    3    0    0 -0.95261371543E+02 -0.19055773260E+03  0.15702807407E+03  0.26465977104E+03  0.00000000000E+00 0.  1.
          2    1    6    6  502    0 -0.11385052326E+03  0.16087973002E+03  0.59708138023E+02  0.20593516194E+03  0.00000000000E+00 0. -1.
          3    1    5    5  503    0  0.37764504790E+03  0.16709189701E+03 -0.54869961783E+03  0.68673630664E+03  0.00000000000E+00 0. -1.
         -4    1    5    5    0  503  0.96117925645E+02  0.39647681974E+02 -0.80750809374E+02  0.13164834800E+03  0.00000000000E+00 0.  1.
         -1    1    6    6    0  502 -0.31587672883E+02  0.17520546788E+03  0.52089747526E+02  0.18549414775E+03  0.00000000000E+00 0.  1.
<mgrwt>
<rscale>  0 0.19200710E+04</rscale>
<asrwt>0</asrwt>
<pdfrwt beam="1">  1        2 0.13371974E+00 0.19200710E+04</pdfrwt>
<pdfrwt beam="2">  1       -2 0.16313695E+00 0.19200710E+04</pdfrwt>
<totfact> 0.68723198E+00</totfact>
</mgrwt>
</event>
<event>
12    1  0.1397649E-007  0.1466802E+04  0.7818608E-02  0.8906834E-01
         -2   -1    0    0    0  501 -0.00000000000E+00  0.00000000000E+00  0.20981557439E+03  0.20981557439E+03  0.00000000000E+00 0.  1.
          2   -1    0    0  501    0  0.00000000000E+00 -0.00000000000E+00 -0.25635714875E+04  0.25635714875E+04  0.00000000000E+00 0. -1.
         23    2    1    2    0    0  0.24276969127E+03  0.23441743206E+03 -0.12749811776E+04  0.13220238814E+04  0.91002661115E+02 0.  0.
        254    2    1    2    0    0 -0.24276969127E+03 -0.23441743206E+03 -0.10787747356E+04  0.14513631805E+04  0.91039084808E+03 0.  0.
        -24    2    4    4    0    0 -0.25369407885E+03  0.25524681532E+03 -0.14918125115E+03  0.39768956742E+03  0.79939501895E+02 0.  0.
         24    2    4    4    0    0  0.10924387578E+02 -0.48966424738E+03 -0.92959348442E+03  0.10536736131E+04  0.78699550884E+02 0.  0.
         11    1    3    3    0    0  0.11332503902E+02  0.40254251578E+02 -0.91656462338E+02  0.10074590564E+03  0.00000000000E+00 0.  1.
        -11    1    3    3    0    0  0.23143718737E+03  0.19416318048E+03 -0.11833247152E+04  0.12212779757E+04  0.00000000000E+00 0. -1.
          2    1    6    6  502    0 -0.27118494891E+02 -0.33910085967E+03 -0.66165835251E+03  0.74398694964E+03  0.00000000000E+00 0. -1.
          3    1    5    5  503    0 -0.22797518092E+03  0.19662125785E+03 -0.10092059966E+03  0.31751782562E+03  0.00000000000E+00 0. -1.
         -4    1    5    5    0  503 -0.25718897929E+02  0.58625557476E+02 -0.48260651492E+02  0.80171741795E+02  0.00000000000E+00 0.  1.
         -1    1    6    6    0  502  0.38042882469E+02 -0.15056338771E+03 -0.26793513191E+03  0.30968666348E+03  0.00000000000E+00 0.  1.
<mgrwt>
<rscale>  0 0.14668023E+04</rscale>
<asrwt>0</asrwt>
<pdfrwt beam="1">  1        2 0.39439559E+00 0.14668023E+04</pdfrwt>
<pdfrwt beam="2">  1       -2 0.32279321E-01 0.14668023E+04</pdfrwt>
<totfact> 0.27766529E+01</totfact>
</mgrwt>
</event>
<event>
12    1  0.1397649E-007  0.3370946E+04  0.7818608E-02  0.8145074E-01
          2   -1    0    0  501    0  0.00000000000E+00  0.00000000000E+00  0.19497650741E+04  0.19497650741E+04  0.00000000000E+00 0. -1.
         -2   -1    0    0    0  501 -0.00000000000E+00 -0.00000000000E+00 -0.14570062952E+04  0.14570062952E+04  0.00000000000E+00 0.  1.
         23    2    1    2    0    0  0.39302932496E+03 -0.13206478883E+03 -0.12944542466E+04  0.13623530585E+04  0.92091806609E+02 0.  0.
        254    2    1    2    0    0 -0.39302932496E+03  0.13206478883E+03  0.17872130255E+04  0.20444183108E+04  0.90199926390E+03 0.  0.
        -24    2    4    4    0    0 -0.32394770615E+03  0.45083856068E+03  0.64917201232E+03  0.85791643907E+03  0.79992441625E+02 0.  0.
         24    2    4    4    0    0 -0.69081618806E+02 -0.31877377185E+03  0.11380410132E+04  0.11865018717E+04  0.79122412461E+02 0.  0.
         13    1    3    3    0    0  0.34623101959E+03 -0.84051873090E+02 -0.10461655398E+04  0.11051710153E+04  0.00000000000E+00 0.  1.
        -13    1    3    3    0    0  0.46798305367E+02 -0.48012915743E+02 -0.24828870676E+03  0.25718204325E+03  0.00000000000E+00 0. -1.
          4    1    6    6  502    0 -0.41842714779E+02 -0.28735843067E+03  0.92756458276E+03  0.97195768203E+03  0.00000000000E+00 0. -1.
          3    1    5    5  503    0 -0.30799954349E+03  0.42561120732E+03  0.57991580893E+03  0.78250301216E+03  0.00000000000E+00 0. -1.
         -4    1    5    5    0  503 -0.15948162662E+02  0.25227353361E+02  0.69256203389E+02  0.75413426906E+02  0.00000000000E+00 0.  1.
         -3    1    6    6    0  502 -0.27238904027E+02 -0.31415341181E+02  0.21047643042E+03  0.21454418966E+03  0.00000000000E+00 0.  1.
<mgrwt>
<rscale>  0 0.33709464E+04</rscale>
<asrwt>0</asrwt>
<pdfrwt beam="1">  1        2 0.29996386E+00 0.33709464E+04</pdfrwt>
<pdfrwt beam="2">  1       -2 0.22415481E+00 0.33709464E+04</pdfrwt>
<totfact> 0.55051449E-01</totfact>
</mgrwt>
</event>
<event>
12    1  0.1397649E-007  0.1707026E+04  0.7818608E-02  0.8757367E-01
         -2   -1    0    0    0  501 -0.00000000000E+00  0.00000000000E+00  0.49476524432E+03  0.49476524432E+03  0.00000000000E+00 0.  1.
          2   -1    0    0  501    0  0.00000000000E+00 -0.00000000000E+00 -0.14723836540E+04  0.14723836540E+04  0.00000000000E+00 0. -1.
         23    2    1    2    0    0  0.36594497900E+03 -0.47295657734E+03 -0.50425945934E+03  0.78693253083E+03  0.85915970810E+02 0.  0.
        254    2    1    2    0    0 -0.36594497900E+03  0.47295657734E+03 -0.47335895037E+03  0.11802163675E+04  0.90068769648E+03 0.  0.
        -24    2    4    4    0    0 -0.57625051014E+03  0.28813723321E+03 -0.30099383579E+02  0.64986451789E+03  0.79562573690E+02 0.  0.
         24    2    4    4    0    0  0.21030553114E+03  0.18481934413E+03 -0.44325956679E+03  0.53035184964E+03  0.80046451927E+02 0.  0.
         11    1    3    3    0    0  0.19451145620E+03 -0.28916681150E+03 -0.33868326891E+03  0.48596142656E+03  0.00000000000E+00 0.  1.
        -11    1    3    3    0    0  0.17143352280E+03 -0.18378976584E+03 -0.16557619043E+03  0.30097110427E+03  0.00000000000E+00 0. -1.
          2    1    6    6  502    0  0.20208978199E+03  0.15148174444E+03 -0.35521617429E+03  0.43585035203E+03  0.00000000000E+00 0. -1.
          3    1    5    5  503    0 -0.56531259775E+03  0.28239630563E+03 -0.41189869954E+02  0.63326346176E+03  0.00000000000E+00 0. -1.
         -2    1    5    5    0  503 -0.10937912382E+02  0.57409275808E+01  0.11090486375E+02  0.16601056135E+02  0.00000000000E+00 0.  1.
         -1    1    6    6    0  502  0.82157491495E+01  0.33337599689E+02 -0.88043392504E+02  0.94501497611E+02  0.00000000000E+00 0.  1.
<mgrwt>
<rscale>  0 0.17070258E+04</rscale>
<asrwt>0</asrwt>
<pdfrwt beam="1">  1        2 0.22652057E+00 0.17070258E+04</pdfrwt>
<pdfrwt beam="2">  1       -2 0.76117729E-01 0.17070258E+04</pdfrwt>
<totfact> 0.19336710E+01</totfact>
</mgrwt>
</event>
<event>
12    1  0.1397649E-007  0.1796431E+04  0.7818608E-02  0.8708200E-01
          1   -1    0    0  501    0  0.00000000000E+00  0.00000000000E+00  0.27504029923E+04  0.27504029923E+04  0.00000000000E+00 0. -1.
         -1   -1    0    0    0  501 -0.00000000000E+00 -0.00000000000E+00 -0.29333545864E+03  0.29333545864E+03  0.00000000000E+00 0.  1.
         23    2    1    2    0    0 -0.19938233440E+03  0.58699031681E+03  0.49978776514E+03  0.80118239020E+03  0.88286266647E+02 0.  0.
        254    2    1    2    0    0  0.19938233440E+03 -0.58699031681E+03  0.19572797686E+04  0.22425560608E+04  0.90211010749E+03 0.  0.
        -24    2    4    4    0    0  0.25333844995E+03  0.14746051315E+03  0.29828169215E+03  0.42570531840E+03  0.79549211709E+02 0.  0.
         24    2    4    4    0    0 -0.53956115542E+02 -0.73445082997E+03  0.16589980764E+04  0.18168507424E+04  0.79641185979E+02 0.  0.
         13    1    3    3    0    0 -0.12094955641E+02  0.10493178759E+03  0.55156469860E+02  0.11916041359E+03  0.00000000000E+00 0. -1.
        -13    1    3    3    0    0 -0.18728737876E+03  0.48205852922E+03  0.44463129528E+03  0.68202197662E+03  0.00000000000E+00 0.  1.
          4    1    6    6  502    0 -0.25905410045E+02 -0.82918307870E+02  0.15800421672E+03  0.18031047821E+03  0.00000000000E+00 0. -1.
          1    1    5    5  503    0  0.16075517180E+03  0.84564457558E+02  0.23537331067E+03  0.29731123107E+03  0.00000000000E+00 0. -1.
         -2    1    5    5    0  503  0.92583278147E+02  0.62896055595E+02  0.62908381471E+02  0.12839408733E+03  0.00000000000E+00 0.  1.
         -3    1    6    6    0  502 -0.28050705497E+02 -0.65153252210E+03  0.15009938597E+04  0.16365402642E+04  0.00000000000E+00 0.  1.
<mgrwt>
<rscale>  0 0.17964306E+04</rscale>
<asrwt>0</asrwt>
<pdfrwt beam="1">  1        1 0.42313890E+00 0.17964306E+04</pdfrwt>
<pdfrwt beam="2">  1       -1 0.45128534E-01 0.17964306E+04</pdfrwt>
<totfact> 0.41647578E+00</totfact>
</mgrwt>
</event>
<event>
12    1  0.1397649E-007  0.1392797E+04  0.7818608E-02  0.8959049E-01
         -1   -1    0    0    0  501 -0.00000000000E+00  0.00000000000E+00  0.93540895490E+03  0.93540895490E+03  0.00000000000E+00 0.  1.
          1   -1    0    0  501    0  0.00000000000E+00 -0.00000000000E+00 -0.51845890592E+03  0.51845890592E+03  0.00000000000E+00 0. -1.
         23    2    1    2    0    0  0.35989620807E+02  0.31535625632E+03 -0.12395519062E+03  0.35408193078E+03  0.96251250464E+02 0.  0.
        254    2    1    2    0    0 -0.35989620807E+02 -0.31535625632E+03  0.54090523960E+03  0.10997859300E+04  0.90344108412E+03 0.  0.
        -24    2    4    4    0    0  0.16443265923E+03  0.20467382660E+03 -0.56424832756E+02  0.27926074186E+03  0.76637624434E+02 0.  0.
         24    2    4    4    0    0 -0.20042228004E+03 -0.52003008292E+03  0.59733007236E+03  0.82052518818E+03  0.76537517687E+02 0.  0.
         11    1    3    3    0    0 -0.20082979497E+02  0.15477634011E+03 -0.91521685119E+02  0.18092888208E+03  0.00000000000E+00 0. -1.
        -11    1    3    3    0    0  0.56072600305E+02  0.16057991621E+03 -0.32433505506E+02  0.17315304870E+03  0.00000000000E+00 0.  1.
          4    1    6    6  502    0 -0.18985297223E+03 -0.43269553929E+03  0.52768251236E+03  0.70832084159E+03  0.00000000000E+00 0. -1.
          3    1    5    5  503    0  0.13580160339E+03  0.17638763047E+03 -0.75040882070E+02  0.23491659296E+03  0.00000000000E+00 0. -1.
         -4    1    5    5    0  503  0.28631055839E+02  0.28286196131E+02  0.18616049315E+02  0.44344148905E+02  0.00000000000E+00 0.  1.
         -3    1    6    6    0  502 -0.10569307804E+02 -0.87334543628E+02  0.69647560002E+02  0.11220434658E+03  0.00000000000E+00 0.  1.
<mgrwt>
<rscale>  0 0.13927973E+04</rscale>
<asrwt>0</asrwt>
<pdfrwt beam="1">  1        1 0.79762909E-01 0.13927973E+04</pdfrwt>
<pdfrwt beam="2">  1       -1 0.14390907E+00 0.13927973E+04</pdfrwt>
<totfact> 0.16030591E+01</totfact>
</mgrwt>
</event>
<event>
12    1  0.1397649E-007  0.1409047E+04  0.7818608E-02  0.8947296E-01
          2   -1    0    0  501    0  0.00000000000E+00  0.00000000000E+00  0.27558041502E+04  0.27558041502E+04  0.00000000000E+00 0. -1.
         -2   -1    0    0    0  501 -0.00000000000E+00 -0.00000000000E+00 -0.18011199682E+03  0.18011199682E+03  0.00000000000E+00 0.  1.
         23    2    1    2    0    0  0.10764573376E+03 -0.39510336643E+03  0.69876021968E+03  0.81581321606E+03  0.97934083572E+02 0.  0.
        254    2    1    2    0    0 -0.10764573376E+03  0.39510336643E+03  0.18769319337E+04  0.21201029310E+04  0.89681028093E+03 0.  0.
        -24    2    4    4    0    0 -0.45078067322E+03  0.28119135578E+03  0.68199305481E+03  0.86915443886E+03  0.89683431355E+02 0.  0.
         24    2    4    4    0    0  0.34313493946E+03  0.11391201065E+03  0.11949388789E+04  0.12509484921E+04  0.79219144032E+02 0.  0.
         13    1    3    3    0    0  0.38570414752E+02 -0.17828861561E+03  0.40536665928E+03  0.44451843135E+03  0.00000000000E+00 0. -1.
        -13    1    3    3    0    0  0.69075319011E+02 -0.21681475082E+03  0.29339356040E+03  0.37129478471E+03  0.00000000000E+00 0.  1.
          2    1    6    6  502    0  0.30906046107E+03  0.98348038124E+02  0.96671991565E+03  0.10196754878E+04  0.00000000000E+00 0. -1.
          3    1    5    5  503    0 -0.37024903021E+03  0.19037261539E+03  0.55053574664E+03  0.69022871962E+03  0.00000000000E+00 0. -1.
         -4    1    5    5    0  503 -0.80531643014E+02  0.90818740395E+02  0.13145730817E+03  0.17892571924E+03  0.00000000000E+00 0.  1.
         -1    1    6    6    0  502  0.34074478382E+02  0.15563972526E+02  0.22821896325E+03  0.23127300427E+03  0.00000000000E+00 0.  1.
<mgrwt>
<rscale>  0 0.14090470E+04</rscale>
<asrwt>0</asrwt>
<pdfrwt beam="1">  1        2 0.42396984E+00 0.14090470E+04</pdfrwt>
<pdfrwt beam="2">  1       -2 0.27709540E-01 0.14090470E+04</pdfrwt>
<totfact> 0.28594221E+01</totfact>
</mgrwt>
</event>
<event>
12    1  0.1397649E-007  0.2212504E+04  0.7818608E-02  0.8513242E-01
          2   -1    0    0  501    0  0.00000000000E+00  0.00000000000E+00  0.14518398052E+04  0.14518398052E+04  0.00000000000E+00 0. -1.
         -2   -1    0    0    0  501 -0.00000000000E+00 -0.00000000000E+00 -0.84292575962E+03  0.84292575962E+03  0.00000000000E+00 0.  1.
         23    2    1    2    0    0  0.23062549280E+03 -0.30307537902E+03 -0.59773909629E+03  0.71475919207E+03  0.92443886307E+02 0.  0.
        254    2    1    2    0    0 -0.23062549280E+03  0.30307537902E+03  0.12066531419E+04  0.15800063728E+04  0.94623756523E+03 0.  0.
        -24    2    4    4    0    0 -0.27648834702E+03  0.40764539211E+03  0.13134045528E+04  0.14049707110E+04  0.79313349932E+02 0.  0.
         24    2    4    4    0    0  0.45862854220E+02 -0.10457001309E+03 -0.10675141091E+03  0.17503566184E+03  0.78761222373E+02 0.  0.
         11    1    3    3    0    0  0.58148331738E+02 -0.12357269361E+03 -0.27618289420E+03  0.30810457662E+03  0.00000000000E+00 0.  1.
        -11    1    3    3    0    0  0.17247716107E+03 -0.17950268541E+03 -0.32155620210E+03  0.40665461545E+03  0.00000000000E+00 0. -1.
          4    1    6    6  502    0 -0.12618975448E+02 -0.15396521995E+01  0.35153326781E+01  0.13189641166E+02  0.00000000000E+00 0. -1.
          3    1    5    5  503    0 -0.12993717628E+02  0.32928209380E+02  0.16126691198E+03  0.16510639167E+03  0.00000000000E+00 0. -1.
         -4    1    5    5    0  503 -0.26349462939E+03  0.37471718273E+03  0.11521376409E+04  0.12398643193E+04  0.00000000000E+00 0.  1.
         -3    1    6    6    0  502  0.58481829668E+02 -0.10303036089E+03 -0.11026674359E+03  0.16184602068E+03  0.00000000000E+00 0.  1.
<mgrwt>
<rscale>  0 0.22125037E+04</rscale>
<asrwt>0</asrwt>
<pdfrwt beam="1">  1        2 0.22335997E+00 0.22125037E+04</pdfrwt>
<pdfrwt beam="2">  1       -2 0.12968089E+00 0.22125037E+04</pdfrwt>
<totfact> 0.53949914E+00</totfact>
</mgrwt>
</event>
<event>
12    1  0.1397649E-007  0.2634375E+04  0.7818608E-02  0.8356618E-01
         -1   -1    0    0    0  501 -0.00000000000E+00  0.00000000000E+00  0.10116610918E+04  0.10116610918E+04  0.00000000000E+00 0.  1.
          1   -1    0    0  501    0  0.00000000000E+00 -0.00000000000E+00 -0.17149849632E+04  0.17149849632E+04  0.00000000000E+00 0. -1.
         23    2    1    2    0    0 -0.20715237015E+03 -0.23031436366E+03 -0.14787824434E+04  0.15135746374E+04  0.90298712771E+02 0.  0.
        254    2    1    2    0    0  0.20715237015E+03  0.23031436366E+03  0.77545857196E+03  0.12130714175E+04  0.87991445986E+03 0.  0.
        -24    2    4    4    0    0  0.13028977665E+03 -0.83871885408E+02  0.85357929696E+03  0.87114713649E+03  0.79308247717E+02 0.  0.
         24    2    4    4    0    0  0.76862593506E+02  0.31418624907E+03 -0.78120724995E+02  0.34192428106E+03  0.78667076442E+02 0.  0.
         13    1    3    3    0    0 -0.59642540272E+02 -0.45536857766E+02 -0.21130742072E+03  0.22423573327E+03  0.00000000000E+00 0.  1.
        -13    1    3    3    0    0 -0.14750982988E+03 -0.18477750590E+03 -0.12674750227E+04  0.12893389042E+04  0.00000000000E+00 0. -1.
          2    1    6    6  502    0  0.82063519822E+02  0.30973225025E+03 -0.64741217967E+02  0.32689434598E+03  0.00000000000E+00 0. -1.
          3    1    5    5  503    0  0.70214445182E+02 -0.46842933795E+02  0.65469648835E+03  0.66011500560E+03  0.00000000000E+00 0. -1.
         -4    1    5    5    0  503  0.60075331464E+02 -0.37028951612E+02  0.19888280861E+03  0.21103213089E+03  0.00000000000E+00 0.  1.
         -3    1    6    6    0  502 -0.52009263162E+01  0.44539988220E+01 -0.13379507028E+02  0.15029935076E+02  0.00000000000E+00 0.  1.
<mgrwt>
<rscale>  0 0.26343755E+04</rscale>
<asrwt>0</asrwt>
<pdfrwt beam="1">  1        1 0.26384384E+00 0.26343755E+04</pdfrwt>
<pdfrwt beam="2">  1       -1 0.15564017E+00 0.26343755E+04</pdfrwt>
<totfact> 0.12897829E+00</totfact>
</mgrwt>
</event>
<event>
12    1  0.1617944E-007  0.1562929E+04  0.7818608E-02  0.8843652E-01
         -1   -1    0    0    0  501 -0.00000000000E+00  0.00000000000E+00  0.46784341586E+03  0.46784341586E+03  0.00000000000E+00 0.  1.
          1   -1    0    0  501    0  0.00000000000E+00 -0.00000000000E+00 -0.13053223937E+04  0.13053223937E+04  0.00000000000E+00 0. -1.
         23    2    1    2    0    0 -0.76561234529E+02  0.27072942906E+03 -0.77666890043E+03  0.83406284010E+03  0.11528310351E+03 0.  0.
        254    2    1    2    0    0  0.76561234529E+02 -0.27072942906E+03 -0.60810077402E+02  0.93910296944E+03  0.89390182643E+03 0.  0.
        -24    2    4    4    0    0  0.79850322292E+02  0.31786625204E+03 -0.72634783437E+02  0.34502774081E+03  0.79707603195E+02 0.  0.
         24    2    4    4    0    0 -0.32890877627E+01 -0.58859568111E+03  0.11824706035E+02  0.59407522862E+03  0.79560415234E+02 0.  0.
         13    1    3    3    0    0 -0.12524129658E+02 -0.10033547572E+02 -0.38491657710E+02  0.41702920927E+02  0.00000000000E+00 0.  1.
        -13    1    3    3    0    0 -0.64037104871E+02  0.28076297664E+03 -0.73817724272E+03  0.79235991917E+03  0.00000000000E+00 0. -1.
          2    1    6    6  502    0 -0.18958895048E+02 -0.35564295503E+02 -0.46995826910E+01  0.40575175829E+02  0.00000000000E+00 0. -1.
          3    1    5    5  503    0 -0.33673850504E+01  0.41197602409E+02 -0.34042099661E+02  0.53548541303E+02  0.00000000000E+00 0. -1.
         -4    1    5    5    0  503  0.83217707342E+02  0.27666864964E+03 -0.38592683776E+02  0.29147919951E+03  0.00000000000E+00 0.  1.
         -1    1    6    6    0  502  0.15669807285E+02 -0.55303138561E+03  0.16524288726E+02  0.55350005279E+03  0.00000000000E+00 0.  1.
<mgrwt>
<rscale>  0 0.15629286E+04</rscale>
<asrwt>0</asrwt>
<pdfrwt beam="1">  1        1 0.20081883E+00 0.15629286E+04</pdfrwt>
<pdfrwt beam="2">  1       -1 0.71975910E-01 0.15629286E+04</pdfrwt>
<totfact> 0.16811072E+01</totfact>
</mgrwt>
</event>
<event>
12    1  0.1397649E-007  0.3878993E+04  0.7818608E-02  0.8029413E-01
         -1   -1    0    0    0  501 -0.00000000000E+00  0.00000000000E+00  0.11986014154E+04  0.11986014154E+04  0.00000000000E+00 0.  1.
          1   -1    0    0  501    0  0.00000000000E+00 -0.00000000000E+00 -0.31383627170E+04  0.31383627170E+04  0.00000000000E+00 0. -1.
         23    2    1    2    0    0  0.10861176886E+04 -0.10221691427E+03 -0.25666998625E+04  0.27903922369E+04  0.90778416033E+02 0.  0.
        254    2    1    2    0    0 -0.10861176886E+04  0.10221691427E+03  0.62693856085E+03  0.15465718955E+04  0.89929568981E+03 0.  0.
        -24    2    4    4    0    0 -0.10013989947E+04 -0.84827086588E+02  0.78310271125E+03  0.12766515522E+04  0.81201897110E+02 0.  0.
         24    2    4    4    0    0 -0.84718693891E+02  0.18704400085E+03 -0.15616415040E+03  0.26992034329E+03  0.79416840148E+02 0.  0.
         11    1    3    3    0    0  0.26292006548E+02  0.80977126215E+01 -0.44085372975E+02  0.51965013888E+02  0.00000000000E+00 0.  1.
        -11    1    3    3    0    0  0.10598256820E+04 -0.11031462689E+03 -0.25226144895E+04  0.27384272230E+04  0.00000000000E+00 0. -1.
          4    1    6    6  502    0 -0.91078685349E+02  0.13493197358E+03 -0.91915027171E+02  0.18695009130E+03  0.00000000000E+00 0. -1.
          1    1    5    5  503    0 -0.63820834335E+03 -0.77436907266E+02  0.53952921916E+03  0.83928430371E+03  0.00000000000E+00 0. -1.
         -2    1    5    5    0  503 -0.36319065136E+03 -0.73901793221E+01  0.24357349209E+03  0.43736724847E+03  0.00000000000E+00 0.  1.
         -3    1    6    6    0  502  0.63599914584E+01  0.52112027275E+02 -0.64249123230E+02  0.82970251981E+02  0.00000000000E+00 0.  1.
<mgrwt>
<rscale>  0 0.38789926E+04</rscale>
<asrwt>0</asrwt>
<pdfrwt beam="1">  1        1 0.48282503E+00 0.38789926E+04</pdfrwt>
<pdfrwt beam="2">  1       -1 0.18440022E+00 0.38789926E+04</pdfrwt>
<totfact> 0.72256074E-02</totfact>
</mgrwt>
</event>
<event>
12    1  0.1397649E-007  0.1913141E+04  0.7818608E-02  0.8648343E-01
         -1   -1    0    0    0  501 -0.00000000000E+00  0.00000000000E+00  0.74370305605E+03  0.74370305605E+03  0.00000000000E+00 0.  1.
          1   -1    0    0  501    0  0.00000000000E+00 -0.00000000000E+00 -0.12303666345E+04  0.12303666345E+04  0.00000000000E+00 0. -1.
         23    2    1    2    0    0  0.18892169529E+03  0.70556693099E+03 -0.10074030108E+03  0.74299806048E+03  0.91550033120E+02 0.  0.
        254    2    1    2    0    0 -0.18892169529E+03 -0.70556693099E+03 -0.38592327741E+03  0.12310716301E+04  0.91273461716E+03 0.  0.
        -24    2    4    4    0    0  0.80092888569E+02 -0.69344342952E+03 -0.56329166258E+03  0.90050063149E+03  0.79531311068E+02 0.  0.
         24    2    4    4    0    0 -0.26901458386E+03 -0.12123501470E+02  0.17736838518E+03  0.33057099862E+03  0.72813566394E+02 0.  0.
         13    1    3    3    0    0  0.11620603058E+03  0.44308773072E+03 -0.10762299721E+03  0.47054573443E+03  0.00000000000E+00 0.  1.
        -13    1    3    3    0    0  0.72715664707E+02  0.26247920027E+03  0.68826961316E+01  0.27245232606E+03  0.00000000000E+00 0. -1.
          2    1    6    6  502    0  0.45227813761E+01  0.22304479197E+01  0.33543487909E+01  0.60565753615E+01  0.00000000000E+00 0. -1.
          1    1    5    5  503    0  0.44479300852E+01 -0.22618793597E+03 -0.22190900736E+03  0.31689804987E+03  0.00000000000E+00 0. -1.
         -2    1    5    5    0  503  0.75644958484E+02 -0.46725549354E+03 -0.34138265522E+03  0.58360258162E+03  0.00000000000E+00 0.  1.
         -1    1    6    6    0  502 -0.27353736523E+03 -0.14353949390E+02  0.17401403638E+03  0.32451442326E+03  0.00000000000E+00 0.  1.
<mgrwt>
<rscale>  0 0.19131413E+04</rscale>
<asrwt>0</asrwt>
<pdfrwt beam="1">  1        1 0.18928717E+00 0.19131413E+04</pdfrwt>
<pdfrwt beam="2">  1       -1 0.11441586E+00 0.19131413E+04</pdfrwt>
<totfact> 0.65946022E+00</totfact>
</mgrwt>
</event>
<event>
12    1  0.1397649E-007  0.2644623E+04  0.7818608E-02  0.8353200E-01
          2   -1    0    0  501    0  0.00000000000E+00  0.00000000000E+00  0.11416049625E+04  0.11416049625E+04  0.00000000000E+00 0. -1.
         -2   -1    0    0    0  501 -0.00000000000E+00 -0.00000000000E+00 -0.15316224123E+04  0.15316224123E+04  0.00000000000E+00 0.  1.
         23    2    1    2    0    0  0.77573757747E+02 -0.34930583927E+03  0.95751816890E+03  0.10263346007E+04  0.92138003123E+02 0.  0.
        254    2    1    2    0    0 -0.77573757747E+02  0.34930583927E+03 -0.13475356186E+04  0.16468927741E+04  0.87656791449E+03 0.  0.
        -24    2    4    4    0    0 -0.15201784201E+03  0.16455796253E+03  0.41442188908E+02  0.24143433424E+03  0.79902036316E+02 0.  0.
         24    2    4    4    0    0  0.74444084258E+02  0.18474787674E+03 -0.13889778076E+04  0.14054584399E+04  0.79877260425E+02 0.  0.
         13    1    3    3    0    0  0.33242692509E+02 -0.46499699951E+02  0.92066490773E+02  0.10836760320E+03  0.00000000000E+00 0.  1.
        -13    1    3    3    0    0  0.44331065238E+02 -0.30280613932E+03  0.86545167812E+03  0.91796699751E+03  0.00000000000E+00 0. -1.
          4    1    6    6  502    0  0.10099232656E+02  0.11882639966E+03 -0.66052512707E+03  0.67120425449E+03  0.00000000000E+00 0. -1.
          1    1    5    5  503    0 -0.18907136339E+02  0.53672372172E+02  0.37487784168E+02  0.68143505200E+02  0.00000000000E+00 0. -1.
         -2    1    5    5    0  503 -0.13311070567E+03  0.11088559036E+03  0.39544047405E+01  0.17329082904E+03  0.00000000000E+00 0.  1.
         -3    1    6    6    0  502  0.64344851603E+02  0.65921477081E+02 -0.72845268048E+03  0.73425418540E+03  0.00000000000E+00 0.  1.
<mgrwt>
<rscale>  0 0.26446230E+04</rscale>
<asrwt>0</asrwt>
<pdfrwt beam="1">  1        2 0.17563153E+00 0.26446230E+04</pdfrwt>
<pdfrwt beam="2">  1       -2 0.23563422E+00 0.26446230E+04</pdfrwt>
<totfact> 0.14273873E+00</totfact>
</mgrwt>
</event>
<event>
12    1  0.1397649E-007  0.2299865E+04  0.7818608E-02  0.8477974E-01
          2   -1    0    0  501    0  0.00000000000E+00  0.00000000000E+00  0.50606386326E+04  0.50606386326E+04  0.00000000000E+00 0. -1.
         -2   -1    0    0    0  501 -0.00000000000E+00 -0.00000000000E+00 -0.26129992252E+03  0.26129992252E+03  0.00000000000E+00 0.  1.
         23    2    1    2    0    0 -0.77530738011E+02 -0.18929337598E+03  0.41076375577E+04  0.41137135141E+04  0.90053167880E+02 0.  0.
        254    2    1    2    0    0  0.77530738011E+02  0.18929337598E+03  0.69170115236E+03  0.12082250410E+04  0.96928544197E+03 0.  0.
        -24    2    4    4    0    0  0.46300710981E+03 -0.12603726085E+03  0.34709414961E+03  0.59757085866E+03  0.79722064545E+02 0.  0.
         24    2    4    4    0    0 -0.38547637179E+03  0.31533063683E+03  0.34460700275E+03  0.61065418234E+03  0.78224678524E+02 0.  0.
         13    1    3    3    0    0 -0.48161621867E+02 -0.16548679175E+03  0.26574364219E+04  0.26630196688E+04  0.00000000000E+00 0. -1.
        -13    1    3    3    0    0 -0.29369116143E+02 -0.23806584235E+02  0.14502011358E+04  0.14506938453E+04  0.00000000000E+00 0.  1.
          4    1    6    6  502    0 -0.23837006964E+03  0.23788908677E+03  0.24956491842E+03  0.41915886751E+03  0.00000000000E+00 0. -1.
          3    1    5    5  503    0  0.28246783420E+03 -0.10795873937E+03  0.18661898266E+03  0.35534463757E+03  0.00000000000E+00 0. -1.
         -4    1    5    5    0  503  0.18053927561E+03 -0.18078521483E+02  0.16047516694E+03  0.24222622109E+03  0.00000000000E+00 0.  1.
         -3    1    6    6    0  502 -0.14710630216E+03  0.77441550066E+02  0.95042084331E+02  0.19149531484E+03  0.00000000000E+00 0.  1.
<mgrwt>
<rscale>  0 0.22998648E+04</rscale>
<asrwt>0</asrwt>
<pdfrwt beam="1">  1        2 0.77855972E+00 0.22998648E+04</pdfrwt>
<pdfrwt beam="2">  1       -2 0.40199992E-01 0.22998648E+04</pdfrwt>
<totfact> 0.15471650E-01</totfact>
</mgrwt>
</event>
<event>
12    1  0.1397649E-007  0.1249081E+04  0.7818608E-02  0.9070949E-01
          1   -1    0    0  501    0  0.00000000000E+00  0.00000000000E+00  0.30142681727E+03  0.30142681727E+03  0.00000000000E+00 0.  1.
         -1   -1    0    0    0  501 -0.00000000000E+00 -0.00000000000E+00 -0.12940143515E+04  0.12940143515E+04  0.00000000000E+00 0. -1.
         23    2    1    2    0    0 -0.27530915059E+03 -0.11764359800E+03 -0.25373569950E+03  0.40272898724E+03  0.90408447704E+02 0.  0.
        254    2    1    2    0    0  0.27530915059E+03  0.11764359800E+03 -0.73885183473E+03  0.11927121815E+04  0.88714439056E+03 0.  0.
        -24    2    4    4    0    0  0.79409506684E+02  0.24366876998E+03  0.12458325933E+03  0.29532717954E+03  0.77568132979E+02 0.  0.
         24    2    4    4    0    0  0.19589964390E+03 -0.12602517198E+03 -0.86343509406E+03  0.89738500198E+03  0.74301182158E+02 0.  0.
         13    1    3    3    0    0 -0.12815828354E+03 -0.79706621066E+02 -0.76298824547E+02  0.16911298504E+03  0.00000000000E+00 0.  1.
        -13    1    3    3    0    0 -0.14715086704E+03 -0.37936976937E+02 -0.17743687495E+03  0.23361600220E+03  0.00000000000E+00 0. -1.
          4    1    6    6  502    0  0.16120331373E+03 -0.82748918365E+02 -0.55001296900E+03  0.57909252967E+03  0.00000000000E+00 0. -1.
          1    1    5    5  503    0  0.23533004688E+02  0.18540190366E+03  0.82521422359E+02  0.20429746288E+03  0.00000000000E+00 0. -1.
         -4    1    5    5    0  503  0.55876501996E+02  0.58266866323E+02  0.42061836970E+02  0.91029716662E+02  0.00000000000E+00 0.  1.
         -3    1    6    6    0  502  0.34696330178E+02 -0.43276253614E+02 -0.31342212505E+03  0.31829247231E+03  0.00000000000E+00 0.  1.
<mgrwt>
<rscale>  0 0.12490807E+04</rscale>
<asrwt>0</asrwt>
<pdfrwt beam="1">  1        1 0.46373356E-01 0.12490807E+04</pdfrwt>
<pdfrwt beam="2">  1       -1 0.19907913E+00 0.12490807E+04</pdfrwt>
<totfact> 0.13126043E+01</totfact>
</mgrwt>
</event>
<event>
12    1  0.1397649E-007  0.1214888E+04  0.7818608E-02  0.9099924E-01
          1   -1    0    0  501    0  0.00000000000E+00  0.00000000000E+00  0.32800338596E+03  0.32800338596E+03  0.00000000000E+00 0. -1.
         -1   -1    0    0    0  501 -0.00000000000E+00 -0.00000000000E+00 -0.11249531441E+04  0.11249531441E+04  0.00000000000E+00 0.  1.
         23    2    1    2    0    0 -0.43649724683E+02 -0.27376506193E+03 -0.14327912804E+03  0.32467318040E+03  0.89616727997E+02 0.  0.
        254    2    1    2    0    0  0.43649724683E+02  0.27376506193E+03 -0.65367063013E+03  0.11282833497E+04  0.87686111607E+03 0.  0.
        -24    2    4    4    0    0 -0.17136901598E+03 -0.12543845169E+03  0.98440991968E+02  0.24639064807E+03  0.76912793181E+02 0.  0.
         24    2    4    4    0    0  0.21501874066E+03  0.39920351362E+03 -0.75211162210E+03  0.88189270162E+03  0.80413561995E+02 0.  0.
         13    1    3    3    0    0 -0.51307167311E+01 -0.23552594814E+03 -0.10315833960E+03  0.25717783640E+03  0.00000000000E+00 0. -1.
        -13    1    3    3    0    0 -0.38519007952E+02 -0.38239113789E+02 -0.40120788439E+02  0.67495344002E+02  0.00000000000E+00 0.  1.
          4    1    6    6  502    0 -0.23850930937E+01  0.42526360035E+02 -0.62359147912E+02  0.75517172188E+02  0.00000000000E+00 0. -1.
          3    1    5    5  503    0  0.45811361537E+01 -0.16896777556E+02  0.16344471733E+02  0.23950566934E+02  0.00000000000E+00 0. -1.
         -4    1    5    5    0  503 -0.17595015213E+03 -0.10854167413E+03  0.82096520235E+02  0.22244008113E+03  0.00000000000E+00 0.  1.
         -3    1    6    6    0  502  0.21740383376E+03  0.35667715359E+03 -0.68975247418E+03  0.80637552943E+03  0.00000000000E+00 0.  1.
<mgrwt>
<rscale>  0 0.12148884E+04</rscale>
<asrwt>0</asrwt>
<pdfrwt beam="1">  1        1 0.50462059E-01 0.12148884E+04</pdfrwt>
<pdfrwt beam="2">  1       -1 0.17306972E+00 0.12148884E+04</pdfrwt>
<totfact> 0.18018092E+01</totfact>
</mgrwt>
</event>
<event>
12    1  0.1397649E-007  0.1505690E+04  0.7818608E-02  0.8880678E-01
         -2   -1    0    0    0  501 -0.00000000000E+00  0.00000000000E+00  0.17155543341E+03  0.17155543341E+03  0.00000000000E+00 0.  1.
          2   -1    0    0  501    0  0.00000000000E+00 -0.00000000000E+00 -0.33037453701E+04  0.33037453701E+04  0.00000000000E+00 0. -1.
         23    2    1    2    0    0 -0.16712928678E+02  0.12044205784E+03 -0.20591794729E+04  0.20650914146E+04  0.97963451891E+02 0.  0.
        254    2    1    2    0    0  0.16712928678E+02 -0.12044205784E+03 -0.10730104638E+04  0.14102093889E+04  0.90694732691E+03 0.  0.
        -24    2    4    4    0    0  0.11413943256E+02 -0.30670168781E+03  0.30120118165E+01  0.31525759342E+03  0.71986627836E+02 0.  0.
         24    2    4    4    0    0  0.52989854223E+01  0.18625962997E+03 -0.10760224756E+04  0.10949517954E+04  0.79839447404E+02 0.  0.
         11    1    3    3    0    0 -0.35625783258E+02  0.18050863867E+01 -0.53135841014E+03  0.53255442426E+03  0.00000000000E+00 0.  1.
        -11    1    3    3    0    0  0.18912854580E+02  0.11863697145E+03 -0.15278210627E+04  0.15325369904E+04  0.00000000000E+00 0. -1.
          4    1    6    6  502    0  0.61378452779E+01  0.12019236166E+03 -0.87769918570E+03  0.88591181137E+03  0.00000000000E+00 0. -1.
          1    1    5    5  503    0 -0.37871823939E+01 -0.28751570598E+03  0.15141607923E+02  0.28793904255E+03  0.00000000000E+00 0. -1.
         -2    1    5    5    0  503  0.15201125650E+02 -0.19185981834E+02 -0.12129596106E+02  0.27318550870E+02  0.00000000000E+00 0.  1.
         -3    1    6    6    0  502 -0.83885985564E+00  0.66067268311E+02 -0.19832328989E+03  0.20903998408E+03  0.00000000000E+00 0.  1.
<mgrwt>
<rscale>  0 0.15056898E+04</rscale>
<asrwt>0</asrwt>
<pdfrwt beam="1">  1        2 0.50826854E+00 0.15056898E+04</pdfrwt>
<pdfrwt beam="2">  1       -2 0.26393142E-01 0.15056898E+04</pdfrwt>
<totfact> 0.14054660E+01</totfact>
</mgrwt>
</event>
<event>
12    1  0.1397649E-007  0.1229627E+04  0.7818608E-02  0.9087312E-01
         -1   -1    0    0    0  501 -0.00000000000E+00  0.00000000000E+00  0.54841553929E+03  0.54841553929E+03  0.00000000000E+00 0.  1.
          1   -1    0    0  501    0  0.00000000000E+00 -0.00000000000E+00 -0.68924997771E+03  0.68924997771E+03  0.00000000000E+00 0. -1.
         23    2    1    2    0    0 -0.21289166336E+03 -0.16426264048E+03  0.36681662359E+02  0.28472642335E+03  0.86130809898E+02 0.  0.
        254    2    1    2    0    0  0.21289166336E+03  0.16426264048E+03 -0.17751610078E+03  0.95293909365E+03  0.89681429225E+03 0.  0.
        -24    2    4    4    0    0 -0.99109794509E+02  0.21004222042E+03  0.29130247125E+03  0.38219558157E+03  0.85298576125E+02 0.  0.
         24    2    4    4    0    0  0.31200145787E+03 -0.45779579937E+02 -0.46881857203E+03  0.57074351208E+03  0.80725605925E+02 0.  0.
         13    1    3    3    0    0 -0.20888093625E+03 -0.17333799396E+03  0.30763493248E+02  0.27317338486E+03  0.00000000000E+00 0.  1.
        -13    1    3    3    0    0 -0.40107271077E+01  0.90753534784E+01  0.59181691105E+01  0.11553038488E+02  0.00000000000E+00 0. -1.
          4    1    6    6  502    0  0.25034411304E+03 -0.22079401927E+02 -0.41662898376E+03  0.48655871694E+03  0.00000000000E+00 0. -1.
          1    1    5    5  503    0 -0.83735576668E+02  0.16924494985E+03  0.27900480174E+03  0.33689639244E+03  0.00000000000E+00 0. -1.
         -2    1    5    5    0  503 -0.15374217841E+02  0.40797270565E+02  0.12297669513E+02  0.45299189124E+02  0.00000000000E+00 0.  1.
         -3    1    6    6    0  502  0.61657344828E+02 -0.23700178010E+02 -0.52189588271E+02  0.84184795140E+02  0.00000000000E+00 0.  1.
<mgrwt>
<rscale>  0 0.12296266E+04</rscale>
<asrwt>0</asrwt>
<pdfrwt beam="1">  1        1 0.10603846E+00 0.12296266E+04</pdfrwt>
<pdfrwt beam="2">  1       -1 0.84371621E-01 0.12296266E+04</pdfrwt>
<totfact> 0.38346083E+01</totfact>
</mgrwt>
</event>
<event>
12    1  0.2109080E-007  0.2426325E+04  0.7818608E-02  0.8429713E-01
         -2   -1    0    0    0  501 -0.00000000000E+00  0.00000000000E+00  0.11606716009E+04  0.11606716009E+04  0.00000000000E+00 0.  1.
          2   -1    0    0  501    0  0.00000000000E+00 -0.00000000000E+00 -0.12680275809E+04  0.12680275809E+04  0.00000000000E+00 0. -1.
         23    2    1    2    0    0 -0.85558807916E+02  0.84823938643E+03  0.55778839038E+03  0.10228001328E+04  0.90342996430E+02 0.  0.
        254    2    1    2    0    0  0.85558807916E+02 -0.84823938643E+03 -0.66514437042E+03  0.14058990490E+04  0.89850138347E+03 0.  0.
        -24    2    4    4    0    0  0.13505954333E+03  0.15977732455E+03 -0.15108073625E+03  0.27048164088E+03  0.81025030113E+02 0.  0.
         24    2    4    4    0    0 -0.49500735417E+02 -0.10080167110E+04 -0.51406363418E+03  0.11354174081E+04  0.79770033219E+02 0.  0.
         13    1    3    3    0    0  0.89173298446E+01  0.86474388403E+01  0.76889959405E+01  0.14608820234E+02  0.00000000000E+00 0.  1.
        -13    1    3    3    0    0 -0.94476137761E+02  0.83959194759E+03  0.55009939444E+03  0.10081913126E+04  0.00000000000E+00 0. -1.
          4    1    6    6  502    0 -0.40467693950E+02 -0.86263565123E+03 -0.40727307752E+03  0.95480325758E+03  0.00000000000E+00 0. -1.
          3    1    5    5  503    0  0.13482230541E+03  0.11208656810E+03 -0.13036956731E+03  0.21848724646E+03  0.00000000000E+00 0. -1.
         -4    1    5    5    0  503  0.23723791896E+00  0.47690756450E+02 -0.20711168934E+02  0.51994394421E+02  0.00000000000E+00 0.  1.
         -3    1    6    6    0  502 -0.90330414674E+01 -0.14538105975E+03 -0.10679055666E+03  0.18061415051E+03  0.00000000000E+00 0.  1.
<mgrwt>
<rscale>  0 0.24263253E+04</rscale>
<asrwt>0</asrwt>
<pdfrwt beam="1">  1        2 0.19508117E+00 0.24263253E+04</pdfrwt>
<pdfrwt beam="2">  1       -2 0.17856486E+00 0.24263253E+04</pdfrwt>
<totfact> 0.28735111E+00</totfact>
</mgrwt>
</event>
<event>
12    1  0.1397649E-007  0.2248343E+04  0.7818608E-02  0.8498572E-01
          1   -1    0    0  501    0  0.00000000000E+00  0.00000000000E+00  0.13059450736E+04  0.13059450736E+04  0.00000000000E+00 0. -1.
         -1   -1    0    0    0  501 -0.00000000000E+00 -0.00000000000E+00 -0.96769901919E+03  0.96769901919E+03  0.00000000000E+00 0.  1.
         23    2    1    2    0    0 -0.36328369378E+03  0.11541683731E+03 -0.72638205996E+03  0.82546594411E+03  0.92016516735E+02 0.  0.
        254    2    1    2    0    0  0.36328369378E+03 -0.11541683731E+03  0.10646281144E+04  0.14481781487E+04  0.90470483580E+03 0.  0.
        -24    2    4    4    0    0 -0.19869926694E+02 -0.10170311578E+02  0.10381200707E+04  0.10415456636E+04  0.81399256886E+02 0.  0.
         24    2    4    4    0    0  0.38315362048E+03 -0.10524652573E+03  0.26508043687E+02  0.40663248507E+03  0.82242163577E+02 0.  0.
         11    1    3    3    0    0 -0.52123404517E+02  0.33284965322E+02 -0.19145387419E+03  0.20119474188E+03  0.00000000000E+00 0. -1.
        -11    1    3    3    0    0 -0.31116028926E+03  0.82131871987E+02 -0.53492818577E+03  0.62427120223E+03  0.00000000000E+00 0.  1.
          2    1    6    6  502    0  0.37972989531E+03 -0.10428193519E+03  0.14442366590E+02  0.39405341941E+03  0.00000000000E+00 0. -1.
          1    1    5    5  503    0 -0.44355852841E+02 -0.28813056328E+02  0.72013450824E+03  0.72207433402E+03  0.00000000000E+00 0. -1.
         -2    1    5    5    0  503  0.24485926147E+02  0.18642744750E+02  0.31798556245E+03  0.31947132960E+03  0.00000000000E+00 0.  1.
         -1    1    6    6    0  502  0.34237251658E+01 -0.96459054253E+00  0.12065677097E+02  0.12579065654E+02  0.00000000000E+00 0.  1.
<mgrwt>
<rscale>  0 0.22483432E+04</rscale>
<asrwt>0</asrwt>
<pdfrwt beam="1">  1        1 0.20091463E+00 0.22483432E+04</pdfrwt>
<pdfrwt beam="2">  1       -1 0.14887677E+00 0.22483432E+04</pdfrwt>
<totfact> 0.28957701E+00</totfact>
</mgrwt>
</event>
<event>
12    1  0.1737907E-007  0.1517228E+04  0.7818608E-02  0.8873077E-01
         -2   -1    0    0    0  501 -0.00000000000E+00  0.00000000000E+00  0.35593721589E+03  0.35593721589E+03  0.00000000000E+00 0.  1.
          2   -1    0    0  501    0  0.00000000000E+00 -0.00000000000E+00 -0.16168444400E+04  0.16168444400E+04  0.00000000000E+00 0. -1.
         23    2    1    2    0    0  0.14922151588E+03 -0.14240060380E+03 -0.96441630603E+03  0.99052215264E+03  0.92142990935E+02 0.  0.
        254    2    1    2    0    0 -0.14922151588E+03  0.14240060380E+03 -0.29649091805E+03  0.98225950321E+03  0.91344505823E+03 0.  0.
        -24    2    4    4    0    0  0.10724538077E+03 -0.20311264595E+03  0.20382014610E+03  0.31803546166E+03  0.82750131547E+02 0.  0.
         24    2    4    4    0    0 -0.25646689665E+03  0.34551324975E+03 -0.50031106415E+03  0.66422404156E+03  0.75681844823E+02 0.  0.
         13    1    3    3    0    0  0.13737755668E+03 -0.14076811706E+03 -0.95568816846E+03  0.97571928914E+03  0.00000000000E+00 0. -1.
        -13    1    3    3    0    0  0.11843959202E+02 -0.16324867373E+01 -0.87281375657E+01  0.14802863503E+02  0.00000000000E+00 0.  1.
          2    1    6    6  502    0 -0.43765029006E+02  0.59091471635E+02 -0.46635434898E+02  0.87074930790E+02  0.00000000000E+00 0. -1.
          3    1    5    5  503    0 -0.13474257673E+01  0.56945799587E+01 -0.11181041584E+01  0.59576802544E+01  0.00000000000E+00 0. -1.
         -4    1    5    5    0  503  0.10859280654E+03 -0.20880722591E+03  0.20493825026E+03  0.31207778140E+03  0.00000000000E+00 0.  1.
         -1    1    6    6    0  502 -0.21270186765E+03  0.28642177812E+03 -0.45367562925E+03  0.57714911077E+03  0.00000000000E+00 0.  1.
<mgrwt>
<rscale>  0 0.15172279E+04</rscale>
<asrwt>0</asrwt>
<pdfrwt beam="1">  1        2 0.24874530E+00 0.15172279E+04</pdfrwt>
<pdfrwt beam="2">  1       -2 0.54759571E-01 0.15172279E+04</pdfrwt>
<totfact> 0.33031925E+01</totfact>
</mgrwt>
</event>
<event>
12    1  0.1397649E-007  0.2078945E+04  0.7818608E-02  0.8570575E-01
          2   -1    0    0  501    0  0.00000000000E+00  0.00000000000E+00  0.15977169843E+04  0.15977169843E+04  0.00000000000E+00 0. -1.
         -2   -1    0    0    0  501 -0.00000000000E+00 -0.00000000000E+00 -0.67627955547E+03  0.67627955547E+03  0.00000000000E+00 0.  1.
         23    2    1    2    0    0  0.69707417240E+03  0.35104571218E+03  0.73291349316E+03  0.10746972365E+04  0.93093865117E+02 0.  0.
        254    2    1    2    0    0 -0.69707417240E+03 -0.35104571218E+03  0.18852393564E+03  0.11992993033E+04  0.89086028686E+03 0.  0.
        -24    2    4    4    0    0 -0.85292599261E+03 -0.40712855253E+03  0.28692586362E+03  0.99074136320E+03  0.77495744331E+02 0.  0.
         24    2    4    4    0    0  0.15585182021E+03  0.56082840345E+02 -0.98401927974E+02  0.20855794010E+03  0.79864886557E+02 0.  0.
         13    1    3    3    0    0  0.69612354743E+03  0.34417419555E+03  0.71540154883E+03  0.10558613764E+04  0.00000000000E+00 0. -1.
        -13    1    3    3    0    0  0.95062496764E+00  0.68715166344E+01  0.17511944329E+02  0.18835860024E+02  0.00000000000E+00 0.  1.
          4    1    6    6  502    0  0.42941310197E+02  0.13262475111E+02  0.10270800036E+02  0.46101395867E+02  0.00000000000E+00 0. -1.
          1    1    5    5  503    0 -0.47211157914E+03 -0.23414576833E+03  0.12050670910E+03  0.54058806028E+03  0.00000000000E+00 0. -1.
         -2    1    5    5    0  503 -0.38081441347E+03 -0.17298278420E+03  0.16641915451E+03  0.45015330291E+03  0.00000000000E+00 0.  1.
         -3    1    6    6    0  502  0.11291051001E+03  0.42820365234E+02 -0.10867272801E+03  0.16245654423E+03  0.00000000000E+00 0.  1.
<mgrwt>
<rscale>  0 0.20789452E+04</rscale>
<asrwt>0</asrwt>
<pdfrwt beam="1">  1        2 0.24580261E+00 0.20789452E+04</pdfrwt>
<pdfrwt beam="2">  1       -2 0.10404301E+00 0.20789452E+04</pdfrwt>
<totfact> 0.77591420E+00</totfact>
</mgrwt>
</event>
<event>
12    1  0.1397649E-007  0.2446204E+04  0.7818608E-02  0.8422405E-01
         -1   -1    0    0    0  501 -0.00000000000E+00  0.00000000000E+00  0.64659533817E+03  0.64659533817E+03  0.00000000000E+00 0.  1.
          1   -1    0    0  501    0  0.00000000000E+00 -0.00000000000E+00 -0.23136234918E+04  0.23136234918E+04  0.00000000000E+00 0. -1.
         23    2    1    2    0    0  0.94239699201E+02  0.10082473833E+04 -0.11481703953E+04  0.15336965731E+04  0.92119567853E+02 0.  0.
        254    2    1    2    0    0 -0.94239699201E+02 -0.10082473833E+04 -0.51885775838E+03  0.14265222569E+04  0.86041180205E+03 0.  0.
        -24    2    4    4    0    0  0.14225524590E+03 -0.82905910912E+03 -0.67530908963E+03  0.10816789394E+04  0.80071218485E+02 0.  0.
         24    2    4    4    0    0 -0.23649494510E+03 -0.17918827422E+03  0.15645133125E+03  0.34484331750E+03  0.80009986240E+02 0.  0.
         11    1    3    3    0    0  0.10217175163E+03  0.93304777604E+03 -0.10889698891E+04  0.14376622130E+04  0.00000000000E+00 0. -1.
        -11    1    3    3    0    0 -0.79320524254E+01  0.75199607303E+02 -0.59200506209E+02  0.96034360151E+02  0.00000000000E+00 0.  1.
          2    1    6    6  502    0 -0.31108453197E+01 -0.26866933701E+02  0.45022607339E+01  0.27418603845E+02  0.00000000000E+00 0. -1.
          1    1    5    5  503    0  0.91712635204E+02 -0.60370325836E+03 -0.53202331147E+03  0.80988742154E+03  0.00000000000E+00 0. -1.
         -2    1    5    5    0  503  0.50542610693E+02 -0.22535585076E+03 -0.14328577816E+03  0.27179151788E+03  0.00000000000E+00 0.  1.
         -1    1    6    6    0  502 -0.23338409978E+03 -0.15232134052E+03  0.15194907051E+03  0.31742471365E+03  0.00000000000E+00 0.  1.
<mgrwt>
<rscale>  0 0.24462037E+04</rscale>
<asrwt>0</asrwt>
<pdfrwt beam="1">  1        1 0.35594208E+00 0.24462037E+04</pdfrwt>
<pdfrwt beam="2">  1       -1 0.99476204E-01 0.24462037E+04</pdfrwt>
<totfact> 0.15679058E+00</totfact>
</mgrwt>
</event>
<event>
12    1  0.1397649E-007  0.1840044E+04  0.7818608E-02  0.8685290E-01
          1   -1    0    0  501    0  0.00000000000E+00  0.00000000000E+00  0.18942626477E+04  0.18942626477E+04  0.00000000000E+00 0. -1.
         -1   -1    0    0    0  501 -0.00000000000E+00 -0.00000000000E+00 -0.44684432589E+03  0.44684432589E+03  0.00000000000E+00 0.  1.
         23    2    1    2    0    0  0.38871515536E+02 -0.24143061329E+03 -0.27733949050E+03  0.38104009323E+03  0.92057720492E+02 0.  0.
        254    2    1    2    0    0 -0.38871515536E+02  0.24143061329E+03  0.17247578123E+04  0.19600668804E+04  0.89848368302E+03 0.  0.
        -24    2    4    4    0    0  0.26107994308E+03 -0.11178339439E+03  0.17906669733E+03  0.34483736574E+03  0.78674409938E+02 0.  0.
         24    2    4    4    0    0 -0.29995145861E+03  0.35321400768E+03  0.15456911150E+04  0.16152295146E+04  0.71234466804E+02 0.  0.
         13    1    3    3    0    0 -0.33165641497E+01 -0.20345034532E+03 -0.20209377221E+03  0.28678377809E+03  0.00000000000E+00 0.  1.
        -13    1    3    3    0    0  0.42188079686E+02 -0.37980267971E+02 -0.75245718288E+02  0.94256315138E+02  0.00000000000E+00 0. -1.
          4    1    6    6  502    0  0.35137688612E+01  0.47818347167E+01  0.33507719365E+02  0.34029101838E+02  0.00000000000E+00 0. -1.
          1    1    5    5  503    0  0.10225850987E+01 -0.15932555755E+02  0.18848313270E+02  0.24701233295E+02  0.00000000000E+00 0. -1.
         -2    1    5    5    0  503  0.26005735798E+03 -0.95850838636E+02  0.16021838406E+03  0.32013613244E+03  0.00000000000E+00 0.  1.
         -3    1    6    6    0  502 -0.30346522747E+03  0.34843217297E+03  0.15121833956E+04  0.15812004128E+04  0.00000000000E+00 0.  1.
<mgrwt>
<rscale>  0 0.18400440E+04</rscale>
<asrwt>0</asrwt>
<pdfrwt beam="1">  1        1 0.29142502E+00 0.18400440E+04</pdfrwt>
<pdfrwt beam="2">  1       -1 0.68745282E-01 0.18400440E+04</pdfrwt>
<totfact> 0.70787234E+00</totfact>
</mgrwt>
</event>
<event>
12    1  0.1397649E-007  0.1809832E+04  0.7818608E-02  0.8701088E-01
          1   -1    0    0  501    0  0.00000000000E+00  0.00000000000E+00  0.24553760449E+04  0.24553760449E+04  0.00000000000E+00 0. -1.
         -1   -1    0    0    0  501 -0.00000000000E+00 -0.00000000000E+00 -0.33350198977E+03  0.33350198977E+03  0.00000000000E+00 0.  1.
         23    2    1    2    0    0 -0.33208799790E+03 -0.57797131568E+03  0.10343825713E+04  0.12340194200E+04  0.92321964095E+02 0.  0.
        254    2    1    2    0    0  0.33208799790E+03  0.57797131568E+03  0.10874914838E+04  0.15548586147E+04  0.88916494763E+03 0.  0.
        -24    2    4    4    0    0 -0.28890027366E+03  0.30891350333E+03  0.41748139324E+03  0.59958492000E+03  0.79501207097E+02 0.  0.
         24    2    4    4    0    0  0.62098827156E+03  0.26905781235E+03  0.67001009061E+03  0.95527369468E+03  0.74938444221E+02 0.  0.
         11    1    3    3    0    0 -0.20432059815E+03 -0.27448177205E+03  0.56794821868E+03  0.66306283950E+03  0.00000000000E+00 0. -1.
        -11    1    3    3    0    0 -0.12776739975E+03 -0.30348954362E+03  0.46643435265E+03  0.57095658054E+03  0.00000000000E+00 0.  1.
          2    1    6    6  502    0  0.15973266505E+03  0.34560175246E+02  0.16507338688E+03  0.23228894303E+03  0.00000000000E+00 0. -1.
          3    1    5    5  503    0 -0.15070153743E+03  0.20775569366E+03  0.28115972759E+03  0.38068907793E+03  0.00000000000E+00 0. -1.
         -4    1    5    5    0  503 -0.13819873623E+03  0.10115780966E+03  0.13632166565E+03  0.21889584207E+03  0.00000000000E+00 0.  1.
         -1    1    6    6    0  502  0.46125560651E+03  0.23449763710E+03  0.50493670373E+03  0.72298475165E+03  0.00000000000E+00 0.  1.
<mgrwt>
<rscale>  0 0.18098318E+04</rscale>
<asrwt>0</asrwt>
<pdfrwt beam="1">  1        1 0.37775015E+00 0.18098318E+04</pdfrwt>
<pdfrwt beam="2">  1       -1 0.51308000E-01 0.18098318E+04</pdfrwt>
<totfact> 0.52450234E+00</totfact>
</mgrwt>
</event>
<event>
12    1  0.1397649E-007  0.1461382E+04  0.7818608E-02  0.8910547E-01
         -1   -1    0    0    0  501 -0.00000000000E+00  0.00000000000E+00  0.87949106353E+03  0.87949106353E+03  0.00000000000E+00 0.  1.
          1   -1    0    0  501    0  0.00000000000E+00 -0.00000000000E+00 -0.60706647116E+03  0.60706647116E+03  0.00000000000E+00 0. -1.
         23    2    1    2    0    0  0.94308997309E+01 -0.25401146576E+02 -0.36634649768E+03  0.37842955497E+03  0.90912109196E+02 0.  0.
        254    2    1    2    0    0 -0.94308997309E+01  0.25401146576E+02  0.63877109005E+03  0.11081279797E+04  0.90508836796E+03 0.  0.
        -24    2    4    4    0    0 -0.12360406619E+03  0.43864614097E+03  0.40008216218E+03  0.61118832056E+03  0.76138193601E+02 0.  0.
         24    2    4    4    0    0  0.11417316646E+03 -0.41324499439E+03  0.23868892787E+03  0.49693965915E+03  0.78547331106E+02 0.  0.
         13    1    3    3    0    0  0.27727693420E+02  0.23717177349E+02 -0.21942923716E+03  0.22244217137E+03  0.00000000000E+00 0. -1.
        -13    1    3    3    0    0 -0.18296793689E+02 -0.49118323925E+02 -0.14691726051E+03  0.15598738360E+03  0.00000000000E+00 0.  1.
          4    1    6    6  502    0  0.63228187090E+02 -0.33878001481E+03  0.17512263146E+03  0.38657164683E+03  0.00000000000E+00 0. -1.
          3    1    5    5  503    0 -0.74699148025E+02  0.14895355334E+03  0.12061202495E+03  0.20570460455E+03  0.00000000000E+00 0. -1.
         -4    1    5    5    0  503 -0.48904918164E+02  0.28969258763E+03  0.27947013723E+03  0.40548371601E+03  0.00000000000E+00 0.  1.
         -3    1    6    6    0  502  0.50944979368E+02 -0.74464979581E+02  0.63566296406E+02  0.11036801233E+03  0.00000000000E+00 0.  1.
<mgrwt>
<rscale>  0 0.14613823E+04</rscale>
<asrwt>0</asrwt>
<pdfrwt beam="1">  1        1 0.93394841E-01 0.14613823E+04</pdfrwt>
<pdfrwt beam="2">  1       -1 0.13530632E+00 0.14613823E+04</pdfrwt>
<totfact> 0.14966427E+01</totfact>
</mgrwt>
</event>
<event>
12    1  0.1397649E-007  0.2495746E+04  0.7818608E-02  0.8404503E-01
         -1   -1    0    0    0  501 -0.00000000000E+00  0.00000000000E+00  0.51049933802E+03  0.51049933802E+03  0.00000000000E+00 0.  1.
          1   -1    0    0  501    0  0.00000000000E+00 -0.00000000000E+00 -0.30503220450E+04  0.30503220450E+04  0.00000000000E+00 0. -1.
         23    2    1    2    0    0  0.10548431679E+04  0.13153362462E+03 -0.13954399434E+04  0.17571494145E+04  0.10161804002E+03 0.  0.
        254    2    1    2    0    0 -0.10548431679E+04 -0.13153362462E+03 -0.11443827636E+04  0.18036719685E+04  0.90201189405E+03 0.  0.
        -24    2    4    4    0    0 -0.98968583214E+03 -0.20348247714E+02 -0.12674585078E+04  0.16101313463E+04  0.78611613582E+02 0.  0.
         24    2    4    4    0    0 -0.65157335762E+02 -0.11118537691E+03  0.12307574422E+03  0.19354062219E+03  0.75516006112E+02 0.  0.
         13    1    3    3    0    0  0.73749628989E+03  0.62211004063E+02 -0.90857888099E+03  0.11718731030E+04  0.00000000000E+00 0. -1.
        -13    1    3    3    0    0  0.31734687801E+03  0.69322620558E+02 -0.48686106242E+03  0.58527631150E+03  0.00000000000E+00 0.  1.
          4    1    6    6  502    0 -0.53192734045E+01 -0.82923659753E+02  0.65057977227E+02  0.10553278361E+03  0.00000000000E+00 0. -1.
          3    1    5    5  503    0 -0.99095036593E+03 -0.21612660656E+02 -0.12657230268E+04  0.16076394233E+04  0.00000000000E+00 0. -1.
         -4    1    5    5    0  503  0.12645337913E+01  0.12644129420E+01 -0.17354810101E+01  0.24919229790E+01  0.00000000000E+00 0.  1.
         -3    1    6    6    0  502 -0.59838062357E+02 -0.28261717154E+02  0.58017766997E+02  0.88007838574E+02  0.00000000000E+00 0.  1.
<mgrwt>
<rscale>  0 0.24957463E+04</rscale>
<asrwt>0</asrwt>
<pdfrwt beam="1">  1        1 0.46928032E+00 0.24957463E+04</pdfrwt>
<pdfrwt beam="2">  1       -1 0.78538359E-01 0.24957463E+04</pdfrwt>
<totfact> 0.79171637E-01</totfact>
</mgrwt>
</event>
<event>
12    1  0.1397649E-007  0.1498982E+04  0.7818608E-02  0.8885130E-01
         -1   -1    0    0    0  501 -0.00000000000E+00  0.00000000000E+00  0.33986883382E+03  0.33986883382E+03  0.00000000000E+00 0.  1.
          1   -1    0    0  501    0  0.00000000000E+00 -0.00000000000E+00 -0.16528056251E+04  0.16528056251E+04  0.00000000000E+00 0. -1.
         23    2    1    2    0    0  0.14324209049E+03 -0.19118901233E+03  0.12511912716E+03  0.28445063966E+03  0.90475607213E+02 0.  0.
        254    2    1    2    0    0 -0.14324209049E+03  0.19118901233E+03 -0.14380559185E+04  0.17082238193E+04  0.89047866747E+03 0.  0.
        -24    2    4    4    0    0 -0.33216783995E+03 -0.93588554954E+02 -0.17045658266E+03  0.39333746373E+03  0.81022356730E+02 0.  0.
         24    2    4    4    0    0  0.18892574946E+03  0.28477756728E+03 -0.12675993358E+04  0.13148863556E+04  0.72985274236E+02 0.  0.
         13    1    3    3    0    0  0.13207433422E+03 -0.11922973528E+03  0.11258753575E+03  0.21055952303E+03  0.00000000000E+00 0.  1.
        -13    1    3    3    0    0  0.11167756273E+02 -0.71959277049E+02  0.12531591411E+02  0.73891116631E+02  0.00000000000E+00 0. -1.
          4    1    6    6  502    0  0.78499718029E+02  0.17272864316E+03 -0.61549014493E+03  0.64406949035E+03  0.00000000000E+00 0. -1.
          1    1    5    5  503    0 -0.32657673484E+03 -0.10364091422E+03 -0.16162583101E+03  0.37883599630E+03  0.00000000000E+00 0. -1.
         -2    1    5    5    0  503 -0.55911051044E+01  0.10052359264E+02 -0.88307516534E+01  0.14501467437E+02  0.00000000000E+00 0.  1.
         -3    1    6    6    0  502  0.11042603143E+03  0.11204892412E+03 -0.65210919089E+03  0.67081686522E+03  0.00000000000E+00 0.  1.
<mgrwt>
<rscale>  0 0.14989825E+04</rscale>
<asrwt>0</asrwt>
<pdfrwt beam="1">  1        1 0.25427778E+00 0.14989825E+04</pdfrwt>
<pdfrwt beam="2">  1       -1 0.52287514E-01 0.14989825E+04</pdfrwt>
<totfact> 0.18298086E+01</totfact>
</mgrwt>
</event>
<event>
12    1  0.1397649E-007  0.2015381E+04  0.7818608E-02  0.8599463E-01
         -2   -1    0    0    0  501 -0.00000000000E+00  0.00000000000E+00  0.10376355961E+04  0.10376355961E+04  0.00000000000E+00 0.  1.
          2   -1    0    0  501    0  0.00000000000E+00 -0.00000000000E+00 -0.97860940136E+03  0.97860940136E+03  0.00000000000E+00 0. -1.
         23    2    1    2    0    0  0.74804640167E+03  0.11961766383E+03  0.29887512309E+03  0.81957509033E+03  0.92169327530E+02 0.  0.
        254    2    1    2    0    0 -0.74804640167E+03 -0.11961766383E+03 -0.23984892835E+03  0.11966699071E+04  0.89476787698E+03 0.  0.
        -24    2    4    4    0    0  0.86972661917E+02  0.33673693999E+02  0.20203042950E+03  0.23607033843E+03  0.78833677157E+02 0.  0.
         24    2    4    4    0    0 -0.83501906359E+03 -0.15329135783E+03 -0.44187935785E+03  0.96059956871E+03  0.82091945888E+02 0.  0.
         13    1    3    3    0    0  0.20945097263E+03  0.39660619189E+02  0.40921188335E+02  0.21706500940E+03  0.00000000000E+00 0. -1.
        -13    1    3    3    0    0  0.53859542904E+03  0.79957044639E+02  0.25795393476E+03  0.60251008093E+03  0.00000000000E+00 0.  1.
          2    1    6    6  502    0 -0.91576939310E+02 -0.42397142965E+02 -0.61338973544E+02  0.11809455204E+03  0.00000000000E+00 0. -1.
          1    1    5    5  503    0  0.34890199957E+02  0.52675388055E+02  0.79253586423E+02  0.10135656624E+03  0.00000000000E+00 0. -1.
         -2    1    5    5    0  503  0.52082461960E+02 -0.19001694056E+02  0.12277684308E+03  0.13471377219E+03  0.00000000000E+00 0.  1.
         -1    1    6    6    0  502 -0.74344212428E+03 -0.11089421486E+03 -0.38054038430E+03  0.84250501668E+03  0.00000000000E+00 0.  1.
<mgrwt>
<rscale>  0 0.20153808E+04</rscale>
<asrwt>0</asrwt>
<pdfrwt beam="1">  1        2 0.15055529E+00 0.20153808E+04</pdfrwt>
<pdfrwt beam="2">  1       -2 0.15963625E+00 0.20153808E+04</pdfrwt>
<totfact> 0.61146499E+00</totfact>
</mgrwt>
</event>
<event>
12    1  0.1397649E-007  0.1875044E+04  0.7818608E-02  0.8667379E-01
          2   -1    0    0  501    0  0.00000000000E+00  0.00000000000E+00  0.14392147060E+04  0.14392147060E+04  0.00000000000E+00 0.  1.
         -2   -1    0    0    0  501 -0.00000000000E+00 -0.00000000000E+00 -0.61071317233E+03  0.61071317233E+03  0.00000000000E+00 0. -1.
         23    2    1    2    0    0  0.55244823346E+03 -0.28934284810E+03  0.69016139603E+03  0.93391802464E+03  0.83437340418E+02 0.  0.
        254    2    1    2    0    0 -0.55244823346E+03  0.28934284810E+03  0.13834013761E+03  0.11160098537E+04  0.91510746112E+03 0.  0.
        -24    2    4    4    0    0 -0.70929645305E+03  0.26440158548E+03 -0.15120716758E+03  0.77621761584E+03  0.81489403600E+02 0.  0.
         24    2    4    4    0    0  0.15684821959E+03  0.24941262619E+02  0.28954730519E+03  0.33979223782E+03  0.79985575998E+02 0.  0.
         13    1    3    3    0    0  0.72111914223E+02 -0.20737086120E+02  0.52326917627E+02  0.91478200802E+02  0.00000000000E+00 0. -1.
        -13    1    3    3    0    0  0.48033631923E+03 -0.26860576198E+03  0.63783447840E+03  0.84243982383E+03  0.00000000000E+00 0.  1.
          2    1    6    6  502    0  0.93539979083E+02 -0.58249401569E+01  0.22716480555E+03  0.24573869556E+03  0.00000000000E+00 0. -1.
          3    1    5    5  503    0 -0.53286192238E+03  0.21704824114E+03 -0.14534488459E+03  0.59344494503E+03  0.00000000000E+00 0. -1.
         -4    1    5    5    0  503 -0.17643453067E+03  0.47353344333E+02 -0.58622829887E+01  0.18277267081E+03  0.00000000000E+00 0.  1.
         -1    1    6    6    0  502  0.63308240510E+02  0.30766202776E+02  0.62382499635E+02  0.94053542253E+02  0.00000000000E+00 0.  1.
<mgrwt>
<rscale>  0 0.18750439E+04</rscale>
<asrwt>0</asrwt>
<pdfrwt beam="1">  1        2 0.22141765E+00 0.18750439E+04</pdfrwt>
<pdfrwt beam="2">  1       -2 0.93955873E-01 0.18750439E+04</pdfrwt>
<totfact> 0.12335559E+01</totfact>
</mgrwt>
</event>
<event>
12    1  0.1397649E-007  0.3139283E+04  0.7818608E-02  0.8205039E-01
          2   -1    0    0  501    0  0.00000000000E+00  0.00000000000E+00  0.12820732406E+04  0.12820732406E+04  0.00000000000E+00 0. -1.
         -2   -1    0    0    0  501 -0.00000000000E+00 -0.00000000000E+00 -0.19217109552E+04  0.19217109552E+04  0.00000000000E+00 0.  1.
         23    2    1    2    0    0 -0.40383406450E+03  0.54891889414E+03  0.10013966166E+04  0.12147103151E+04  0.91280129328E+02 0.  0.
        254    2    1    2    0    0  0.40383406450E+03 -0.54891889414E+03 -0.16410343312E+04  0.19890738806E+04  0.89388328223E+03 0.  0.
        -24    2    4    4    0    0  0.57098932135E+03 -0.49528263558E+02 -0.10029736305E+04  0.11580613911E+04  0.81659219530E+02 0.  0.
         24    2    4    4    0    0 -0.16715525686E+03 -0.49939063059E+03 -0.63806070070E+03  0.83101248946E+03  0.78284213304E+02 0.  0.
         13    1    3    3    0    0 -0.11738707438E+03  0.21802533515E+03  0.41022835743E+03  0.47916810958E+03  0.00000000000E+00 0.  1.
        -13    1    3    3    0    0 -0.28644699012E+03  0.33089355899E+03  0.59116825915E+03  0.73554220556E+03  0.00000000000E+00 0. -1.
          2    1    6    6  502    0 -0.21803902204E+01 -0.48181266134E+02 -0.33107562400E+02  0.58500420476E+02  0.00000000000E+00 0. -1.
          1    1    5    5  503    0  0.33080583108E+03  0.11827440077E+02 -0.57647657446E+03  0.66475380940E+03  0.00000000000E+00 0. -1.
         -2    1    5    5    0  503  0.24018349028E+03 -0.61355703635E+02 -0.42649705605E+03  0.49330758173E+03  0.00000000000E+00 0.  1.
         -1    1    6    6    0  502 -0.16497486664E+03 -0.45120936445E+03 -0.60495313830E+03  0.77251206898E+03  0.00000000000E+00 0.  1.
<mgrwt>
<rscale>  0 0.31392828E+04</rscale>
<asrwt>0</asrwt>
<pdfrwt beam="1">  1        2 0.19724204E+00 0.31392828E+04</pdfrwt>
<pdfrwt beam="2">  1       -2 0.29564784E+00 0.31392828E+04</pdfrwt>
<totfact> 0.48429514E-01</totfact>
</mgrwt>
</event>
<event>
12    1  0.1397649E-007  0.1577823E+04  0.7818608E-02  0.8834289E-01
         -1   -1    0    0    0  501 -0.00000000000E+00  0.00000000000E+00  0.87296408911E+03  0.87296408911E+03  0.00000000000E+00 0.  1.
          1   -1    0    0  501    0  0.00000000000E+00 -0.00000000000E+00 -0.71295152403E+03  0.71295152403E+03  0.00000000000E+00 0. -1.
         23    2    1    2    0    0  0.25329359056E+03 -0.25059721686E+03 -0.33742368508E+03  0.49870074727E+03  0.88831773313E+02 0.  0.
        254    2    1    2    0    0 -0.25329359056E+03  0.25059721686E+03  0.49743625017E+03  0.10872148659E+04  0.89868611510E+03 0.  0.
        -24    2    4    4    0    0 -0.56149201465E+03  0.29898963715E+03  0.28906687530E+03  0.70376110992E+03  0.83975923874E+02 0.  0.
         24    2    4    4    0    0  0.30819842409E+03 -0.48392420286E+02  0.20836937486E+03  0.38345375596E+03  0.79315141212E+02 0.  0.
         13    1    3    3    0    0  0.20885120731E+03 -0.18869132473E+03 -0.21373417717E+03  0.35341978060E+03  0.00000000000E+00 0. -1.
        -13    1    3    3    0    0  0.44442383251E+02 -0.61905892128E+02 -0.12368950791E+03  0.14528096667E+03  0.00000000000E+00 0.  1.
          4    1    6    6  502    0  0.30728898071E+03 -0.35963845187E+02  0.20158741045E+03  0.36926602860E+03  0.00000000000E+00 0. -1.
          1    1    5    5  503    0 -0.39569841873E+03  0.23716148097E+03  0.24058664997E+03  0.52029293940E+03  0.00000000000E+00 0. -1.
         -4    1    5    5    0  503 -0.16579359592E+03  0.61828156173E+02  0.48480225336E+02  0.18346817052E+03  0.00000000000E+00 0.  1.
         -3    1    6    6    0  502  0.90944337816E+00 -0.12428575099E+02  0.67819644137E+01  0.14187727357E+02  0.00000000000E+00 0.  1.
<mgrwt>
<rscale>  0 0.15778226E+04</rscale>
<asrwt>0</asrwt>
<pdfrwt beam="1">  1        1 0.10968485E+00 0.15778226E+04</pdfrwt>
<pdfrwt beam="2">  1       -1 0.13430217E+00 0.15778226E+04</pdfrwt>
<totfact> 0.11889670E+01</totfact>
</mgrwt>
</event>
<event>
12    1  0.1397649E-007  0.1510573E+04  0.7818608E-02  0.8877453E-01
          2   -1    0    0  501    0  0.00000000000E+00  0.00000000000E+00  0.36907836650E+03  0.36907836650E+03  0.00000000000E+00 0. -1.
         -2   -1    0    0    0  501 -0.00000000000E+00 -0.00000000000E+00 -0.15456265712E+04  0.15456265712E+04  0.00000000000E+00 0.  1.
         23    2    1    2    0    0  0.11260227276E+03 -0.21222155977E+03 -0.91663547608E+03  0.95190348994E+03  0.90456596751E+02 0.  0.
        254    2    1    2    0    0 -0.11260227276E+03  0.21222155977E+03 -0.25991272860E+03  0.96280144773E+03  0.89538524614E+03 0.  0.
        -24    2    4    4    0    0 -0.10394633233E+03 -0.10481139358E+02 -0.56309440417E+03  0.57835946430E+03  0.80682511440E+02 0.  0.
         24    2    4    4    0    0 -0.86559404228E+01  0.22270269913E+03  0.30318167557E+03  0.38444198343E+03  0.78772410914E+02 0.  0.
         13    1    3    3    0    0  0.21150570309E+01 -0.64324183872E+02 -0.35257615226E+03  0.35840203298E+03  0.00000000000E+00 0. -1.
        -13    1    3    3    0    0  0.11048721573E+03 -0.14789737590E+03 -0.56405932382E+03  0.59350145697E+03  0.00000000000E+00 0.  1.
          4    1    6    6  502    0  0.13283875886E+02  0.13263011052E+03  0.23198165644E+03  0.26754942814E+03  0.00000000000E+00 0. -1.
          1    1    5    5  503    0 -0.11751589768E+03 -0.64496853954E+01 -0.49349685231E+03  0.50733689782E+03  0.00000000000E+00 0. -1.
         -2    1    5    5    0  503  0.13569565348E+02 -0.40314539626E+01 -0.69597551853E+02  0.71022566476E+02  0.00000000000E+00 0.  1.
         -3    1    6    6    0  502 -0.21939816309E+02  0.90072588610E+02  0.71200019132E+02  0.11689255529E+03  0.00000000000E+00 0.  1.
<mgrwt>
<rscale>  0 0.15105725E+04</rscale>
<asrwt>0</asrwt>
<pdfrwt beam="1">  1        2 0.56781288E-01 0.15105725E+04</pdfrwt>
<pdfrwt beam="2">  1       -2 0.23778870E+00 0.15105725E+04</pdfrwt>
<totfact> 0.64262375E+00</totfact>
</mgrwt>
</event>
<event>
12    1  0.1397649E-007  0.1277879E+04  0.7818608E-02  0.9047294E-01
         -2   -1    0    0    0  501 -0.00000000000E+00  0.00000000000E+00  0.26979504869E+03  0.26979504869E+03  0.00000000000E+00 0. -1.
          2   -1    0    0  501    0  0.00000000000E+00 -0.00000000000E+00 -0.15131624712E+04  0.15131624712E+04  0.00000000000E+00 0.  1.
         23    2    1    2    0    0 -0.10285697370E+03 -0.28298843285E+03 -0.39639729933E+03  0.50617201099E+03  0.91745711763E+02 0.  0.
        254    2    1    2    0    0  0.10285697370E+03  0.28298843285E+03 -0.84697012319E+03  0.12767855089E+04  0.90673085093E+03 0.  0.
        -24    2    4    4    0    0  0.33574198337E+03  0.49556470179E+03 -0.68541899596E+03  0.91365240777E+03  0.81574929655E+02 0.  0.
         24    2    4    4    0    0 -0.23288500967E+03 -0.21257626894E+03 -0.16155112723E+03  0.36313310113E+03  0.79641600830E+02 0.  0.
         11    1    3    3    0    0  0.57546334992E+01 -0.40561308573E+02 -0.10048069558E+03  0.10851131620E+03  0.00000000000E+00 0.  1.
        -11    1    3    3    0    0 -0.10861160720E+03 -0.24242712428E+03 -0.29591660376E+03  0.39766069479E+03  0.00000000000E+00 0. -1.
          4    1    6    6  502    0 -0.13342475795E+03 -0.16824042435E+03 -0.89931822725E+02  0.23279763564E+03  0.00000000000E+00 0. -1.
          3    1    5    5  503    0  0.32761315280E+03  0.48700017449E+03 -0.68467634318E+03  0.90182107025E+03  0.00000000000E+00 0. -1.
         -2    1    5    5    0  503  0.81288305676E+01  0.85645273053E+01 -0.74265277697E+00  0.11831337520E+02  0.00000000000E+00 0.  1.
         -3    1    6    6    0  502 -0.99460251727E+02 -0.44335844590E+02 -0.71619304503E+02  0.13033546550E+03  0.00000000000E+00 0.  1.
<mgrwt>
<rscale>  0 0.12778791E+04</rscale>
<asrwt>0</asrwt>
<pdfrwt beam="1">  1        2 0.23279422E+00 0.12778791E+04</pdfrwt>
<pdfrwt beam="2">  1       -2 0.41506931E-01 0.12778791E+04</pdfrwt>
<totfact> 0.67335699E+01</totfact>
</mgrwt>
</event>
<event>
12    1  0.1397649E-007  0.2371622E+04  0.7818608E-02  0.8450205E-01
          2   -1    0    0  501    0  0.00000000000E+00  0.00000000000E+00  0.52632221137E+04  0.52632221137E+04  0.00000000000E+00 0. -1.
         -2   -1    0    0    0  501 -0.00000000000E+00 -0.00000000000E+00 -0.26716480813E+03  0.26716480813E+03  0.00000000000E+00 0.  1.
         23    2    1    2    0    0 -0.85850438141E+03 -0.18615102835E+03  0.98263288769E+03  0.13210798742E+04  0.89457608810E+02 0.  0.
        254    2    1    2    0    0  0.85850438141E+03  0.18615102835E+03  0.40134244178E+04  0.42093070476E+04  0.91597395427E+03 0.  0.
        -24    2    4    4    0    0  0.34572692803E+03  0.46319333620E+03  0.28071944293E+04  0.28671847638E+04  0.79578456438E+02 0.  0.
         24    2    4    4    0    0  0.51277745338E+03 -0.27704230785E+03  0.12062299885E+04  0.13421222837E+04  0.81291341480E+02 0.  0.
         13    1    3    3    0    0 -0.35416429391E+02  0.98513671558E+01  0.36462928924E+02  0.51777582904E+02  0.00000000000E+00 0. -1.
        -13    1    3    3    0    0 -0.82308795202E+03 -0.19600239550E+03  0.94616995877E+03  0.12693022913E+04  0.00000000000E+00 0.  1.
          4    1    6    6  502    0  0.44215030870E+03 -0.26785297726E+03  0.10736184397E+04  0.11915950097E+04  0.00000000000E+00 0. -1.
          1    1    5    5  503    0  0.12006463096E+03  0.11796339579E+03  0.69420482342E+03  0.71431870703E+03  0.00000000000E+00 0. -1.
         -2    1    5    5    0  503  0.22566229707E+03  0.34522994040E+03  0.21129896059E+04  0.21528660568E+04  0.00000000000E+00 0.  1.
         -3    1    6    6    0  502  0.70627144685E+02 -0.91893305940E+01  0.13261154880E+03  0.15052727407E+03  0.00000000000E+00 0.  1.
<mgrwt>
<rscale>  0 0.23716220E+04</rscale>
<asrwt>0</asrwt>
<pdfrwt beam="1">  1        2 0.80972640E+00 0.23716220E+04</pdfrwt>
<pdfrwt beam="2">  1       -2 0.41102282E-01 0.23716220E+04</pdfrwt>
<totfact> 0.76361588E-02</totfact>
</mgrwt>
</event>
<event>
12    1  0.1397649E-007  0.1192730E+04  0.7818608E-02  0.9119244E-01
         -2   -1    0    0    0  501 -0.00000000000E+00  0.00000000000E+00  0.36801148346E+03  0.36801148346E+03  0.00000000000E+00 0.  1.
          2   -1    0    0  501    0  0.00000000000E+00 -0.00000000000E+00 -0.96641359650E+03  0.96641359650E+03  0.00000000000E+00 0. -1.
         23    2    1    2    0    0  0.16931855676E+03  0.46859985859E+02 -0.31130315268E+03  0.36921832863E+03  0.92454796471E+02 0.  0.
        254    2    1    2    0    0 -0.16931855676E+03 -0.46859985859E+02 -0.28709896036E+03  0.96520675134E+03  0.90461794579E+03 0.  0.
        -24    2    4    4    0    0  0.23244181109E+02  0.40858094119E+03 -0.17955751189E+03  0.45292373625E+03  0.73622913026E+02 0.  0.
         24    2    4    4    0    0 -0.19256273786E+03 -0.45544092705E+03 -0.10754144847E+03  0.51228301509E+03  0.79761383933E+02 0.  0.
         13    1    3    3    0    0  0.17991215440E+03  0.38410001070E+02 -0.29811772750E+03  0.35031113447E+03  0.00000000000E+00 0. -1.
        -13    1    3    3    0    0 -0.10593597640E+02  0.84499847887E+01 -0.13185425176E+02  0.18907194159E+02  0.00000000000E+00 0.  1.
          4    1    6    6  502    0 -0.45895014759E+01 -0.30601949361E+02 -0.26416762259E+02  0.40686461590E+02  0.00000000000E+00 0. -1.
          3    1    5    5  503    0 -0.66691584424E+01  0.24441300317E+01  0.14868078302E+01  0.72568618194E+01  0.00000000000E+00 0. -1.
         -4    1    5    5    0  503  0.29913339551E+02  0.40613681116E+03 -0.18104431972E+03  0.44566687443E+03  0.00000000000E+00 0.  1.
         -3    1    6    6    0  502 -0.18797323639E+03 -0.42483897769E+03 -0.81124686215E+02  0.47159655350E+03  0.00000000000E+00 0.  1.
<mgrwt>
<rscale>  0 0.11927301E+04</rscale>
<asrwt>0</asrwt>
<pdfrwt beam="1">  1        2 0.14867901E+00 0.11927301E+04</pdfrwt>
<pdfrwt beam="2">  1       -2 0.56617152E-01 0.11927301E+04</pdfrwt>
<totfact> 0.76519262E+01</totfact>
</mgrwt>
</event>
<event>
12    1  0.1397649E-007  0.1522551E+04  0.7818608E-02  0.8869594E-01
          2   -1    0    0  501    0  0.00000000000E+00  0.00000000000E+00  0.36046913132E+03  0.36046913132E+03  0.00000000000E+00 0. -1.
         -2   -1    0    0    0  501 -0.00000000000E+00 -0.00000000000E+00 -0.16077385270E+04  0.16077385270E+04  0.00000000000E+00 0.  1.
         23    2    1    2    0    0  0.36784189698E+03 -0.27779342681E+03 -0.62328743088E+03  0.78041909917E+03  0.89943869765E+02 0.  0.
        254    2    1    2    0    0 -0.36784189698E+03  0.27779342681E+03 -0.62398196476E+03  0.11877885591E+04  0.89945056543E+03 0.  0.
        -24    2    4    4    0    0 -0.61268705184E+03  0.19508776677E+03 -0.64734423246E+03  0.91605443250E+03  0.81587424134E+02 0.  0.
         24    2    4    4    0    0  0.24484515486E+03  0.82705660042E+02  0.23362267693E+02  0.27173412661E+03  0.80649017045E+02 0.  0.
         11    1    3    3    0    0  0.55287566417E+02 -0.96431191153E+01 -0.98156658968E+02  0.11306827339E+03  0.00000000000E+00 0. -1.
        -11    1    3    3    0    0  0.31255433057E+03 -0.26815030770E+03 -0.52513077191E+03  0.66735082579E+03  0.00000000000E+00 0.  1.
          4    1    6    6  502    0  0.12243132334E+02  0.76862194819E+01  0.23198069343E+02  0.27333544968E+02  0.00000000000E+00 0. -1.
          1    1    5    5  503    0 -0.12520255901E+03  0.38271928624E+02 -0.18141977270E+03  0.22372651884E+03  0.00000000000E+00 0. -1.
         -2    1    5    5    0  503 -0.48748449283E+03  0.15681583815E+03 -0.46592445975E+03  0.69232791367E+03  0.00000000000E+00 0.  1.
         -3    1    6    6    0  502  0.23260202253E+03  0.75019440560E+02  0.16419835045E+00  0.24440058164E+03  0.00000000000E+00 0.  1.
<mgrwt>
<rscale>  0 0.15225506E+04</rscale>
<asrwt>0</asrwt>
<pdfrwt beam="1">  1        2 0.55456790E-01 0.15225506E+04</pdfrwt>
<pdfrwt beam="2">  1       -2 0.24734439E+00 0.15225506E+04</pdfrwt>
<totfact> 0.57566977E+00</totfact>
</mgrwt>
</event>
<event>
12    1  0.1397649E-007  0.5757368E+04  0.7818608E-02  0.7721235E-01
          1   -1    0    0  501    0  0.00000000000E+00  0.00000000000E+00  0.31867872030E+04  0.31867872030E+04  0.00000000000E+00 0. -1.
         -1   -1    0    0    0  501 -0.00000000000E+00 -0.00000000000E+00 -0.26003689640E+04  0.26003689640E+04  0.00000000000E+00 0.  1.
         23    2    1    2    0    0  0.24220286379E+04 -0.58072007348E+03  0.15880774117E+04  0.29552697061E+04  0.90391611800E+02 0.  0.
        254    2    1    2    0    0 -0.24220286379E+04  0.58072007348E+03 -0.10016591727E+04  0.28318864610E+04  0.90155493606E+03 0.  0.
        -24    2    4    4    0    0 -0.93356153111E+03  0.63038279589E+03 -0.22879720574E+03  0.11522166352E+04  0.79595297568E+02 0.  0.
         24    2    4    4    0    0 -0.14884671068E+04 -0.49662722406E+02 -0.77286196699E+03  0.16796698258E+04  0.77294174447E+02 0.  0.
         11    1    3    3    0    0  0.13571183984E+04 -0.35269759594E+03  0.85092491473E+03  0.16401948518E+04  0.00000000000E+00 0. -1.
        -11    1    3    3    0    0  0.10649102396E+04 -0.22802247754E+03  0.73715249700E+03  0.13150748543E+04  0.00000000000E+00 0.  1.
          2    1    6    6  502    0 -0.12374503593E+04 -0.12333790844E+02 -0.63893576766E+03  0.13927219498E+04  0.00000000000E+00 0. -1.
          3    1    5    5  503    0 -0.88927587983E+03  0.57980941353E+03 -0.20737419827E+03  0.10816628886E+04  0.00000000000E+00 0. -1.
         -4    1    5    5    0  503 -0.44285651277E+02  0.50573382359E+02 -0.21423007475E+02  0.70553746616E+02  0.00000000000E+00 0.  1.
         -1    1    6    6    0  502 -0.25101674751E+03 -0.37328931562E+02 -0.13392619932E+03  0.28694787598E+03  0.00000000000E+00 0.  1.
<mgrwt>
<rscale>  0 0.57573683E+04</rscale>
<asrwt>0</asrwt>
<pdfrwt beam="1">  1        1 0.49027496E+00 0.57573683E+04</pdfrwt>
<pdfrwt beam="2">  1       -1 0.40005676E+00 0.57573683E+04</pdfrwt>
<totfact> 0.21160980E-03</totfact>
</mgrwt>
</event>
<event>
12    1  0.1397649E-007  0.1261987E+04  0.7818608E-02  0.9060265E-01
         -1   -1    0    0    0  501 -0.00000000000E+00  0.00000000000E+00  0.44167624059E+03  0.44167624059E+03  0.00000000000E+00 0.  1.
          1   -1    0    0  501    0  0.00000000000E+00 -0.00000000000E+00 -0.90145828984E+03  0.90145828984E+03  0.00000000000E+00 0. -1.
         23    2    1    2    0    0  0.17189853023E+03  0.11659004439E+03 -0.31514710962E+03  0.38878927869E+03  0.93258025806E+02 0.  0.
        254    2    1    2    0    0 -0.17189853023E+03 -0.11659004439E+03 -0.14463493963E+03  0.95434525174E+03  0.92017022915E+03 0.  0.
        -24    2    4    4    0    0  0.12856782857E+03 -0.51788180599E+02 -0.47193433089E+03  0.49811996156E+03  0.78675162817E+02 0.  0.
         24    2    4    4    0    0 -0.30046635880E+03 -0.64801863795E+02  0.32729939126E+03  0.45622529018E+03  0.80853630429E+02 0.  0.
         11    1    3    3    0    0  0.13718643560E+03  0.45375637263E+02 -0.16736487961E+03  0.22111098910E+03  0.00000000000E+00 0.  1.
        -11    1    3    3    0    0  0.34712094625E+02  0.71214407131E+02 -0.14778223001E+03  0.16767828960E+03  0.00000000000E+00 0. -1.
          2    1    6    6  502    0 -0.17404420463E+02  0.14874797985E+02  0.33230962414E+02  0.40354309927E+02  0.00000000000E+00 0. -1.
          3    1    5    5  503    0  0.18814211795E+02  0.12712572610E+02 -0.26730567326E+02  0.35072885502E+02  0.00000000000E+00 0. -1.
         -4    1    5    5    0  503  0.10975361678E+03 -0.64500753209E+02 -0.44520376356E+03  0.46304707606E+03  0.00000000000E+00 0.  1.
         -1    1    6    6    0  502 -0.28306193834E+03 -0.79676661780E+02  0.29406842885E+03  0.41587098025E+03  0.00000000000E+00 0.  1.
<mgrwt>
<rscale>  0 0.12619869E+04</rscale>
<asrwt>0</asrwt>
<pdfrwt beam="1">  1        1 0.13868589E+00 0.12619869E+04</pdfrwt>
<pdfrwt beam="2">  1       -1 0.67950192E-01 0.12619869E+04</pdfrwt>
<totfact> 0.39214848E+01</totfact>
</mgrwt>
</event>
<event>
12    1  0.1397649E-007  0.1557278E+04  0.7818608E-02  0.8847232E-01
          2   -1    0    0  501    0  0.00000000000E+00  0.00000000000E+00  0.87256323247E+03  0.87256323247E+03  0.00000000000E+00 0. -1.
         -2   -1    0    0    0  501 -0.00000000000E+00 -0.00000000000E+00 -0.69482490634E+03  0.69482490634E+03  0.00000000000E+00 0.  1.
         23    2    1    2    0    0  0.27125082898E+03  0.36823953578E+03  0.31448788190E+03  0.56249856567E+03  0.91239468347E+02 0.  0.
        254    2    1    2    0    0 -0.27125082898E+03 -0.36823953578E+03 -0.13674955578E+03  0.10048895731E+04  0.88426537039E+03 0.  0.
        -24    2    4    4    0    0 -0.24637752079E+03 -0.13172974349E+03 -0.49159661411E+03  0.57021399299E+03  0.73635308996E+02 0.  0.
         24    2    4    4    0    0 -0.24873308189E+02 -0.23650979229E+03  0.35484705833E+03  0.43467558015E+03  0.80441667473E+02 0.  0.
         11    1    3    3    0    0  0.13466455490E+03  0.11917801421E+03  0.15056936539E+03  0.23454013561E+03  0.00000000000E+00 0. -1.
        -11    1    3    3    0    0  0.13658627408E+03  0.24906152156E+03  0.16391851651E+03  0.32795843006E+03  0.00000000000E+00 0.  1.
          4    1    6    6  502    0 -0.34002433993E+02 -0.23914058101E+03  0.34189208575E+03  0.41861029765E+03  0.00000000000E+00 0. -1.
          1    1    5    5  503    0 -0.20392832804E+03 -0.76613122412E+02 -0.39626976909E+03  0.45220135272E+03  0.00000000000E+00 0. -1.
         -2    1    5    5    0  503 -0.42449192755E+02 -0.55116621076E+02 -0.95326845017E+02  0.11801264028E+03  0.00000000000E+00 0.  1.
         -3    1    6    6    0  502  0.91291258036E+01  0.26307887194E+01  0.12954972581E+02  0.16065282500E+02  0.00000000000E+00 0.  1.
<mgrwt>
<rscale>  0 0.15572780E+04</rscale>
<asrwt>0</asrwt>
<pdfrwt beam="1">  1        2 0.13424050E+00 0.15572780E+04</pdfrwt>
<pdfrwt beam="2">  1       -2 0.10689614E+00 0.15572780E+04</pdfrwt>
<totfact> 0.20740545E+01</totfact>
</mgrwt>
</event>
<event>
12    1  0.1397649E-007  0.1251482E+04  0.7818608E-02  0.9068951E-01
          1   -1    0    0  501    0  0.00000000000E+00  0.00000000000E+00  0.90817742418E+03  0.90817742418E+03  0.00000000000E+00 0. -1.
         -1   -1    0    0    0  501 -0.00000000000E+00 -0.00000000000E+00 -0.43114002617E+03  0.43114002617E+03  0.00000000000E+00 0.  1.
         23    2    1    2    0    0 -0.63090605553E+02 -0.24553614145E+03  0.69290008134E+02  0.27836189866E+03  0.91737779205E+02 0.  0.
        254    2    1    2    0    0  0.63090605553E+02  0.24553614145E+03  0.40774738988E+03  0.10609555517E+04  0.94609741964E+03 0.  0.
        -24    2    4    4    0    0 -0.47381958636E+02 -0.23318918590E+03  0.49561709519E+03  0.55546683201E+03  0.79277045848E+02 0.  0.
         24    2    4    4    0    0  0.11047256419E+03  0.47872532734E+03 -0.87869705309E+02  0.50548871968E+03  0.80097653718E+02 0.  0.
         11    1    3    3    0    0  0.22831868531E+02 -0.68291702591E+02  0.26983005155E+02  0.76896901306E+02  0.00000000000E+00 0. -1.
        -11    1    3    3    0    0 -0.85922474084E+02 -0.17724443886E+03  0.42307002978E+02  0.20146499736E+03  0.00000000000E+00 0.  1.
          4    1    6    6  502    0  0.11261655929E+03  0.39983189012E+03 -0.51432830421E+02  0.41856106583E+03  0.00000000000E+00 0. -1.
          3    1    5    5  503    0 -0.63048091300E+02 -0.17975486585E+03  0.33370552849E+03  0.38424764587E+03  0.00000000000E+00 0. -1.
         -4    1    5    5    0  503  0.15666132664E+02 -0.53434320050E+02  0.16191156671E+03  0.17121918615E+03  0.00000000000E+00 0.  1.
         -3    1    6    6    0  502 -0.21439950990E+01  0.78893437227E+02 -0.36436874889E+02  0.86927653852E+02  0.00000000000E+00 0.  1.
<mgrwt>
<rscale>  0 0.12514817E+04</rscale>
<asrwt>0</asrwt>
<pdfrwt beam="1">  1        1 0.13971960E+00 0.12514817E+04</pdfrwt>
<pdfrwt beam="2">  1       -1 0.66329235E-01 0.12514817E+04</pdfrwt>
<totfact> 0.40702007E+01</totfact>
</mgrwt>
</event>
<event>
12    1  0.1397649E-007  0.1592759E+04  0.7818608E-02  0.8825009E-01
          2   -1    0    0  501    0  0.00000000000E+00  0.00000000000E+00  0.25375278439E+04  0.25375278439E+04  0.00000000000E+00 0. -1.
         -2   -1    0    0    0  501 -0.00000000000E+00 -0.00000000000E+00 -0.24993624443E+03  0.24993624443E+03  0.00000000000E+00 0.  1.
         23    2    1    2    0    0  0.48926370552E+03 -0.25906955229E+02  0.11784272054E+04  0.12794936046E+04  0.91449778344E+02 0.  0.
        254    2    1    2    0    0 -0.48926370552E+03  0.25906955229E+02  0.11091643940E+04  0.15079704837E+04  0.89648155742E+03 0.  0.
        -24    2    4    4    0    0  0.67782491220E+02 -0.29283133667E+03  0.13547163387E+03  0.33908727950E+03  0.79265135362E+02 0.  0.
         24    2    4    4    0    0 -0.55704619674E+03  0.31873829190E+03  0.97369276016E+03  0.11688832042E+04  0.79471943543E+02 0.  0.
         13    1    3    3    0    0  0.27733112119E+03 -0.48678839932E+02  0.59255934847E+03  0.65605545626E+03  0.00000000000E+00 0.  1.
        -13    1    3    3    0    0  0.21193258433E+03  0.22771884703E+02  0.58586785696E+03  0.62343814837E+03  0.00000000000E+00 0. -1.
          4    1    6    6  502    0 -0.16975302729E+03  0.13744682022E+03  0.30478789728E+03  0.37497117355E+03  0.00000000000E+00 0. -1.
          3    1    5    5  503    0  0.37487973079E+02 -0.26747420973E+03  0.10757067211E+03  0.29072194705E+03  0.00000000000E+00 0. -1.
         -4    1    5    5    0  503  0.30294518140E+02 -0.25357126935E+02  0.27900961766E+02  0.48365332453E+02  0.00000000000E+00 0.  1.
         -3    1    6    6    0  502 -0.38729316945E+03  0.18129147168E+03  0.66890486288E+03  0.79391203064E+03  0.00000000000E+00 0.  1.
<mgrwt>
<rscale>  0 0.15927588E+04</rscale>
<asrwt>0</asrwt>
<pdfrwt beam="1">  1        2 0.39038888E+00 0.15927588E+04</pdfrwt>
<pdfrwt beam="2">  1       -2 0.38451732E-01 0.15927588E+04</pdfrwt>
<totfact> 0.20340779E+01</totfact>
</mgrwt>
</event>
<event>
12    1  0.1397649E-007  0.3316452E+04  0.7818608E-02  0.8158722E-01
          1   -1    0    0  501    0  0.00000000000E+00  0.00000000000E+00  0.11614599883E+04  0.11614599883E+04  0.00000000000E+00 0. -1.
         -1   -1    0    0    0  501 -0.00000000000E+00 -0.00000000000E+00 -0.23674626880E+04  0.23674626880E+04  0.00000000000E+00 0.  1.
         23    2    1    2    0    0 -0.11105132693E+04 -0.68491212516E+03  0.29880917064E+03  0.13418700306E+04  0.94783533270E+02 0.  0.
        254    2    1    2    0    0  0.11105132693E+04  0.68491212516E+03 -0.15048118704E+04  0.21870526457E+04  0.90354643995E+03 0.  0.
        -24    2    4    4    0    0  0.79438400453E+03  0.86253795739E+03 -0.13379028698E+04  0.17808157655E+04  0.79391605902E+02 0.  0.
         24    2    4    4    0    0  0.31612926474E+03 -0.17762583223E+03 -0.16690900061E+03  0.40623688014E+03  0.75373337495E+02 0.  0.
         13    1    3    3    0    0 -0.10514698130E+04 -0.65160913397E+03  0.30422311065E+03  0.12738661359E+04  0.00000000000E+00 0. -1.
        -13    1    3    3    0    0 -0.59043456239E+02 -0.33302991193E+02 -0.54139400111E+01  0.68003894693E+02  0.00000000000E+00 0.  1.
          4    1    6    6  502    0  0.50046848242E+02 -0.28445561401E+00 -0.15175755303E+02  0.52297910886E+02  0.00000000000E+00 0. -1.
          3    1    5    5  503    0  0.94663139184E+02  0.13220730606E+03 -0.21486727105E+03  0.26945839356E+03  0.00000000000E+00 0. -1.
         -4    1    5    5    0  503  0.69972086535E+03  0.73033065134E+03 -0.11230355988E+04  0.15113573720E+04  0.00000000000E+00 0.  1.
         -3    1    6    6    0  502  0.26608241650E+03 -0.17734137662E+03 -0.15173324531E+03  0.35393896926E+03  0.00000000000E+00 0.  1.
<mgrwt>
<rscale>  0 0.33164518E+04</rscale>
<asrwt>0</asrwt>
<pdfrwt beam="1">  1        1 0.17868615E+00 0.33164518E+04</pdfrwt>
<pdfrwt beam="2">  1       -1 0.36422503E+00 0.33164518E+04</pdfrwt>
<totfact> 0.11798523E-01</totfact>
</mgrwt>
</event>
<event>
12    1  0.1397649E-007  0.2749019E+04  0.7818608E-02  0.8319273E-01
          2   -1    0    0  501    0  0.00000000000E+00  0.00000000000E+00  0.16455564226E+04  0.16455564226E+04  0.00000000000E+00 0. -1.
         -2   -1    0    0    0  501 -0.00000000000E+00 -0.00000000000E+00 -0.11481082850E+04  0.11481082850E+04  0.00000000000E+00 0.  1.
         23    2    1    2    0    0  0.77950653678E+03 -0.40016786184E+03 -0.64609091950E+03  0.10925550533E+04  0.92077737104E+02 0.  0.
        254    2    1    2    0    0 -0.77950653678E+03  0.40016786184E+03  0.11435390572E+04  0.17011096543E+04  0.90461468155E+03 0.  0.
        -24    2    4    4    0    0 -0.32006353633E+03  0.29158077836E+03  0.11401087753E+04  0.12222289744E+04  0.80843235273E+02 0.  0.
         24    2    4    4    0    0 -0.45944300045E+03  0.10858708349E+03  0.34302818762E+01  0.47888067991E+03  0.80224144711E+02 0.  0.
         11    1    3    3    0    0  0.66014075583E+03 -0.34171917346E+03 -0.58669716790E+03  0.94698013593E+03  0.00000000000E+00 0.  1.
        -11    1    3    3    0    0  0.11936578096E+03 -0.58448688384E+02 -0.59393751602E+02  0.14557491737E+03  0.00000000000E+00 0. -1.
          2    1    6    6  502    0 -0.19930121010E+03  0.85979239262E+02 -0.11235697744E+02  0.21734682615E+03  0.00000000000E+00 0. -1.
          3    1    5    5  503    0 -0.31391911371E+03  0.26817956668E+03  0.11047907279E+04  0.11794185188E+04  0.00000000000E+00 0. -1.
         -4    1    5    5    0  503 -0.61444226169E+01  0.23401211682E+02  0.35318047355E+02  0.42810455574E+02  0.00000000000E+00 0.  1.
         -1    1    6    6    0  502 -0.26014179035E+03  0.22607844224E+02  0.14665979621E+02  0.26153385377E+03  0.00000000000E+00 0.  1.
<mgrwt>
<rscale>  0 0.27490194E+04</rscale>
<asrwt>0</asrwt>
<pdfrwt beam="1">  1        2 0.25316253E+00 0.27490194E+04</pdfrwt>
<pdfrwt beam="2">  1       -2 0.17663204E+00 0.27490194E+04</pdfrwt>
<totfact> 0.17588746E+00</totfact>
</mgrwt>
</event>
<event>
12    1  0.1397649E-007  0.2321338E+04  0.7818608E-02  0.8469555E-01
          1   -1    0    0  501    0  0.00000000000E+00  0.00000000000E+00  0.21344078744E+04  0.21344078744E+04  0.00000000000E+00 0. -1.
         -1   -1    0    0    0  501 -0.00000000000E+00 -0.00000000000E+00 -0.63115992406E+03  0.63115992406E+03  0.00000000000E+00 0.  1.
         23    2    1    2    0    0  0.26735895773E+03  0.39118275769E+03 -0.38815863922E+03  0.61929995059E+03  0.91435974330E+02 0.  0.
        254    2    1    2    0    0 -0.26735895773E+03 -0.39118275769E+03  0.18914065896E+04  0.21462678479E+04  0.89696266679E+03 0.  0.
        -24    2    4    4    0    0  0.31848734780E+03 -0.72465275407E+02  0.52480719410E+03  0.62327131128E+03  0.79744151129E+02 0.  0.
         24    2    4    4    0    0 -0.58584630554E+03 -0.31871748228E+03  0.13665993955E+04  0.15229965366E+04  0.84426391473E+02 0.  0.
         11    1    3    3    0    0  0.18745905603E+02  0.70634634416E+02 -0.89562056055E+02  0.11559421456E+03  0.00000000000E+00 0. -1.
        -11    1    3    3    0    0  0.24861305213E+03  0.32054812328E+03 -0.29859658316E+03  0.50370573602E+03  0.00000000000E+00 0.  1.
          4    1    6    6  502    0 -0.52884055280E+03 -0.27187825117E+03  0.11583160886E+04  0.13020315952E+04  0.00000000000E+00 0. -1.
          1    1    5    5  503    0  0.12795747663E+03 -0.13766308375E+01  0.15277796248E+03  0.19928902820E+03  0.00000000000E+00 0. -1.
         -2    1    5    5    0  503  0.19052987117E+03 -0.71088644570E+02  0.37202923161E+03  0.42398228308E+03  0.00000000000E+00 0.  1.
         -3    1    6    6    0  502 -0.57005752740E+02 -0.46839231112E+02  0.20828330684E+03  0.22096494139E+03  0.00000000000E+00 0.  1.
<mgrwt>
<rscale>  0 0.23213382E+04</rscale>
<asrwt>0</asrwt>
<pdfrwt beam="1">  1        1 0.32837044E+00 0.23213382E+04</pdfrwt>
<pdfrwt beam="2">  1       -1 0.97101528E-01 0.23213382E+04</pdfrwt>
<totfact> 0.22198727E+00</totfact>
</mgrwt>
</event>
<event>
12    1  0.1397649E-007  0.1542510E+04  0.7818608E-02  0.8856666E-01
         -2   -1    0    0    0  501 -0.00000000000E+00  0.00000000000E+00  0.39562236526E+03  0.39562236526E+03  0.00000000000E+00 0.  1.
          2   -1    0    0  501    0  0.00000000000E+00 -0.00000000000E+00 -0.15035406260E+04  0.15035406260E+04  0.00000000000E+00 0. -1.
         23    2    1    2    0    0 -0.28526986450E+03 -0.83572247891E+02  0.14690971406E+03  0.34418379239E+03  0.92286524733E+02 0.  0.
        254    2    1    2    0    0  0.28526986450E+03  0.83572247891E+02 -0.12548279748E+04  0.15549791988E+04  0.86890957316E+03 0.  0.
        -24    2    4    4    0    0 -0.16405922102E+03  0.33598850807E+03 -0.66784271547E+03  0.76976887375E+03  0.82015369523E+02 0.  0.
         24    2    4    4    0    0  0.44932908552E+03 -0.25241626017E+03 -0.58698525931E+03  0.78521032509E+03  0.79956015905E+02 0.  0.
         13    1    3    3    0    0 -0.20811870986E+03 -0.10154218342E+03  0.11760101815E+03  0.25971948690E+03  0.00000000000E+00 0.  1.
        -13    1    3    3    0    0 -0.77151154649E+02  0.17969935525E+02  0.29308695912E+02  0.84464305493E+02  0.00000000000E+00 0. -1.
          2    1    6    6  502    0  0.30460271354E+03 -0.14345650163E+03 -0.33590959508E+03  0.47560260409E+03  0.00000000000E+00 0. -1.
          3    1    5    5  503    0 -0.13911781098E+03  0.32824489724E+03 -0.62776577998E+03  0.72193375902E+03  0.00000000000E+00 0. -1.
         -4    1    5    5    0  503 -0.24941410036E+02  0.77436108216E+01 -0.40076935483E+02  0.47835114726E+02  0.00000000000E+00 0.  1.
         -1    1    6    6    0  502  0.14472637199E+03 -0.10895975854E+03 -0.25107566423E+03  0.30960772099E+03  0.00000000000E+00 0.  1.
<mgrwt>
<rscale>  0 0.15425100E+04</rscale>
<asrwt>0</asrwt>
<pdfrwt beam="1">  1        2 0.23131394E+00 0.15425100E+04</pdfrwt>
<pdfrwt beam="2">  1       -2 0.60864979E-01 0.15425100E+04</pdfrwt>
<totfact> 0.30572107E+01</totfact>
</mgrwt>
</event>
<event>
12    1  0.1397649E-007  0.2616374E+04  0.7818608E-02  0.8362660E-01
          2   -1    0    0  501    0  0.00000000000E+00  0.00000000000E+00  0.14603582989E+04  0.14603582989E+04  0.00000000000E+00 0. -1.
         -2   -1    0    0    0  501 -0.00000000000E+00 -0.00000000000E+00 -0.11718724055E+04  0.11718724055E+04  0.00000000000E+00 0.  1.
         23    2    1    2    0    0 -0.11358700121E+04  0.97586686412E+01  0.30095026909E+03  0.11786966170E+04  0.91971378954E+02 0.  0.
        254    2    1    2    0    0  0.11358700121E+04 -0.97586686412E+01 -0.12464375666E+02  0.14535340874E+04  0.90681313765E+03 0.  0.
        -24    2    4    4    0    0  0.89196671133E+03  0.28094120661E+03 -0.28365888968E+03  0.98014257804E+03  0.75395834657E+02 0.  0.
         24    2    4    4    0    0  0.24390330073E+03 -0.29069987525E+03  0.27119451402E+03  0.47339150935E+03  0.80980362537E+02 0.  0.
         13    1    3    3    0    0 -0.86219706154E+03  0.25383025828E+02  0.26420240447E+03  0.90212581243E+03  0.00000000000E+00 0. -1.
        -13    1    3    3    0    0 -0.27367295053E+03 -0.15624357187E+02  0.36747864616E+02  0.27657080457E+03  0.00000000000E+00 0.  1.
          2    1    6    6  502    0  0.24304111129E+03 -0.26969215785E+03  0.23802084243E+03  0.43411607113E+03  0.00000000000E+00 0. -1.
          3    1    5    5  503    0  0.57333086188E+03  0.14957818071E+03 -0.15716984544E+03  0.61301245472E+03  0.00000000000E+00 0. -1.
         -4    1    5    5    0  503  0.31863584946E+03  0.13136302590E+03 -0.12648904425E+03  0.36713012332E+03  0.00000000000E+00 0.  1.
         -1    1    6    6    0  502  0.86218944038E+00 -0.21007717401E+02  0.33173671585E+02  0.39275438221E+02  0.00000000000E+00 0.  1.
<mgrwt>
<rscale>  0 0.26163743E+04</rscale>
<asrwt>0</asrwt>
<pdfrwt beam="1">  1        2 0.22467051E+00 0.26163743E+04</pdfrwt>
<pdfrwt beam="2">  1       -2 0.18028806E+00 0.26163743E+04</pdfrwt>
<totfact> 0.21316958E+00</totfact>
</mgrwt>
</event>
<event>
12    1  0.1397649E-007  0.1975214E+04  0.7818608E-02  0.8618297E-01
          1   -1    0    0  501    0  0.00000000000E+00  0.00000000000E+00  0.13851374389E+04  0.13851374389E+04  0.00000000000E+00 0. -1.
         -1   -1    0    0    0  501 -0.00000000000E+00 -0.00000000000E+00 -0.70416684955E+03  0.70416684955E+03  0.00000000000E+00 0.  1.
         23    2    1    2    0    0 -0.53069939734E+03 -0.28756727945E+03 -0.21863658798E+03  0.64869471709E+03  0.93091824729E+02 0.  0.
        254    2    1    2    0    0  0.53069939734E+03  0.28756727945E+03  0.89960717732E+03  0.14406095714E+04  0.94959258265E+03 0.  0.
        -24    2    4    4    0    0  0.71432135019E+02  0.50914655677E+03  0.17145130341E+03  0.54800141668E+03  0.81100166818E+02 0.  0.
         24    2    4    4    0    0  0.45926726232E+03 -0.22157927732E+03  0.72815587391E+03  0.89260815467E+03  0.80712741814E+02 0.  0.
         13    1    3    3    0    0 -0.14930571605E+03 -0.74640974488E+02 -0.17605644882E+02  0.16784942851E+03  0.00000000000E+00 0. -1.
        -13    1    3    3    0    0 -0.38139368129E+03 -0.21292630496E+03 -0.20103094309E+03  0.48084528858E+03  0.00000000000E+00 0.  1.
          4    1    6    6  502    0  0.42872185139E+03 -0.18142871806E+03  0.66558291570E+03  0.81223113907E+03  0.00000000000E+00 0. -1.
          1    1    5    5  503    0  0.50116999152E+02  0.46076489050E+03  0.17400862657E+03  0.49507070206E+03  0.00000000000E+00 0. -1.
         -2    1    5    5    0  503  0.21315135867E+02  0.48381666276E+02 -0.25573231572E+01  0.52930714622E+02  0.00000000000E+00 0.  1.
         -3    1    6    6    0  502  0.30545410936E+02 -0.40150559263E+02  0.62572958208E+02  0.80377015603E+02  0.00000000000E+00 0.  1.
<mgrwt>
<rscale>  0 0.19752143E+04</rscale>
<asrwt>0</asrwt>
<pdfrwt beam="1">  1        1 0.21309807E+00 0.19752143E+04</pdfrwt>
<pdfrwt beam="2">  1       -1 0.10833336E+00 0.19752143E+04</pdfrwt>
<totfact> 0.57888426E+00</totfact>
</mgrwt>
</event>
<event>
12    1  0.1397649E-007  0.1885000E+04  0.7818608E-02  0.8662359E-01
          2   -1    0    0  501    0  0.00000000000E+00  0.00000000000E+00  0.10841828941E+04  0.10841828941E+04  0.00000000000E+00 0. -1.
         -2   -1    0    0    0  501 -0.00000000000E+00 -0.00000000000E+00 -0.81933262927E+03  0.81933262927E+03  0.00000000000E+00 0.  1.
         23    2    1    2    0    0 -0.54913088193E+03 -0.77017057399E+02  0.57728831758E+03  0.80575806423E+03  0.92238299274E+02 0.  0.
        254    2    1    2    0    0  0.54913088193E+03  0.77017057399E+02 -0.31243805277E+03  0.10977574591E+04  0.89441464075E+03 0.  0.
        -24    2    4    4    0    0  0.55813101536E+03 -0.41483527927E+02  0.17340500826E+03  0.59146524527E+03  0.80812907896E+02 0.  0.
         24    2    4    4    0    0 -0.90001334301E+01  0.11850058533E+03 -0.48584306103E+03  0.50629221384E+03  0.78517098244E+02 0.  0.
         13    1    3    3    0    0 -0.52183818065E+03 -0.50844410459E+02  0.53799199324E+03  0.75122275368E+03  0.00000000000E+00 0. -1.
        -13    1    3    3    0    0 -0.27292701281E+02 -0.26172646940E+02  0.39296324333E+02  0.54535310553E+02  0.00000000000E+00 0.  1.
          4    1    6    6  502    0 -0.19674378406E+02  0.61123264165E+02 -0.12266924908E+03  0.13845894431E+03  0.00000000000E+00 0. -1.
          1    1    5    5  503    0  0.56048893290E+02 -0.25545844689E+02  0.32991607837E+02  0.69874994151E+02  0.00000000000E+00 0. -1.
         -2    1    5    5    0  503  0.50208212207E+03 -0.15937683238E+02  0.14041340042E+03  0.52159025112E+03  0.00000000000E+00 0.  1.
         -3    1    6    6    0  502  0.10674244976E+02  0.57377321161E+02 -0.36317381195E+03  0.36783326953E+03  0.00000000000E+00 0.  1.
<mgrwt>
<rscale>  0 0.18850002E+04</rscale>
<asrwt>0</asrwt>
<pdfrwt beam="1">  1        2 0.16679737E+00 0.18850002E+04</pdfrwt>
<pdfrwt beam="2">  1       -2 0.12605117E+00 0.18850002E+04</pdfrwt>
<totfact> 0.98108757E+00</totfact>
</mgrwt>
</event>
<event>
12    1  0.1397649E-007  0.1566924E+04  0.7818608E-02  0.8841129E-01
          1   -1    0    0  501    0  0.00000000000E+00  0.00000000000E+00  0.70786752158E+03  0.70786752158E+03  0.00000000000E+00 0. -1.
         -1   -1    0    0    0  501 -0.00000000000E+00 -0.00000000000E+00 -0.86712943353E+03  0.86712943353E+03  0.00000000000E+00 0.  1.
         23    2    1    2    0    0  0.19072596855E+03 -0.24444604164E+02  0.43005505874E+03  0.48127210076E+03  0.98496434830E+02 0.  0.
        254    2    1    2    0    0 -0.19072596855E+03  0.24444604164E+02 -0.58931697068E+03  0.10937248543E+04  0.90109135570E+03 0.  0.
        -24    2    4    4    0    0 -0.27972454955E+02  0.66381086363E+01 -0.80602106143E+03  0.81051917126E+03  0.80279840528E+02 0.  0.
         24    2    4    4    0    0 -0.16275351359E+03  0.17806495527E+02  0.21670409074E+03  0.28320568308E+03  0.80243495164E+02 0.  0.
         11    1    3    3    0    0  0.19689536897E+03 -0.91832696448E+01  0.41268457055E+03  0.45734087236E+03  0.00000000000E+00 0. -1.
        -11    1    3    3    0    0 -0.61694004217E+01 -0.15261334519E+02  0.17370488192E+02  0.23931228403E+02  0.00000000000E+00 0.  1.
          2    1    6    6  502    0 -0.46900717492E+02  0.37117926426E+02  0.43595302362E+02  0.74013297126E+02  0.00000000000E+00 0. -1.
          3    1    5    5  503    0 -0.82610971495E+01 -0.19342965449E+02 -0.56484965136E+02  0.60273935702E+02  0.00000000000E+00 0. -1.
         -4    1    5    5    0  503 -0.19711357806E+02  0.25981074086E+02 -0.74953609629E+03  0.75024523556E+03  0.00000000000E+00 0.  1.
         -1    1    6    6    0  502 -0.11585279610E+03 -0.19311430899E+02  0.17310878838E+03  0.20919238596E+03  0.00000000000E+00 0.  1.
<mgrwt>
<rscale>  0 0.15669241E+04</rscale>
<asrwt>0</asrwt>
<pdfrwt beam="1">  1        1 0.10890270E+00 0.15669241E+04</pdfrwt>
<pdfrwt beam="2">  1       -1 0.13340453E+00 0.15669241E+04</pdfrwt>
<totfact> 0.12239726E+01</totfact>
</mgrwt>
</event>
<event>
12    1  0.1397649E-007  0.1471178E+04  0.7818608E-02  0.8903849E-01
         -2   -1    0    0    0  501 -0.00000000000E+00  0.00000000000E+00  0.26753388629E+04  0.26753388629E+04  0.00000000000E+00 0.  1.
          2   -1    0    0  501    0  0.00000000000E+00 -0.00000000000E+00 -0.20225142181E+03  0.20225142181E+03  0.00000000000E+00 0. -1.
         23    2    1    2    0    0  0.44663916987E+03  0.79115927866E+00  0.85988945389E+03  0.97294109521E+03  0.87848322971E+02 0.  0.
        254    2    1    2    0    0 -0.44663916987E+03 -0.79115927866E+00  0.16131979872E+04  0.19046491895E+04  0.90873187197E+03 0.  0.
        -24    2    4    4    0    0 -0.23157662564E+03 -0.14990578219E+03  0.20006307198E+02  0.28814576356E+03  0.80797596809E+02 0.  0.
         24    2    4    4    0    0 -0.21506254423E+03  0.14911462291E+03  0.15931916800E+04  0.16165034259E+04  0.79602312405E+02 0.  0.
         11    1    3    3    0    0  0.30282380338E+03  0.19506652301E+02  0.49930927362E+03  0.58428804207E+03  0.00000000000E+00 0. -1.
        -11    1    3    3    0    0  0.14381536649E+03 -0.18715493022E+02  0.36058018027E+03  0.38865305315E+03  0.00000000000E+00 0.  1.
          2    1    6    6  502    0 -0.61136872681E+02  0.36784154643E+02  0.25431045833E+03  0.26412989314E+03  0.00000000000E+00 0. -1.
          3    1    5    5  503    0 -0.10925916348E+03 -0.74775786704E+02  0.49952930167E+02  0.14150716701E+03  0.00000000000E+00 0. -1.
         -4    1    5    5    0  503 -0.12231746216E+03 -0.75129995489E+02 -0.29946622968E+02  0.14663859655E+03  0.00000000000E+00 0.  1.
         -1    1    6    6    0  502 -0.15392567155E+03  0.11233046827E+03  0.13388812217E+04  0.13523735328E+04  0.00000000000E+00 0.  1.
<mgrwt>
<rscale>  0 0.14711779E+04</rscale>
<asrwt>0</asrwt>
<pdfrwt beam="1">  1        2 0.31115605E-01 0.14711779E+04</pdfrwt>
<pdfrwt beam="2">  1       -2 0.41159057E+00 0.14711779E+04</pdfrwt>
<totfact> 0.10414077E+00</totfact>
</mgrwt>
</event>
<event>
12    1  0.1397649E-007  0.1551044E+04  0.7818608E-02  0.8851201E-01
         -2   -1    0    0    0  501 -0.00000000000E+00  0.00000000000E+00  0.91298074601E+03  0.91298074601E+03  0.00000000000E+00 0. -1.
          2   -1    0    0  501    0  0.00000000000E+00 -0.00000000000E+00 -0.65875922117E+03  0.65875922117E+03  0.00000000000E+00 0.  1.
         23    2    1    2    0    0 -0.10552449947E+03 -0.45826509425E+03 -0.10755909260E+03  0.49084055030E+03  0.90626545854E+02 0.  0.
        254    2    1    2    0    0  0.10552449947E+03  0.45826509425E+03  0.36178061744E+03  0.10808994169E+04  0.90350208503E+03 0.  0.
        -24    2    4    4    0    0  0.90249624749E+02  0.28004728028E+03 -0.27766187660E+03  0.41257952321E+03  0.80958454110E+02 0.  0.
         24    2    4    4    0    0  0.15274874721E+02  0.17821781398E+03  0.63944249405E+03  0.66831989367E+03  0.75959634459E+02 0.  0.
         13    1    3    3    0    0 -0.23391303519E+02 -0.13794086969E+03  0.90352598994E+01  0.14020154255E+03  0.00000000000E+00 0. -1.
        -13    1    3    3    0    0 -0.82133195951E+02 -0.32032422456E+03 -0.11659435250E+03  0.35063900775E+03  0.00000000000E+00 0.  1.
          2    1    6    6  502    0  0.26015878065E+02  0.17731595803E+03  0.62567073695E+03  0.65083150351E+03  0.00000000000E+00 0. -1.
          1    1    5    5  503    0  0.92715988088E+02  0.20757059562E+03 -0.17501860354E+03  0.28690297698E+03  0.00000000000E+00 0. -1.
         -2    1    5    5    0  503 -0.24663633387E+01  0.72476684656E+02 -0.10264327306E+03  0.12567654623E+03  0.00000000000E+00 0.  1.
         -1    1    6    6    0  502 -0.10741003344E+02  0.90185594909E+00  0.13771757101E+02  0.17488390167E+02  0.00000000000E+00 0.  1.
<mgrwt>
<rscale>  0 0.15510441E+04</rscale>
<asrwt>0</asrwt>
<pdfrwt beam="1">  1        2 0.10134757E+00 0.15510441E+04</pdfrwt>
<pdfrwt beam="2">  1       -2 0.14045858E+00 0.15510441E+04</pdfrwt>
<totfact> 0.15149648E+01</totfact>
</mgrwt>
</event>
<event>
12    1  0.1397649E-007  0.1233136E+04  0.7818608E-02  0.9084337E-01
          1   -1    0    0  501    0  0.00000000000E+00  0.00000000000E+00  0.69871114048E+03  0.69871114048E+03  0.00000000000E+00 0. -1.
         -1   -1    0    0    0  501 -0.00000000000E+00 -0.00000000000E+00 -0.54408182223E+03  0.54408182223E+03  0.00000000000E+00 0.  1.
         23    2    1    2    0    0 -0.10935151865E+03  0.11506031255E+03  0.26937836746E+03  0.32595039944E+03  0.92099554219E+02 0.  0.
        254    2    1    2    0    0  0.10935151865E+03 -0.11506031255E+03 -0.11474904921E+03  0.91684256327E+03  0.89567645463E+03 0.  0.
        -24    2    4    4    0    0  0.30727458377E+03 -0.42697490452E+03 -0.65900711279E+02  0.53579041467E+03  0.77480486469E+02 0.  0.
         24    2    4    4    0    0 -0.19792306511E+03  0.31191459197E+03 -0.48848337936E+02  0.38105214860E+03  0.79688941807E+02 0.  0.
         11    1    3    3    0    0 -0.10865161074E+03  0.66349400159E+02  0.23167098906E+03  0.26434610379E+03  0.00000000000E+00 0. -1.
        -11    1    3    3    0    0 -0.69990790855E+00  0.48710912391E+02  0.37707378403E+02  0.61604295655E+02  0.00000000000E+00 0.  1.
          4    1    6    6  502    0 -0.75418605889E+02  0.55405109227E+02 -0.90666820404E+01  0.94020726257E+02  0.00000000000E+00 0. -1.
          1    1    5    5  503    0  0.14352385342E+03 -0.18723179225E+03 -0.67774511387E+02  0.24545513831E+03  0.00000000000E+00 0. -1.
         -2    1    5    5    0  503  0.16375073035E+03 -0.23974311227E+03  0.18738001081E+01  0.29033527635E+03  0.00000000000E+00 0.  1.
         -3    1    6    6    0  502 -0.12250445923E+03  0.25650948274E+03 -0.39781655895E+02  0.28703142234E+03  0.00000000000E+00 0.  1.
<mgrwt>
<rscale>  0 0.12331359E+04</rscale>
<asrwt>0</asrwt>
<pdfrwt beam="1">  1        1 0.10749402E+00 0.12331359E+04</pdfrwt>
<pdfrwt beam="2">  1       -1 0.83704896E-01 0.12331359E+04</pdfrwt>
<totfact> 0.38200744E+01</totfact>
</mgrwt>
</event>
<event>
12    1  0.1397649E-007  0.1519985E+04  0.7818608E-02  0.8871271E-01
         -2   -1    0    0    0  501 -0.00000000000E+00  0.00000000000E+00  0.44379140383E+03  0.44379140383E+03  0.00000000000E+00 0. -1.
          2   -1    0    0  501    0  0.00000000000E+00 -0.00000000000E+00 -0.13014865261E+04  0.13014865261E+04  0.00000000000E+00 0.  1.
         23    2    1    2    0    0 -0.40585337890E+03  0.21616515078E+02 -0.60608057222E+03  0.73514743438E+03  0.89016017465E+02 0.  0.
        254    2    1    2    0    0  0.40585337890E+03 -0.21616515078E+02 -0.25161455010E+03  0.10101304956E+04  0.88987049475E+03 0.  0.
        -24    2    4    4    0    0  0.70335684941E+02 -0.85318960980E+02  0.31521652956E+03  0.34369135083E+03  0.80844606823E+02 0.  0.
         24    2    4    4    0    0  0.33551769396E+03  0.63702445902E+02 -0.56683107965E+03  0.66643914476E+03  0.78825987053E+02 0.  0.
         13    1    3    3    0    0 -0.62392632470E+02 -0.51571551265E+01 -0.15792490055E+03  0.16988146176E+03  0.00000000000E+00 0. -1.
        -13    1    3    3    0    0 -0.34346074643E+03  0.26773670205E+02 -0.44815567167E+03  0.56526597262E+03  0.00000000000E+00 0.  1.
          2    1    6    6  502    0  0.12683871524E+03  0.56807511641E+02 -0.18680642382E+03  0.23283426089E+03  0.00000000000E+00 0. -1.
          1    1    5    5  503    0  0.32539067501E+02 -0.92789236877E+02  0.23278776210E+03  0.25270293940E+03  0.00000000000E+00 0. -1.
         -2    1    5    5    0  503  0.37796617440E+02  0.74702758972E+01  0.82428767453E+02  0.90988411436E+02  0.00000000000E+00 0.  1.
         -1    1    6    6    0  502  0.20867897872E+03  0.68949342607E+01 -0.38002465583E+03  0.43360488387E+03  0.00000000000E+00 0.  1.
<mgrwt>
<rscale>  0 0.15199849E+04</rscale>
<asrwt>0</asrwt>
<pdfrwt beam="1">  1        2 0.20022870E+00 0.15199849E+04</pdfrwt>
<pdfrwt beam="2">  1       -2 0.68275600E-01 0.15199849E+04</pdfrwt>
<totfact> 0.31242341E+01</totfact>
</mgrwt>
</event>
<event>
12    1  0.1397649E-007  0.2068788E+04  0.7818608E-02  0.8575119E-01
          2   -1    0    0  501    0  0.00000000000E+00  0.00000000000E+00  0.22217852152E+04  0.22217852152E+04  0.00000000000E+00 0. -1.
         -2   -1    0    0    0  501 -0.00000000000E+00 -0.00000000000E+00 -0.48158160457E+03  0.48158160457E+03  0.00000000000E+00 0.  1.
         23    2    1    2    0    0  0.13549123486E+03 -0.48915687470E+03 -0.15777610412E+03  0.53955409105E+03  0.92698410715E+02 0.  0.
        254    2    1    2    0    0 -0.13549123486E+03  0.48915687470E+03  0.18979797148E+04  0.21638127287E+04  0.90671175388E+03 0.  0.
        -24    2    4    4    0    0 -0.29094625206E+02  0.69757855410E+03  0.17227511703E+04  0.18606259521E+04  0.81209621729E+02 0.  0.
         24    2    4    4    0    0 -0.10639660965E+03 -0.20842167941E+03  0.17522854448E+03  0.30318677661E+03  0.80357599020E+02 0.  0.
         13    1    3    3    0    0 -0.27605829589E+01 -0.14513109992E+03 -0.47675105352E+02  0.15278603553E+03  0.00000000000E+00 0. -1.
        -13    1    3    3    0    0  0.13825181782E+03 -0.34402577477E+03 -0.11010099877E+03  0.38676805551E+03  0.00000000000E+00 0.  1.
          2    1    6    6  502    0 -0.40651045717E+02 -0.14745876609E+03  0.13832469224E+03  0.20622879455E+03  0.00000000000E+00 0. -1.
          3    1    5    5  503    0 -0.94571708061E+01  0.64600482422E+03  0.15494959464E+04  0.16787940192E+04  0.00000000000E+00 0. -1.
         -4    1    5    5    0  503 -0.19637454400E+02  0.51573729883E+02  0.17325522388E+03  0.18183193292E+03  0.00000000000E+00 0.  1.
         -1    1    6    6    0  502 -0.65745563933E+02 -0.60962913314E+02  0.36903852238E+02  0.96957982068E+02  0.00000000000E+00 0.  1.
<mgrwt>
<rscale>  0 0.20687879E+04</rscale>
<asrwt>0</asrwt>
<pdfrwt beam="1">  1        2 0.34181311E+00 0.20687879E+04</pdfrwt>
<pdfrwt beam="2">  1       -2 0.74089479E-01 0.20687879E+04</pdfrwt>
<totfact> 0.76088981E+00</totfact>
</mgrwt>
</event>
<event>
12    1  0.1397649E-007  0.2356372E+04  0.7818608E-02  0.8456020E-01
          2   -1    0    0  501    0  0.00000000000E+00  0.00000000000E+00  0.27452283990E+04  0.27452283990E+04  0.00000000000E+00 0. -1.
         -2   -1    0    0    0  501 -0.00000000000E+00 -0.00000000000E+00 -0.50564922370E+03  0.50564922370E+03  0.00000000000E+00 0.  1.
         23    2    1    2    0    0  0.32397364581E+03 -0.88038903620E+03  0.14272737806E+04  0.17104954885E+04  0.92954791048E+02 0.  0.
        254    2    1    2    0    0 -0.32397364581E+03  0.88038903620E+03  0.81230539468E+03  0.15403821342E+04  0.91262987394E+03 0.  0.
        -24    2    4    4    0    0 -0.61694663696E+03  0.44574782556E+03  0.58716438905E+03  0.96455241100E+03  0.79278351071E+02 0.  0.
         24    2    4    4    0    0  0.29297299115E+03  0.43464121063E+03  0.22514100563E+03  0.57582972317E+03  0.78391594863E+02 0.  0.
         11    1    3    3    0    0  0.22605977461E+03 -0.50606831474E+03  0.79230870387E+03  0.96693393937E+03  0.00000000000E+00 0. -1.
        -11    1    3    3    0    0  0.97913871207E+02 -0.37432072146E+03  0.63496507677E+03  0.74356154917E+03  0.00000000000E+00 0.  1.
          2    1    6    6  502    0 -0.18161198730E+01  0.24590753967E+02  0.14812182113E+02  0.28764634727E+02  0.00000000000E+00 0. -1.
          3    1    5    5  503    0 -0.66366208786E+01  0.16815201757E+02  0.64265263581E+01  0.19185827787E+02  0.00000000000E+00 0. -1.
         -4    1    5    5    0  503 -0.61031001609E+03  0.42893262381E+03  0.58073786269E+03  0.94536658321E+03  0.00000000000E+00 0.  1.
         -1    1    6    6    0  502  0.29478911102E+03  0.41005045667E+03  0.21032882352E+03  0.54706508844E+03  0.00000000000E+00 0.  1.
<mgrwt>
<rscale>  0 0.23563723E+04</rscale>
<asrwt>0</asrwt>
<pdfrwt beam="1">  1        2 0.42234282E+00 0.23563723E+04</pdfrwt>
<pdfrwt beam="2">  1       -2 0.77792190E-01 0.23563723E+04</pdfrwt>
<totfact> 0.33148006E+00</totfact>
</mgrwt>
</event>
<event>
12    1  0.1397649E-007  0.1690930E+04  0.7818608E-02  0.8766554E-01
          2   -1    0    0  501    0  0.00000000000E+00  0.00000000000E+00  0.49559887326E+04  0.49559887326E+04  0.00000000000E+00 0. -1.
         -2   -1    0    0    0  501 -0.00000000000E+00 -0.00000000000E+00 -0.14423180015E+03  0.14423180015E+03  0.00000000000E+00 0.  1.
         23    2    1    2    0    0  0.25398002089E+03 -0.50750371563E+03  0.23334021840E+04  0.24031197975E+04  0.90294717680E+02 0.  0.
        254    2    1    2    0    0 -0.25398002089E+03  0.50750371563E+03  0.24783547484E+04  0.26971007353E+04  0.90002458020E+03 0.  0.
        -24    2    4    4    0    0  0.30308553621E+03  0.30675770017E+03  0.75507503820E+03  0.87317104402E+03  0.79550172395E+02 0.  0.
         24    2    4    4    0    0 -0.55706555710E+03  0.20074601546E+03  0.17232797102E+04  0.18239296913E+04  0.80034751543E+02 0.  0.
         11    1    3    3    0    0  0.12365250629E+03 -0.21939131246E+03  0.12178005648E+04  0.12435677327E+04  0.00000000000E+00 0. -1.
        -11    1    3    3    0    0  0.13032751460E+03 -0.28811240317E+03  0.11156016193E+04  0.11595520647E+04  0.00000000000E+00 0.  1.
          2    1    6    6  502    0 -0.27647369042E+03  0.12990899593E+03  0.97045563285E+03  0.10173977512E+04  0.00000000000E+00 0. -1.
          3    1    5    5  503    0  0.37452443623E+02  0.19249301509E+02  0.40594546540E+02  0.58490497952E+02  0.00000000000E+00 0. -1.
         -4    1    5    5    0  503  0.26563309259E+03  0.28750839866E+03  0.71448049166E+03  0.81468054607E+03  0.00000000000E+00 0.  1.
         -1    1    6    6    0  502 -0.28059186668E+03  0.70837019531E+02  0.75282407734E+03  0.80653194011E+03  0.00000000000E+00 0.  1.
<mgrwt>
<rscale>  0 0.16909301E+04</rscale>
<asrwt>0</asrwt>
<pdfrwt beam="1">  1        2 0.76245968E+00 0.16909301E+04</pdfrwt>
<pdfrwt beam="2">  1       -2 0.22189511E-01 0.16909301E+04</pdfrwt>
<totfact> 0.68544833E-01</totfact>
</mgrwt>
</event>
<event>
12    1  0.1397649E-007  0.2522439E+04  0.7818608E-02  0.8395035E-01
          2   -1    0    0  501    0  0.00000000000E+00  0.00000000000E+00  0.88520589824E+03  0.88520589824E+03  0.00000000000E+00 0. -1.
         -2   -1    0    0    0  501 -0.00000000000E+00 -0.00000000000E+00 -0.17969543635E+04  0.17969543635E+04  0.00000000000E+00 0.  1.
         23    2    1    2    0    0 -0.66263722413E+03 -0.33755450128E+03  0.46318080142E+03  0.88092566618E+03  0.91991534382E+02 0.  0.
        254    2    1    2    0    0  0.66263722413E+03  0.33755450128E+03 -0.13749292666E+04  0.18012345955E+04  0.89497734479E+03 0.  0.
        -24    2    4    4    0    0  0.85081725489E+03  0.29043222211E+03 -0.86378549824E+03  0.12492528191E+04  0.79160231813E+02 0.  0.
         24    2    4    4    0    0 -0.18818003076E+03  0.47122279171E+02 -0.51114376840E+03  0.55198177638E+03  0.76050616780E+02 0.  0.
         13    1    3    3    0    0 -0.62361205473E+03 -0.31419015250E+03  0.40557018062E+03  0.80752375701E+03  0.00000000000E+00 0. -1.
        -13    1    3    3    0    0 -0.39025169400E+02 -0.23364348783E+02  0.57610620803E+02  0.73401909172E+02  0.00000000000E+00 0.  1.
          2    1    6    6  502    0 -0.72039817127E+02  0.23337124264E+02 -0.10896414121E+03  0.13269340862E+03  0.00000000000E+00 0. -1.
          1    1    5    5  503    0  0.51133359288E+03  0.18622479682E+03 -0.57339313846E+03  0.79051970842E+03  0.00000000000E+00 0. -1.
         -2    1    5    5    0  503  0.33948366201E+03  0.10420742529E+03 -0.29039235978E+03  0.45873311072E+03  0.00000000000E+00 0.  1.
         -1    1    6    6    0  502 -0.11614021363E+03  0.23785154907E+02 -0.40217962719E+03  0.41928836776E+03  0.00000000000E+00 0.  1.
<mgrwt>
<rscale>  0 0.25224390E+04</rscale>
<asrwt>0</asrwt>
<pdfrwt beam="1">  1        2 0.13618552E+00 0.25224390E+04</pdfrwt>
<pdfrwt beam="2">  1       -2 0.27645452E+00 0.25224390E+04</pdfrwt>
<totfact> 0.11825001E+00</totfact>
</mgrwt>
</event>
<event>
12    1  0.1397649E-007  0.1888187E+04  0.7818608E-02  0.8660759E-01
         -1   -1    0    0    0  501 -0.00000000000E+00  0.00000000000E+00  0.71395716311E+03  0.71395716311E+03  0.00000000000E+00 0.  1.
          1   -1    0    0  501    0  0.00000000000E+00 -0.00000000000E+00 -0.12484118854E+04  0.12484118854E+04  0.00000000000E+00 0. -1.
         23    2    1    2    0    0 -0.46107102226E+03  0.35161808796E+02 -0.78450276148E+03  0.91523985947E+03  0.91632839302E+02 0.  0.
        254    2    1    2    0    0  0.46107102226E+03 -0.35161808796E+02  0.25004803917E+03  0.10471291890E+04  0.90561176908E+03 0.  0.
        -24    2    4    4    0    0  0.52949537480E+03 -0.37508889873E+03  0.22230951557E+03  0.69057579858E+03  0.80102303286E+02 0.  0.
         24    2    4    4    0    0 -0.68424352536E+02  0.33992708993E+03  0.27738523603E+02  0.35655339047E+03  0.78285222551E+02 0.  0.
         11    1    3    3    0    0 -0.39876210001E+03  0.44203299931E+02 -0.72501418282E+03  0.82861976166E+03  0.00000000000E+00 0. -1.
        -11    1    3    3    0    0 -0.62308922254E+02 -0.90414911353E+01 -0.59488578659E+02  0.86620097814E+02  0.00000000000E+00 0.  1.
          4    1    6    6  502    0 -0.78639209016E+02  0.28175858256E+03  0.30519583956E+01  0.29254288317E+03  0.00000000000E+00 0. -1.
          1    1    5    5  503    0  0.36600344637E+03 -0.28664323602E+03  0.18845594197E+03  0.50163583362E+03  0.00000000000E+00 0. -1.
         -2    1    5    5    0  503  0.16349192843E+03 -0.88445662707E+02  0.33853573599E+02  0.18893996496E+03  0.00000000000E+00 0.  1.
         -1    1    6    6    0  502  0.10214856480E+02  0.58168507374E+02  0.24686565208E+02  0.64010507300E+02  0.00000000000E+00 0.  1.
<mgrwt>
<rscale>  0 0.18881871E+04</rscale>
<asrwt>0</asrwt>
<pdfrwt beam="1">  1        1 0.19206337E+00 0.18881871E+04</pdfrwt>
<pdfrwt beam="2">  1       -1 0.10983956E+00 0.18881871E+04</pdfrwt>
<totfact> 0.70673965E+00</totfact>
</mgrwt>
</event>
<event>
12    1  0.1397649E-007  0.2188626E+04  0.7818608E-02  0.8523177E-01
         -1   -1    0    0    0  501 -0.00000000000E+00  0.00000000000E+00  0.15338260016E+04  0.15338260016E+04  0.00000000000E+00 0.  1.
          1   -1    0    0  501    0  0.00000000000E+00 -0.00000000000E+00 -0.78074119633E+03  0.78074119633E+03  0.00000000000E+00 0. -1.
         23    2    1    2    0    0  0.15365468961E+03  0.37458087197E+03 -0.54274234096E+03  0.68328638858E+03  0.91599382430E+02 0.  0.
        254    2    1    2    0    0 -0.15365468961E+03 -0.37458087197E+03  0.12958271462E+04  0.16312808094E+04  0.90442716278E+03 0.  0.
        -24    2    4    4    0    0 -0.49540008572E+03 -0.39231898090E+03  0.77966998544E+03  0.10067390147E+04  0.79389733708E+02 0.  0.
         24    2    4    4    0    0  0.34174539611E+03  0.17738108924E+02  0.51615716081E+03  0.62454179467E+03  0.80806450008E+02 0.  0.
         13    1    3    3    0    0  0.15618245107E+03  0.35988832493E+03 -0.48583347552E+03  0.62445714855E+03  0.00000000000E+00 0. -1.
        -13    1    3    3    0    0 -0.25277614591E+01  0.14692547043E+02 -0.56908865438E+02  0.58829240026E+02  0.00000000000E+00 0.  1.
          2    1    6    6  502    0  0.43257735697E+02  0.13844230642E+02  0.31301418512E+02  0.55160431657E+02  0.00000000000E+00 0. -1.
          3    1    5    5  503    0 -0.18510840107E+03 -0.19660626258E+03  0.32872695346E+03  0.42541809148E+03  0.00000000000E+00 0. -1.
         -4    1    5    5    0  503 -0.31029168465E+03 -0.19571271832E+03  0.45094303198E+03  0.58132092322E+03  0.00000000000E+00 0.  1.
         -1    1    6    6    0  502  0.29848766041E+03  0.38938782820E+01  0.48485574230E+03  0.56938136301E+03  0.00000000000E+00 0.  1.
<mgrwt>
<rscale>  0 0.21886262E+04</rscale>
<asrwt>0</asrwt>
<pdfrwt beam="1">  1        1 0.12011403E+00 0.21886262E+04</pdfrwt>
<pdfrwt beam="2">  1       -1 0.23597323E+00 0.21886262E+04</pdfrwt>
<totfact> 0.18079093E+00</totfact>
</mgrwt>
</event>
<event>
12    1  0.1397649E-007  0.1415174E+04  0.7818608E-02  0.8942908E-01
         -2   -1    0    0    0  501 -0.00000000000E+00  0.00000000000E+00  0.27064432631E+03  0.27064432631E+03  0.00000000000E+00 0.  1.
          2   -1    0    0  501    0  0.00000000000E+00 -0.00000000000E+00 -0.18499529444E+04  0.18499529444E+04  0.00000000000E+00 0. -1.
         23    2    1    2    0    0  0.30008317001E+03 -0.27541415496E+03 -0.34053374221E+03  0.53881619172E+03  0.91960824263E+02 0.  0.
        254    2    1    2    0    0 -0.30008317001E+03  0.27541415496E+03 -0.12387748759E+04  0.15817810790E+04  0.89530180558E+03 0.  0.
        -24    2    4    4    0    0 -0.14203223623E+03  0.57997669898E+03 -0.95658820741E+03  0.11304500009E+04  0.79436001793E+02 0.  0.
         24    2    4    4    0    0 -0.15805093378E+03 -0.30456254402E+03 -0.28218666851E+03  0.45133107817E+03  0.79573772984E+02 0.  0.
         11    1    3    3    0    0  0.47331416237E+02 -0.80985778999E+02 -0.44972960071E+02  0.10402656632E+03  0.00000000000E+00 0. -1.
        -11    1    3    3    0    0  0.25275175377E+03 -0.19442837596E+03 -0.29556078214E+03  0.43478962540E+03  0.00000000000E+00 0.  1.
          4    1    6    6  502    0 -0.53873936564E+01 -0.18394945598E+02 -0.46807476294E+02  0.50580014541E+02  0.00000000000E+00 0. -1.
          3    1    5    5  503    0 -0.24073531038E+02  0.62434105830E+02 -0.15748625866E+03  0.17111246049E+03  0.00000000000E+00 0. -1.
         -4    1    5    5    0  503 -0.11795870520E+03  0.51754259315E+03 -0.79910194875E+03  0.95933754037E+03  0.00000000000E+00 0.  1.
         -3    1    6    6    0  502 -0.15266354012E+03 -0.28616759843E+03 -0.23537919221E+03  0.40075106363E+03  0.00000000000E+00 0.  1.
<mgrwt>
<rscale>  0 0.14151739E+04</rscale>
<asrwt>0</asrwt>
<pdfrwt beam="1">  1        2 0.28460816E+00 0.14151739E+04</pdfrwt>
<pdfrwt beam="2">  1       -2 0.41637586E-01 0.14151739E+04</pdfrwt>
<totfact> 0.43019577E+01</totfact>
</mgrwt>
</event>
<event>
12    1  0.1397649E-007  0.2548953E+04  0.7818608E-02  0.8385750E-01
          2   -1    0    0  501    0  0.00000000000E+00  0.00000000000E+00  0.62829763710E+03  0.62829763710E+03  0.00000000000E+00 0.  1.
         -2   -1    0    0    0  501 -0.00000000000E+00 -0.00000000000E+00 -0.25852239506E+04  0.25852239506E+04  0.00000000000E+00 0. -1.
         23    2    1    2    0    0 -0.58140769834E+03 -0.36857365765E+03  0.24419695624E+03  0.73613319196E+03  0.91533983149E+02 0.  0.
        254    2    1    2    0    0  0.58140769834E+03  0.36857365765E+03 -0.22011232698E+04  0.24773883958E+04  0.90478072591E+03 0.  0.
        -24    2    4    4    0    0 -0.82881851260E+02 -0.29860108731E+01  0.28659830960E+02  0.11993162195E+03  0.81755064091E+02 0.  0.
         24    2    4    4    0    0  0.66428954960E+03  0.37155966852E+03 -0.22297831007E+04  0.23574567738E+04  0.79577453694E+02 0.  0.
         11    1    3    3    0    0 -0.90952633467E+02 -0.49569955810E+02  0.39601433415E+01  0.10365927257E+03  0.00000000000E+00 0. -1.
        -11    1    3    3    0    0 -0.49045506488E+03 -0.31900370184E+03  0.24023681289E+03  0.63247391940E+03  0.00000000000E+00 0.  1.
          4    1    6    6  502    0  0.37484374329E+03  0.19333314342E+03 -0.11198855002E+04  0.11966741702E+04  0.00000000000E+00 0. -1.
          3    1    5    5  503    0 -0.40450296335E+02  0.52081774181E+01 -0.27410844229E+02  0.49139657782E+02  0.00000000000E+00 0. -1.
         -4    1    5    5    0  503 -0.42431554924E+02 -0.81941882913E+01  0.56070675189E+02  0.70791964171E+02  0.00000000000E+00 0.  1.
         -3    1    6    6    0  502  0.28944580631E+03  0.17822652510E+03 -0.11098976005E+04  0.11607826036E+04  0.00000000000E+00 0.  1.
<mgrwt>
<rscale>  0 0.25489528E+04</rscale>
<asrwt>0</asrwt>
<pdfrwt beam="1">  1        2 0.96661175E-01 0.25489528E+04</pdfrwt>
<pdfrwt beam="2">  1       -2 0.39772676E+00 0.25489528E+04</pdfrwt>
<totfact> 0.31995185E-01</totfact>
</mgrwt>
</event>
<event>
12    1  0.1397649E-007  0.1409980E+04  0.7818608E-02  0.8946626E-01
         -1   -1    0    0    0  501 -0.00000000000E+00  0.00000000000E+00  0.69231708116E+03  0.69231708116E+03  0.00000000000E+00 0.  1.
          1   -1    0    0  501    0  0.00000000000E+00 -0.00000000000E+00 -0.71789521488E+03  0.71789521488E+03  0.00000000000E+00 0. -1.
         23    2    1    2    0    0  0.28274492492E+03 -0.46090239545E+02 -0.28754380781E+03  0.41500138726E+03  0.86462172467E+02 0.  0.
        254    2    1    2    0    0 -0.28274492492E+03  0.46090239545E+02  0.26196567409E+03  0.99521090878E+03  0.91637859851E+03 0.  0.
        -24    2    4    4    0    0  0.86210733191E+02 -0.37365087797E+03  0.15103577728E+03  0.41996906210E+03  0.80715165716E+02 0.  0.
         24    2    4    4    0    0 -0.36895565811E+03  0.41974111751E+03  0.11092989681E+03  0.57524184668E+03  0.79289701657E+02 0.  0.
         13    1    3    3    0    0  0.11703278979E+03 -0.62107026714E+02 -0.11878821026E+03  0.17794548477E+03  0.00000000000E+00 0.  1.
        -13    1    3    3    0    0  0.16571213513E+03  0.16016787168E+02 -0.16875559755E+03  0.23705590248E+03  0.00000000000E+00 0. -1.
          4    1    6    6  502    0 -0.18883973623E+03  0.24990306791E+03  0.94331642373E+02  0.32712451465E+03  0.00000000000E+00 0. -1.
          3    1    5    5  503    0  0.84557864245E+02 -0.33959821590E+03  0.15986496206E+03  0.38475159095E+03  0.00000000000E+00 0. -1.
         -4    1    5    5    0  503  0.16528689469E+01 -0.34052662072E+02 -0.88291847819E+01  0.35217471145E+02  0.00000000000E+00 0.  1.
         -3    1    6    6    0  502 -0.18011592188E+03  0.16983804960E+03  0.16598254441E+02  0.24811733203E+03  0.00000000000E+00 0.  1.
<mgrwt>
<rscale>  0 0.14099803E+04</rscale>
<asrwt>0</asrwt>
<pdfrwt beam="1">  1        1 0.11044542E+00 0.14099803E+04</pdfrwt>
<pdfrwt beam="2">  1       -1 0.10651032E+00 0.14099803E+04</pdfrwt>
<totfact> 0.21036927E+01</totfact>
</mgrwt>
</event>
<event>
12    1  0.1397649E-007  0.2316206E+04  0.7818608E-02  0.8471559E-01
         -1   -1    0    0    0  501 -0.00000000000E+00  0.00000000000E+00  0.20104099838E+04  0.20104099838E+04  0.00000000000E+00 0.  1.
          1   -1    0    0  501    0  0.00000000000E+00 -0.00000000000E+00 -0.66712866407E+03  0.66712866407E+03  0.00000000000E+00 0. -1.
         23    2    1    2    0    0 -0.69710825024E+03 -0.26269565823E+03  0.12821196255E+04  0.14855446925E+04  0.89684879964E+02 0.  0.
        254    2    1    2    0    0  0.69710825024E+03  0.26269565823E+03  0.61161694235E+02  0.11919939555E+04  0.92851489788E+03 0.  0.
        -24    2    4    4    0    0  0.11934790477E+03  0.43505617982E+03  0.28988270663E+03  0.54233510901E+03  0.81102311285E+02 0.  0.
         24    2    4    4    0    0  0.57776034547E+03 -0.17236052159E+03 -0.22872101239E+03  0.64965884644E+03  0.78918622922E+02 0.  0.
         11    1    3    3    0    0 -0.25144582905E+03 -0.61623173674E+02  0.38715605075E+03  0.46573836873E+03  0.00000000000E+00 0. -1.
        -11    1    3    3    0    0 -0.44566242119E+03 -0.20107248456E+03  0.89496357478E+03  0.10198063237E+04  0.00000000000E+00 0.  1.
          2    1    6    6  502    0  0.58055810639E+02 -0.21152258542E+02 -0.50551724196E+02  0.79833401591E+02  0.00000000000E+00 0. -1.
          3    1    5    5  503    0  0.14320939999E+02  0.54573736286E+02  0.72021376439E+02  0.91490221767E+02  0.00000000000E+00 0. -1.
         -4    1    5    5    0  503  0.10502696477E+03  0.38048244353E+03  0.21786133019E+03  0.45084488725E+03  0.00000000000E+00 0.  1.
         -1    1    6    6    0  502  0.51970453483E+03 -0.15120826304E+03 -0.17816928820E+03  0.56982544485E+03  0.00000000000E+00 0.  1.
<mgrwt>
<rscale>  0 0.23162056E+04</rscale>
<asrwt>0</asrwt>
<pdfrwt beam="1">  1        1 0.10263518E+00 0.23162056E+04</pdfrwt>
<pdfrwt beam="2">  1       -1 0.30929384E+00 0.23162056E+04</pdfrwt>
<totfact> 0.76023674E-01</totfact>
</mgrwt>
</event>
<event>
12    1  0.1397649E-007  0.1854315E+04  0.7818608E-02  0.8677937E-01
         -2   -1    0    0    0  501 -0.00000000000E+00  0.00000000000E+00  0.27800572383E+03  0.27800572383E+03  0.00000000000E+00 0.  1.
          2   -1    0    0  501    0  0.00000000000E+00 -0.00000000000E+00 -0.30920991367E+04  0.30920991367E+04  0.00000000000E+00 0. -1.
         23    2    1    2    0    0 -0.32860599157E+03  0.24537260282E+03 -0.21343051505E+04  0.21752113752E+04  0.89980216036E+02 0.  0.
        254    2    1    2    0    0  0.32860599157E+03 -0.24537260282E+03 -0.67978826234E+03  0.11948934853E+04  0.89301105693E+03 0.  0.
        -24    2    4    4    0    0 -0.22136946938E+03 -0.19646180750E+03 -0.53864278156E+03  0.61936255996E+03  0.76630612531E+02 0.  0.
         24    2    4    4    0    0  0.54997546095E+03 -0.48910795319E+02 -0.14114548078E+03  0.57553092538E+03  0.80302713409E+02 0.  0.
         11    1    3    3    0    0 -0.90959094136E+02  0.12044597054E+03 -0.72042637438E+03  0.73606721808E+03  0.00000000000E+00 0. -1.
        -11    1    3    3    0    0 -0.23764689743E+03  0.12492663228E+03 -0.14138787761E+04  0.14391441571E+04  0.00000000000E+00 0.  1.
          4    1    6    6  502    0  0.56643932481E+02 -0.29855316632E+02 -0.21465056191E+02  0.67532389676E+02  0.00000000000E+00 0. -1.
          3    1    5    5  503    0 -0.20618248010E+02 -0.58105254642E+02 -0.11944432852E+03  0.13441830376E+03  0.00000000000E+00 0. -1.
         -4    1    5    5    0  503 -0.20075122137E+03 -0.13835655286E+03 -0.41919845304E+03  0.48494425621E+03  0.00000000000E+00 0.  1.
         -3    1    6    6    0  502  0.49333152847E+03 -0.19055478687E+02 -0.11968042459E+03  0.50799853571E+03  0.00000000000E+00 0.  1.
<mgrwt>
<rscale>  0 0.18543152E+04</rscale>
<asrwt>0</asrwt>
<pdfrwt beam="1">  1        2 0.47570755E+00 0.18543152E+04</pdfrwt>
<pdfrwt beam="2">  1       -2 0.42770112E-01 0.18543152E+04</pdfrwt>
<totfact> 0.74464175E+00</totfact>
</mgrwt>
</event>
<event>
12    1  0.1397649E-007  0.1247980E+04  0.7818608E-02  0.9071866E-01
          1   -1    0    0  501    0  0.00000000000E+00  0.00000000000E+00  0.21768961739E+04  0.21768961739E+04  0.00000000000E+00 0. -1.
         -1   -1    0    0    0  501 -0.00000000000E+00 -0.00000000000E+00 -0.17886181145E+03  0.17886181145E+03  0.00000000000E+00 0.  1.
         23    2    1    2    0    0  0.17658550201E+03 -0.23395859983E+03  0.51590648817E+03  0.60244161299E+03  0.10419849605E+03 0.  0.
        254    2    1    2    0    0 -0.17658550201E+03  0.23395859983E+03  0.14821278743E+04  0.17533163724E+04  0.88966072180E+03 0.  0.
        -24    2    4    4    0    0  0.64835889672E+02  0.40352208762E+03  0.25393085193E+03  0.48770281672E+03  0.79620299523E+02 0.  0.
         24    2    4    4    0    0 -0.24142139169E+03 -0.16956348779E+03  0.12281970224E+04  0.12656135557E+04  0.79206576290E+02 0.  0.
         13    1    3    3    0    0  0.76498760070E+01 -0.26263317266E+02  0.83453974280E+01  0.28599442214E+02  0.00000000000E+00 0. -1.
        -13    1    3    3    0    0  0.16893562601E+03 -0.20769528256E+03  0.50756109074E+03  0.57384217078E+03  0.00000000000E+00 0.  1.
          4    1    6    6  502    0 -0.19484807103E+03 -0.13238800569E+03  0.82270742167E+03  0.85576857649E+03  0.00000000000E+00 0. -1.
          1    1    5    5  503    0  0.65613566717E+02  0.36028285271E+03  0.25176280655E+03  0.44440227819E+03  0.00000000000E+00 0. -1.
         -2    1    5    5    0  503 -0.77767704544E+00  0.43239234905E+02  0.21680453740E+01  0.43300538536E+02  0.00000000000E+00 0.  1.
         -3    1    6    6    0  502 -0.46573320658E+02 -0.37175482096E+02  0.40548960072E+03  0.40984497918E+03  0.00000000000E+00 0.  1.
<mgrwt>
<rscale>  0 0.12479801E+04</rscale>
<asrwt>0</asrwt>
<pdfrwt beam="1">  1        1 0.33490708E+00 0.12479801E+04</pdfrwt>
<pdfrwt beam="2">  1       -1 0.27517203E-01 0.12479801E+04</pdfrwt>
<totfact> 0.26512702E+01</totfact>
</mgrwt>
</event>
<event>
12    1  0.1397649E-007  0.1779801E+04  0.7818608E-02  0.8717115E-01
          2   -1    0    0  501    0  0.00000000000E+00  0.00000000000E+00  0.35696133008E+04  0.35696133008E+04  0.00000000000E+00 0. -1.
         -2   -1    0    0    0  501 -0.00000000000E+00 -0.00000000000E+00 -0.22185121643E+03  0.22185121643E+03  0.00000000000E+00 0.  1.
         23    2    1    2    0    0  0.63471886905E+03 -0.10976467958E+02  0.95290847561E+03  0.11486507191E+04  0.91517134618E+02 0.  0.
        254    2    1    2    0    0 -0.63471886905E+03  0.10976467958E+02  0.23948536088E+04  0.26428137982E+04  0.91986544606E+03 0.  0.
        -24    2    4    4    0    0  0.20497388758E+03  0.56810727351E+02  0.87570008291E+03  0.90454251411E+03  0.78133035756E+02 0.  0.
         24    2    4    4    0    0 -0.83969275663E+03 -0.45834259392E+02  0.15191535259E+04  0.17382712841E+04  0.81085862269E+02 0.  0.
         11    1    3    3    0    0  0.57992415259E+03  0.69267725684E+01  0.82612301915E+03  0.10093756712E+04  0.00000000000E+00 0. -1.
        -11    1    3    3    0    0  0.54794716457E+02 -0.17903240526E+02  0.12678545646E+03  0.13927504781E+03  0.00000000000E+00 0.  1.
          2    1    6    6  502    0 -0.39525575977E+02 -0.28081774767E+01  0.41849838547E+02  0.57633028755E+02  0.00000000000E+00 0. -1.
          1    1    5    5  503    0  0.65566055189E+02  0.35209120258E+02  0.44903462493E+03  0.45516006430E+03  0.00000000000E+00 0. -1.
         -2    1    5    5    0  503  0.13940783239E+03  0.21601607093E+02  0.42666545798E+03  0.44938244981E+03  0.00000000000E+00 0.  1.
         -1    1    6    6    0  502 -0.80016718065E+03 -0.43026081916E+02  0.14773036873E+04  0.16806382553E+04  0.00000000000E+00 0.  1.
<mgrwt>
<rscale>  0 0.17798012E+04</rscale>
<asrwt>0</asrwt>
<pdfrwt beam="1">  1        2 0.54917123E+00 0.17798012E+04</pdfrwt>
<pdfrwt beam="2">  1       -2 0.34130959E-01 0.17798012E+04</pdfrwt>
<totfact> 0.55690689E+00</totfact>
</mgrwt>
</event>
<event>
12    1  0.1397649E-007  0.1764854E+04  0.7818608E-02  0.8725217E-01
          2   -1    0    0  501    0  0.00000000000E+00  0.00000000000E+00  0.16035860401E+04  0.16035860401E+04  0.00000000000E+00 0. -1.
         -2   -1    0    0    0  501 -0.00000000000E+00 -0.00000000000E+00 -0.48558478040E+03  0.48558478040E+03  0.00000000000E+00 0.  1.
         23    2    1    2    0    0  0.40466192513E+03  0.29118130542E+03  0.89811889538E+03  0.10311564945E+04  0.90157305128E+02 0.  0.
        254    2    1    2    0    0 -0.40466192513E+03 -0.29118130542E+03  0.21988236427E+03  0.10580143259E+04  0.90692239663E+03 0.  0.
        -24    2    4    4    0    0  0.14626703787E+03  0.15168173201E+03 -0.13551973466E+03  0.26300751563E+03  0.80037245097E+02 0.  0.
         24    2    4    4    0    0 -0.55092896300E+03 -0.44286303743E+03  0.35540209894E+03  0.79500681031E+03  0.77940902726E+02 0.  0.
         11    1    3    3    0    0  0.22567033319E+02  0.79624955623E+01  0.15395416495E+02  0.28455072965E+02  0.00000000000E+00 0.  1.
        -11    1    3    3    0    0  0.38209489181E+03  0.28321880986E+03  0.88272347888E+03  0.10027014216E+04  0.00000000000E+00 0. -1.
          4    1    6    6  502    0 -0.48237231679E+03 -0.35249670902E+03  0.29053493407E+03  0.66433992036E+03  0.00000000000E+00 0. -1.
          3    1    5    5  503    0  0.13835897388E+03  0.96568435445E+02 -0.90885737983E+02  0.19164781696E+03  0.00000000000E+00 0. -1.
         -4    1    5    5    0  503  0.79080639865E+01  0.55113296565E+02 -0.44633996680E+02  0.71359698667E+02  0.00000000000E+00 0.  1.
         -3    1    6    6    0  502 -0.68556646209E+02 -0.90366328419E+02  0.64867164870E+02  0.13066688995E+03  0.00000000000E+00 0.  1.
<mgrwt>
<rscale>  0 0.17648535E+04</rscale>
<asrwt>0</asrwt>
<pdfrwt beam="1">  1        2 0.24670554E+00 0.17648535E+04</pdfrwt>
<pdfrwt beam="2">  1       -2 0.74705351E-01 0.17648535E+04</pdfrwt>
<totfact> 0.16926663E+01</totfact>
</mgrwt>
</event>
<event>
12    1  0.1397649E-007  0.1260033E+04  0.7818608E-02  0.9061874E-01
          1   -1    0    0  501    0  0.00000000000E+00  0.00000000000E+00  0.25436087561E+04  0.25436087561E+04  0.00000000000E+00 0. -1.
         -1   -1    0    0    0  501 -0.00000000000E+00 -0.00000000000E+00 -0.15604636058E+03  0.15604636058E+03  0.00000000000E+00 0.  1.
         23    2    1    2    0    0 -0.13017473954E+02 -0.75963357982E+02  0.12382214156E+04  0.12447938305E+04  0.10187992861E+03 0.  0.
        254    2    1    2    0    0  0.13017473954E+02  0.75963357982E+02  0.11493409799E+04  0.14548612862E+04  0.88864885511E+03 0.  0.
        -24    2    4    4    0    0  0.20723661205E+03  0.36070923063E+03  0.96990668101E+03  0.10582522065E+04  0.78234265516E+02 0.  0.
         24    2    4    4    0    0 -0.19421913809E+03 -0.28474587265E+03  0.17943429890E+03  0.39660907970E+03  0.79377634697E+02 0.  0.
         13    1    3    3    0    0  0.23187080638E+02  0.16308584468E+02  0.24265167424E+03  0.24430195588E+03  0.00000000000E+00 0.  1.
        -13    1    3    3    0    0 -0.36204554592E+02 -0.92271942450E+02  0.99556974138E+03  0.10004918746E+04  0.00000000000E+00 0. -1.
          2    1    6    6  502    0 -0.13264798466E+03 -0.15160907431E+03  0.68769114287E+02  0.21286143457E+03  0.00000000000E+00 0. -1.
          3    1    5    5  503    0  0.12933015551E+03  0.15634969232E+03  0.51401123271E+03  0.55261113160E+03  0.00000000000E+00 0. -1.
         -4    1    5    5    0  503  0.77906456537E+02  0.20435953831E+03  0.45589544830E+03  0.50564107492E+03  0.00000000000E+00 0.  1.
         -1    1    6    6    0  502 -0.61571153431E+02 -0.13313679834E+03  0.11066518461E+03  0.18374764513E+03  0.00000000000E+00 0.  1.
<mgrwt>
<rscale>  0 0.12600332E+04</rscale>
<asrwt>0</asrwt>
<pdfrwt beam="1">  1        1 0.39132440E+00 0.12600332E+04</pdfrwt>
<pdfrwt beam="2">  1       -1 0.24007134E-01 0.12600332E+04</pdfrwt>
<totfact> 0.18798656E+01</totfact>
</mgrwt>
</event>
<event>
12    1  0.1397649E-007  0.1938236E+04  0.7818608E-02  0.8636055E-01
         -4   -1    0    0    0  501 -0.00000000000E+00  0.00000000000E+00  0.61697111518E+03  0.61697111518E+03  0.00000000000E+00 0. -1.
          4   -1    0    0  501    0  0.00000000000E+00 -0.00000000000E+00 -0.15222582562E+04  0.15222582562E+04  0.00000000000E+00 0.  1.
         23    2    1    2    0    0 -0.13679753261E+03 -0.40249857973E+03  0.37696838538E+03  0.57544468187E+03  0.91174265608E+02 0.  0.
        254    2    1    2    0    0  0.13679753261E+03  0.40249857973E+03 -0.12822555264E+04  0.15637846895E+04  0.78773386911E+03 0.  0.
        -24    2    4    4    0    0 -0.91840271898E+02  0.34140864491E+03 -0.12994944347E+03  0.38475915764E+03  0.78474538346E+02 0.  0.
         24    2    4    4    0    0  0.22863780450E+03  0.61089934818E+02 -0.11523060830E+04  0.11790255319E+04  0.79275912152E+02 0.  0.
         13    1    3    3    0    0 -0.96801058766E+02 -0.23929495108E+03  0.28251495216E+03  0.38268422594E+03  0.00000000000E+00 0. -1.
        -13    1    3    3    0    0 -0.39996473841E+02 -0.16320362865E+03  0.94453433220E+02  0.19276045593E+03  0.00000000000E+00 0.  1.
          2    1    6    6  502    0  0.21728646184E+03  0.46898730093E+02 -0.11210010316E+04  0.11428281630E+04  0.00000000000E+00 0. -1.
          3    1    5    5  503    0 -0.58742448533E+01  0.16948375313E+03 -0.69298835129E+02  0.18319819289E+03  0.00000000000E+00 0. -1.
         -4    1    5    5    0  503 -0.85966027045E+02  0.17192489178E+03 -0.60650608344E+02  0.20156096475E+03  0.00000000000E+00 0.  1.
         -1    1    6    6    0  502  0.11351342667E+02  0.14191204725E+02 -0.31305051401E+02  0.36197368897E+02  0.00000000000E+00 0.  1.
<mgrwt>
<rscale>  0 0.19382357E+04</rscale>
<asrwt>0</asrwt>
<pdfrwt beam="1">  1        4 0.23419357E+00 0.19382357E+04</pdfrwt>
<pdfrwt beam="2">  1       -4 0.94918634E-01 0.19382357E+04</pdfrwt>
<totfact> 0.13841738E-01</totfact>
</mgrwt>
</event>
<event>
12    1  0.1397649E-007  0.1347234E+04  0.7818608E-02  0.8992924E-01
         -1   -1    0    0    0  501 -0.00000000000E+00  0.00000000000E+00  0.33217362881E+03  0.33217362881E+03  0.00000000000E+00 0.  1.
          1   -1    0    0  501    0  0.00000000000E+00 -0.00000000000E+00 -0.13660325193E+04  0.13660325193E+04  0.00000000000E+00 0. -1.
         23    2    1    2    0    0  0.11792827759E+02  0.23669103514E+02 -0.73142221424E+03  0.74003328544E+03  0.10941439949E+03 0.  0.
        254    2    1    2    0    0 -0.11792827759E+02 -0.23669103514E+02 -0.30243667626E+03  0.95817286269E+03  0.90880580676E+03 0.  0.
        -24    2    4    4    0    0  0.39862678766E+03 -0.10176470520E+03 -0.32729153401E+03  0.53190918055E+03  0.80921301651E+02 0.  0.
         24    2    4    4    0    0 -0.41041961542E+03  0.78095601687E+02  0.24854857747E+02  0.42626368214E+03  0.80868900283E+02 0.  0.
         11    1    3    3    0    0  0.30551234970E+02 -0.44345347984E+01 -0.66304341922E+03  0.66376171841E+03  0.00000000000E+00 0. -1.
        -11    1    3    3    0    0 -0.18758407212E+02  0.28103638312E+02 -0.68378795025E+02  0.76271567026E+02  0.00000000000E+00 0.  1.
          4    1    6    6  502    0 -0.28794057170E+03  0.16427373697E+02  0.17400719431E+02  0.28893323878E+03  0.00000000000E+00 0. -1.
          3    1    5    5  503    0  0.13734069315E+03 -0.70199657062E+01 -0.75504631957E+02  0.15688433752E+03  0.00000000000E+00 0. -1.
         -4    1    5    5    0  503  0.26128609451E+03 -0.94744739495E+02 -0.25178690205E+03  0.37502484303E+03  0.00000000000E+00 0.  1.
         -3    1    6    6    0  502 -0.12247904372E+03  0.61668227990E+02  0.74541383166E+01  0.13733044335E+03  0.00000000000E+00 0.  1.
<mgrwt>
<rscale>  0 0.13472342E+04</rscale>
<asrwt>0</asrwt>
<pdfrwt beam="1">  1        1 0.21015885E+00 0.13472342E+04</pdfrwt>
<pdfrwt beam="2">  1       -1 0.51103634E-01 0.13472342E+04</pdfrwt>
<totfact> 0.30595014E+01</totfact>
</mgrwt>
</event>
<event>
12    1  0.1397649E-007  0.2692514E+04  0.7818608E-02  0.8337438E-01
         -2   -1    0    0    0  501 -0.00000000000E+00  0.00000000000E+00  0.11675822255E+04  0.11675822255E+04  0.00000000000E+00 0.  1.
          2   -1    0    0  501    0  0.00000000000E+00 -0.00000000000E+00 -0.15522738879E+04  0.15522738879E+04  0.00000000000E+00 0. -1.
         23    2    1    2    0    0 -0.10667593010E+04 -0.69569980747E+02  0.36362903786E+03  0.11325761601E+04  0.87677207346E+02 0.  0.
        254    2    1    2    0    0  0.10667593010E+04  0.69569980747E+02 -0.74832070028E+03  0.15872799533E+04  0.90369153550E+03 0.  0.
        -24    2    4    4    0    0  0.17130897452E+03 -0.26250801041E+03  0.66729852776E+02  0.32934485855E+03  0.75881106504E+02 0.  0.
         24    2    4    4    0    0  0.89545032648E+03  0.33207799115E+03 -0.81505055306E+03  0.12579350948E+04  0.77370661576E+02 0.  0.
         11    1    3    3    0    0 -0.83862206245E+03 -0.80483128178E+02  0.31218263615E+03  0.89845561708E+03  0.00000000000E+00 0.  1.
        -11    1    3    3    0    0 -0.22813723856E+03  0.10913147431E+02  0.51446401714E+02  0.23412054300E+03  0.00000000000E+00 0. -1.
          4    1    6    6  502    0  0.73321469778E+03  0.29872980531E+03 -0.65402131403E+03  0.10269309465E+04  0.00000000000E+00 0. -1.
          3    1    5    5  503    0  0.10009103436E+03 -0.17954414953E+03  0.77039785907E+02  0.21952094524E+03  0.00000000000E+00 0. -1.
         -4    1    5    5    0  503  0.71217940165E+02 -0.82963860880E+02 -0.10309933131E+02  0.10982391331E+03  0.00000000000E+00 0.  1.
         -3    1    6    6    0  502  0.16223562871E+03  0.33348185839E+02 -0.16102923903E+03  0.23100414832E+03  0.00000000000E+00 0.  1.
<mgrwt>
<rscale>  0 0.26925136E+04</rscale>
<asrwt>0</asrwt>
<pdfrwt beam="1">  1        2 0.23881137E+00 0.26925136E+04</pdfrwt>
<pdfrwt beam="2">  1       -2 0.17962804E+00 0.26925136E+04</pdfrwt>
<totfact> 0.18995122E+00</totfact>
</mgrwt>
</event>
<event>
12    1  0.1397649E-007  0.1717474E+04  0.7818608E-02  0.8751461E-01
         -2   -1    0    0    0  501 -0.00000000000E+00  0.00000000000E+00  0.29315668122E+03  0.29315668122E+03  0.00000000000E+00 0.  1.
          2   -1    0    0  501    0  0.00000000000E+00 -0.00000000000E+00 -0.25154767413E+04  0.25154767413E+04  0.00000000000E+00 0. -1.
         23    2    1    2    0    0  0.86522503906E+01  0.22710891809E+03  0.12799847507E+03  0.27605887168E+03  0.90396730561E+02 0.  0.
        254    2    1    2    0    0 -0.86522503906E+01 -0.22710891809E+03 -0.23503185352E+04  0.25325745509E+04  0.91557813253E+03 0.  0.
        -24    2    4    4    0    0 -0.39177763593E+03 -0.34863814488E+03 -0.12258976008E+04  0.13356838948E+04  0.78665539282E+02 0.  0.
         24    2    4    4    0    0  0.38312538554E+03  0.12152922679E+03 -0.11244209344E+04  0.11968906561E+04  0.81672461248E+02 0.  0.
         13    1    3    3    0    0  0.31278881058E+02  0.14995329043E+03  0.12126902576E+03  0.19537280855E+03  0.00000000000E+00 0.  1.
        -13    1    3    3    0    0 -0.22626630667E+02  0.77155627662E+02  0.67294493155E+01  0.80686063129E+02  0.00000000000E+00 0. -1.
          2    1    6    6  502    0  0.35145444831E+03  0.11350460050E+03 -0.94669226146E+03  0.10161839211E+04  0.00000000000E+00 0. -1.
          1    1    5    5  503    0 -0.22415562113E+03 -0.14887473077E+03 -0.59520489398E+03  0.65320616483E+03  0.00000000000E+00 0. -1.
         -2    1    5    5    0  503 -0.16762201480E+03 -0.19976341411E+03 -0.63069270679E+03  0.68247772994E+03  0.00000000000E+00 0.  1.
         -1    1    6    6    0  502  0.31670937230E+02  0.80246262878E+01 -0.17772867295E+03  0.18070673501E+03  0.00000000000E+00 0.  1.
<mgrwt>
<rscale>  0 0.17174735E+04</rscale>
<asrwt>0</asrwt>
<pdfrwt beam="1">  1        2 0.38699640E+00 0.17174735E+04</pdfrwt>
<pdfrwt beam="2">  1       -2 0.45101030E-01 0.17174735E+04</pdfrwt>
<totfact> 0.15130857E+01</totfact>
</mgrwt>
</event>
<event>
12    1  0.1397649E-007  0.1956843E+04  0.7818608E-02  0.8627068E-01
          2   -1    0    0  501    0  0.00000000000E+00  0.00000000000E+00  0.14260637034E+04  0.14260637034E+04  0.00000000000E+00 0. -1.
         -2   -1    0    0    0  501 -0.00000000000E+00 -0.00000000000E+00 -0.67129447061E+03  0.67129447061E+03  0.00000000000E+00 0.  1.
         23    2    1    2    0    0  0.59487839226E+03  0.18853259136E+03 -0.18554286302E+03  0.65741214448E+03  0.91322144722E+02 0.  0.
        254    2    1    2    0    0 -0.59487839226E+03 -0.18853259136E+03  0.94031209585E+03  0.14399460296E+04  0.89433376929E+03 0.  0.
        -24    2    4    4    0    0 -0.32051340812E+03 -0.15771250899E+03 -0.84079942274E+02  0.37597945077E+03  0.81786492967E+02 0.  0.
         24    2    4    4    0    0 -0.27436498414E+03 -0.30820082363E+02  0.10243920381E+04  0.10639665788E+04  0.80123723270E+02 0.  0.
         13    1    3    3    0    0  0.20516588205E+03  0.75003747571E+02 -0.10981955436E+03  0.24449731251E+03  0.00000000000E+00 0. -1.
        -13    1    3    3    0    0  0.38971251021E+03  0.11352884379E+03 -0.75723308658E+02  0.41291483197E+03  0.00000000000E+00 0.  1.
          2    1    6    6  502    0 -0.61069425622E+02  0.25267497842E+02  0.20343942361E+03  0.21390540028E+03  0.00000000000E+00 0. -1.
          1    1    5    5  503    0 -0.63179099201E+02  0.66239525233E+00 -0.36222641281E+01  0.63286318749E+02  0.00000000000E+00 0. -1.
         -2    1    5    5    0  503 -0.25733430892E+03 -0.15837490425E+03 -0.80457678146E+02  0.31269313202E+03  0.00000000000E+00 0.  1.
         -1    1    6    6    0  502 -0.21329555852E+03 -0.56087580205E+02  0.82095261452E+03  0.85006117852E+03  0.00000000000E+00 0.  1.
<mgrwt>
<rscale>  0 0.19568430E+04</rscale>
<asrwt>0</asrwt>
<pdfrwt beam="1">  1        2 0.21939442E+00 0.19568430E+04</pdfrwt>
<pdfrwt beam="2">  1       -2 0.10327607E+00 0.19568430E+04</pdfrwt>
<totfact> 0.99719708E+00</totfact>
</mgrwt>
</event>
<event>
12    1  0.1397649E-007  0.2288414E+04  0.7818608E-02  0.8482503E-01
          2   -1    0    0  501    0  0.00000000000E+00  0.00000000000E+00  0.19035497372E+04  0.19035497372E+04  0.00000000000E+00 0. -1.
         -2   -1    0    0    0  501 -0.00000000000E+00 -0.00000000000E+00 -0.68777290240E+03  0.68777290240E+03  0.00000000000E+00 0.  1.
         23    2    1    2    0    0  0.44174792883E+03  0.39405598573E+03  0.13597530609E+04  0.14858449960E+04  0.91572992344E+02 0.  0.
        254    2    1    2    0    0 -0.44174792883E+03 -0.39405598573E+03 -0.14397622607E+03  0.11054776437E+04  0.92245884159E+03 0.  0.
        -24    2    4    4    0    0 -0.35043181552E+03 -0.68436025518E+03 -0.40555614084E+02  0.77401563213E+03  0.79397888856E+02 0.  0.
         24    2    4    4    0    0 -0.91316113307E+02  0.29030426946E+03 -0.10342061198E+03  0.33146201152E+03  0.80969381142E+02 0.  0.
         13    1    3    3    0    0  0.41061086543E+03  0.39121881672E+03  0.13022805597E+04  0.14204182840E+04  0.00000000000E+00 0. -1.
        -13    1    3    3    0    0  0.31137063399E+02  0.28371690094E+01  0.57472501201E+02  0.65426711971E+02  0.00000000000E+00 0.  1.
          4    1    6    6  502    0 -0.71259783768E+02  0.19670749436E+03 -0.31153349827E+02  0.21152381976E+03  0.00000000000E+00 0. -1.
          1    1    5    5  503    0 -0.11761533889E+03 -0.25858799752E+03 -0.51068903185E+02  0.28863325047E+03  0.00000000000E+00 0. -1.
         -2    1    5    5    0  503 -0.23281647663E+03 -0.42577225767E+03  0.10513289100E+02  0.48538238167E+03  0.00000000000E+00 0.  1.
         -3    1    6    6    0  502 -0.20056329539E+02  0.93596775098E+02 -0.72267262154E+02  0.11993819176E+03  0.00000000000E+00 0.  1.
<mgrwt>
<rscale>  0 0.22884142E+04</rscale>
<asrwt>0</asrwt>
<pdfrwt beam="1">  1        2 0.29285380E+00 0.22884142E+04</pdfrwt>
<pdfrwt beam="2">  1       -2 0.10581122E+00 0.22884142E+04</pdfrwt>
<totfact> 0.49498826E+00</totfact>
</mgrwt>
</event>
<event>
12    1  0.1397649E-007  0.1915620E+04  0.7818608E-02  0.8647120E-01
          2   -1    0    0  501    0  0.00000000000E+00  0.00000000000E+00  0.18740828434E+04  0.18740828434E+04  0.00000000000E+00 0. -1.
         -2   -1    0    0    0  501 -0.00000000000E+00 -0.00000000000E+00 -0.48951925931E+03  0.48951925931E+03  0.00000000000E+00 0.  1.
         23    2    1    2    0    0  0.30811847805E+03  0.68692219925E+03  0.78274904103E+03  0.10898017484E+04  0.90402904763E+02 0.  0.
        254    2    1    2    0    0 -0.30811847805E+03 -0.68692219925E+03  0.60181454308E+03  0.12738003544E+04  0.83281900444E+03 0.  0.
        -24    2    4    4    0    0  0.11186008743E+03 -0.37730139935E+03  0.62840145749E+03  0.74571583161E+03  0.79590731985E+02 0.  0.
         24    2    4    4    0    0 -0.41997856549E+03 -0.30962079989E+03 -0.26586914414E+02  0.52808452275E+03  0.76937402800E+02 0.  0.
         13    1    3    3    0    0  0.27302119219E+03  0.57028163718E+03  0.61106001075E+03  0.87929292834E+03  0.00000000000E+00 0.  1.
        -13    1    3    3    0    0  0.35097285865E+02  0.11664056207E+03  0.17168903028E+03  0.21050882003E+03  0.00000000000E+00 0. -1.
          2    1    6    6  502    0 -0.38623552318E+03 -0.25413261406E+03 -0.19467166441E+02  0.46275288812E+03  0.00000000000E+00 0. -1.
          1    1    5    5  503    0  0.55400374049E+02 -0.72035830570E+02  0.15188878338E+03  0.17699877075E+03  0.00000000000E+00 0. -1.
         -2    1    5    5    0  503  0.56459713384E+02 -0.30526556878E+03  0.47651267411E+03  0.56871706085E+03  0.00000000000E+00 0.  1.
         -1    1    6    6    0  502 -0.33743042305E+02 -0.55488185838E+02 -0.71197479731E+01  0.65331634625E+02  0.00000000000E+00 0.  1.
<mgrwt>
<rscale>  0 0.19156196E+04</rscale>
<asrwt>0</asrwt>
<pdfrwt beam="1">  1        2 0.28832043E+00 0.19156196E+04</pdfrwt>
<pdfrwt beam="2">  1       -2 0.75310656E-01 0.19156196E+04</pdfrwt>
<totfact> 0.11615746E+01</totfact>
</mgrwt>
</event>
<event>
12    1  0.1397649E-007  0.1780997E+04  0.7818608E-02  0.8716471E-01
         -1   -1    0    0    0  501 -0.00000000000E+00  0.00000000000E+00  0.42671677796E+03  0.42671677796E+03  0.00000000000E+00 0.  1.
          1   -1    0    0  501    0  0.00000000000E+00 -0.00000000000E+00 -0.18583460349E+04  0.18583460349E+04  0.00000000000E+00 0. -1.
         23    2    1    2    0    0  0.29236854821E+03 -0.54715334391E+02  0.20927617141E+03  0.37489524032E+03  0.90976862423E+02 0.  0.
        254    2    1    2    0    0 -0.29236854821E+03  0.54715334391E+02 -0.16409054283E+04  0.19101675725E+04  0.93150222467E+03 0.  0.
        -24    2    4    4    0    0 -0.39444414803E+03 -0.32659751007E+03 -0.12330556362E+04  0.13376095003E+04  0.80751804396E+02 0.  0.
         24    2    4    4    0    0  0.10207559982E+03  0.38131284446E+03 -0.40784979217E+03  0.57255807221E+03  0.75248785076E+02 0.  0.
         13    1    3    3    0    0  0.24245530617E+03 -0.44665559406E+02  0.12495232528E+03  0.27639224172E+03  0.00000000000E+00 0.  1.
        -13    1    3    3    0    0  0.49913242035E+02 -0.10049774986E+02  0.84323846132E+02  0.98502998605E+02  0.00000000000E+00 0. -1.
          2    1    6    6  502    0  0.38484262019E+02  0.46564843165E+02 -0.74046172841E+02  0.95562329160E+02  0.00000000000E+00 0. -1.
          1    1    5    5  503    0 -0.11686656420E+03 -0.12238739946E+03 -0.32609693163E+03  0.36739036214E+03  0.00000000000E+00 0. -1.
         -2    1    5    5    0  503 -0.27757758383E+03 -0.20421011061E+03 -0.90695870453E+03  0.97021913816E+03  0.00000000000E+00 0.  1.
         -1    1    6    6    0  502  0.63591337804E+02  0.33474800130E+03 -0.33380361933E+03  0.47699574305E+03  0.00000000000E+00 0.  1.
<mgrwt>
<rscale>  0 0.17809968E+04</rscale>
<asrwt>0</asrwt>
<pdfrwt beam="1">  1        1 0.28589939E+00 0.17809968E+04</pdfrwt>
<pdfrwt beam="2">  1       -1 0.65648734E-01 0.17809968E+04</pdfrwt>
<totfact> 0.82661443E+00</totfact>
</mgrwt>
</event>
<event>
12    1  0.1397649E-007  0.1212129E+04  0.7818608E-02  0.9102306E-01
          2   -1    0    0  501    0  0.00000000000E+00  0.00000000000E+00  0.13032093032E+04  0.13032093032E+04  0.00000000000E+00 0. -1.
         -2   -1    0    0    0  501 -0.00000000000E+00 -0.00000000000E+00 -0.28185346594E+03  0.28185346594E+03  0.00000000000E+00 0.  1.
         23    2    1    2    0    0 -0.11453475292E+03 -0.72384269788E+02  0.52080798819E+03  0.54681016197E+03  0.96967523103E+02 0.  0.
        254    2    1    2    0    0  0.11453475292E+03  0.72384269788E+02  0.50054784907E+03  0.10382526072E+04  0.89947909089E+03 0.  0.
        -24    2    4    4    0    0 -0.37872695219E+03 -0.55552865968E+02  0.23646463396E+03  0.45870595404E+03  0.89305117034E+02 0.  0.
         24    2    4    4    0    0  0.49326170510E+03  0.12793713576E+03  0.26408321510E+03  0.57954665312E+03  0.80370132639E+02 0.  0.
         11    1    3    3    0    0 -0.41562828979E+02 -0.82685847687E+02  0.30800901255E+03  0.32161152027E+03  0.00000000000E+00 0. -1.
        -11    1    3    3    0    0 -0.72971923936E+02  0.10301577898E+02  0.21279897564E+03  0.22519864170E+03  0.00000000000E+00 0.  1.
          2    1    6    6  502    0  0.30114656868E+03  0.37283404641E+02  0.15386884393E+03  0.34022776080E+03  0.00000000000E+00 0. -1.
          3    1    5    5  503    0 -0.26754820090E+02 -0.64224862047E+01 -0.64167930273E+01  0.28253211496E+02  0.00000000000E+00 0. -1.
         -2    1    5    5    0  503 -0.35197213210E+03 -0.49130379764E+02  0.24288142699E+03  0.43045274255E+03  0.00000000000E+00 0.  1.
         -1    1    6    6    0  502  0.19211513643E+03  0.90653731116E+02  0.11021437117E+03  0.23931889232E+03  0.00000000000E+00 0.  1.
<mgrwt>
<rscale>  0 0.12121288E+04</rscale>
<asrwt>0</asrwt>
<pdfrwt beam="1">  1        2 0.20049374E+00 0.12121288E+04</pdfrwt>
<pdfrwt beam="2">  1       -2 0.43362072E-01 0.12121288E+04</pdfrwt>
<totfact> 0.81800573E+01</totfact>
</mgrwt>
</event>
<event>
12    1  0.1397649E-007  0.1887805E+04  0.7818608E-02  0.8660951E-01
         -1   -1    0    0    0  501 -0.00000000000E+00  0.00000000000E+00  0.63097079413E+03  0.63097079413E+03  0.00000000000E+00 0.  1.
          1   -1    0    0  501    0  0.00000000000E+00 -0.00000000000E+00 -0.14120331714E+04  0.14120331714E+04  0.00000000000E+00 0. -1.
         23    2    1    2    0    0 -0.15299884002E+03  0.13360674444E+03 -0.10549455864E+04  0.10781512148E+04  0.90776894088E+02 0.  0.
        254    2    1    2    0    0  0.15299884002E+03 -0.13360674444E+03  0.27388320915E+03  0.96485275072E+03  0.90259038944E+03 0.  0.
        -24    2    4    4    0    0 -0.94727332605E+02  0.31534658427E+03  0.28932841255E+03  0.44561867210E+03  0.80301524691E+02 0.  0.
         24    2    4    4    0    0  0.24772617262E+03 -0.44895332871E+03 -0.15445203401E+02  0.51923407862E+03  0.80237934468E+02 0.  0.
         11    1    3    3    0    0 -0.29972055728E+02  0.47568104995E+01 -0.58475453063E+02  0.65881180785E+02  0.00000000000E+00 0.  1.
        -11    1    3    3    0    0 -0.12302678429E+03  0.12884993394E+03 -0.99647013335E+03  0.10122700340E+04  0.00000000000E+00 0. -1.
          4    1    6    6  502    0  0.78220422084E+02 -0.21131425490E+03 -0.28037658995E+02  0.22706443816E+03  0.00000000000E+00 0. -1.
          3    1    5    5  503    0 -0.84749472975E+01  0.12883390819E+03  0.14700448368E+03  0.19565356846E+03  0.00000000000E+00 0. -1.
         -4    1    5    5    0  503 -0.86252385308E+02  0.18651267607E+03  0.14232392887E+03  0.24996510364E+03  0.00000000000E+00 0.  1.
         -3    1    6    6    0  502  0.16950575054E+03 -0.23763907380E+03  0.12592455594E+02  0.29216964045E+03  0.00000000000E+00 0.  1.
<mgrwt>
<rscale>  0 0.18878047E+04</rscale>
<asrwt>0</asrwt>
<pdfrwt beam="1">  1        1 0.21723587E+00 0.18878047E+04</pdfrwt>
<pdfrwt beam="2">  1       -1 0.97072429E-01 0.18878047E+04</pdfrwt>
<totfact> 0.71969905E+00</totfact>
</mgrwt>
</event>
<event>
12    1  0.1397649E-007  0.2651350E+04  0.7818608E-02  0.8350965E-01
          1   -1    0    0  501    0  0.00000000000E+00  0.00000000000E+00  0.23895060038E+04  0.23895060038E+04  0.00000000000E+00 0. -1.
         -1   -1    0    0    0  501 -0.00000000000E+00 -0.00000000000E+00 -0.73547182256E+03  0.73547182256E+03  0.00000000000E+00 0.  1.
         23    2    1    2    0    0  0.22092163626E+03  0.74517554098E+03 -0.30018007702E+03  0.83817863244E+03  0.91336657507E+02 0.  0.
        254    2    1    2    0    0 -0.22092163626E+03 -0.74517554098E+03  0.19542142583E+04  0.22867991940E+04  0.89800012801E+03 0.  0.
        -24    2    4    4    0    0 -0.29129579859E+03 -0.16943366996E+02  0.14809440891E+03  0.33654631087E+03  0.78683832201E+02 0.  0.
         24    2    4    4    0    0  0.70374162332E+02 -0.72823217398E+03  0.18061198494E+04  0.19502528831E+04  0.78375861645E+02 0.  0.
         11    1    3    3    0    0  0.10569851354E+03  0.38691035471E+03 -0.10680051054E+03  0.41506402807E+03  0.00000000000E+00 0. -1.
        -11    1    3    3    0    0  0.11522312272E+03  0.35826518627E+03 -0.19337956648E+03  0.42311460437E+03  0.00000000000E+00 0.  1.
          4    1    6    6  502    0  0.47669067795E+02 -0.18615291269E+03  0.42686255391E+03  0.46812059008E+03  0.00000000000E+00 0. -1.
          1    1    5    5  503    0 -0.94001747383E+02 -0.64328817873E+01  0.84408354889E+01  0.94598933308E+02  0.00000000000E+00 0. -1.
         -2    1    5    5    0  503 -0.19729405120E+03 -0.10510485209E+02  0.13965357342E+03  0.24194737756E+03  0.00000000000E+00 0.  1.
         -3    1    6    6    0  502  0.22705094537E+02 -0.54207926129E+03  0.13792572955E+04  0.14821322930E+04  0.00000000000E+00 0.  1.
<mgrwt>
<rscale>  0 0.26513501E+04</rscale>
<asrwt>0</asrwt>
<pdfrwt beam="1">  1        1 0.36761630E+00 0.26513501E+04</pdfrwt>
<pdfrwt beam="2">  1       -1 0.11314951E+00 0.26513501E+04</pdfrwt>
<totfact> 0.10103840E+00</totfact>
</mgrwt>
</event>
<event>
12    1  0.1397649E-007  0.1191871E+04  0.7818608E-02  0.9120002E-01
         -1   -1    0    0    0  501 -0.00000000000E+00  0.00000000000E+00  0.30826151657E+03  0.30826151657E+03  0.00000000000E+00 0.  1.
          1   -1    0    0  501    0  0.00000000000E+00 -0.00000000000E+00 -0.11520712424E+04  0.11520712424E+04  0.00000000000E+00 0. -1.
         23    2    1    2    0    0 -0.47968196123E+02  0.50659640092E+02 -0.45465412940E+03  0.46878531356E+03  0.90454109089E+02 0.  0.
        254    2    1    2    0    0  0.47968196123E+02 -0.50659640092E+02 -0.38915559643E+03  0.99154744542E+03  0.90931672772E+03 0.  0.
        -24    2    4    4    0    0  0.24075347132E+03 -0.25555176975E+03 -0.55078869783E+03  0.65788564268E+03  0.78590000750E+02 0.  0.
         24    2    4    4    0    0 -0.19278527520E+03  0.20489212966E+03  0.16163310140E+03  0.33366180274E+03  0.77833103549E+02 0.  0.
         11    1    3    3    0    0 -0.41380372690E+01  0.65159967823E+02 -0.31509342830E+03  0.32178690669E+03  0.00000000000E+00 0. -1.
        -11    1    3    3    0    0 -0.43830158854E+02 -0.14500327732E+02 -0.13956070111E+03  0.14699840687E+03  0.00000000000E+00 0.  1.
          4    1    6    6  502    0 -0.22990570619E+02  0.88187453260E+01 -0.53312874866E+01  0.25194428606E+02  0.00000000000E+00 0. -1.
          3    1    5    5  503    0  0.85073553182E+02 -0.14686872173E+03 -0.24925192197E+03  0.30155339739E+03  0.00000000000E+00 0. -1.
         -4    1    5    5    0  503  0.15567991814E+03 -0.10868304802E+03 -0.30153677586E+03  0.35633224529E+03  0.00000000000E+00 0.  1.
         -1    1    6    6    0  502 -0.16979470458E+03  0.19607338433E+03  0.16696438889E+03  0.30846737413E+03  0.00000000000E+00 0.  1.
<mgrwt>
<rscale>  0 0.11918712E+04</rscale>
<asrwt>0</asrwt>
<pdfrwt beam="1">  1        1 0.17724173E+00 0.11918712E+04</pdfrwt>
<pdfrwt beam="2">  1       -1 0.47424849E-01 0.11918712E+04</pdfrwt>
<totfact> 0.50917562E+01</totfact>
</mgrwt>
</event>
<event>
12    1  0.1397649E-007  0.3096164E+04  0.7818608E-02  0.8216792E-01
         -2   -1    0    0    0  501 -0.00000000000E+00  0.00000000000E+00  0.31928069116E+04  0.31928069116E+04  0.00000000000E+00 0.  1.
          2   -1    0    0  501    0  0.00000000000E+00 -0.00000000000E+00 -0.75061145294E+03  0.75061145294E+03  0.00000000000E+00 0. -1.
         23    2    1    2    0    0 -0.35541531099E+03  0.17510652099E+03 -0.61130391890E+03  0.73449077572E+03  0.93818342386E+02 0.  0.
        254    2    1    2    0    0  0.35541531099E+03 -0.17510652099E+03  0.30534993776E+04  0.32089275888E+04  0.90353499350E+03 0.  0.
        -24    2    4    4    0    0 -0.18449398649E+01 -0.48099877107E+03  0.12078705473E+04  0.13026808887E+04  0.81627306253E+02 0.  0.
         24    2    4    4    0    0  0.35726025086E+03  0.30589225008E+03  0.18456288302E+04  0.19062467001E+04  0.78903404082E+02 0.  0.
         13    1    3    3    0    0 -0.29046463688E+02  0.59391983406E+01 -0.10304906331E+03  0.10722910323E+03  0.00000000000E+00 0.  1.
        -13    1    3    3    0    0 -0.32636884730E+03  0.16916732265E+03 -0.50825485559E+03  0.62726167249E+03  0.00000000000E+00 0. -1.
          4    1    6    6  502    0  0.45793445324E+02  0.77586156821E+02  0.31240782454E+03  0.32513889370E+03  0.00000000000E+00 0. -1.
          3    1    5    5  503    0  0.39011672297E+02 -0.18722369067E+03  0.48079349104E+03  0.51743308935E+03  0.00000000000E+00 0. -1.
         -4    1    5    5    0  503 -0.40856612162E+02 -0.29377508039E+03  0.72707705630E+03  0.78524779937E+03  0.00000000000E+00 0.  1.
         -3    1    6    6    0  502  0.31146680553E+03  0.22830609326E+03  0.15332210057E+04  0.15811078064E+04  0.00000000000E+00 0.  1.
<mgrwt>
<rscale>  0 0.30961637E+04</rscale>
<asrwt>0</asrwt>
<pdfrwt beam="1">  1        2 0.11547869E+00 0.30961637E+04</pdfrwt>
<pdfrwt beam="2">  1       -2 0.49120106E+00 0.30961637E+04</pdfrwt>
<totfact> 0.59430767E-02</totfact>
</mgrwt>
</event>
<event>
12    1  0.1397649E-007  0.1930549E+04  0.7818608E-02  0.8639798E-01
          2   -1    0    0  501    0  0.00000000000E+00  0.00000000000E+00  0.32672919075E+04  0.32672919075E+04  0.00000000000E+00 0. -1.
         -2   -1    0    0    0  501 -0.00000000000E+00 -0.00000000000E+00 -0.28517657835E+03  0.28517657835E+03  0.00000000000E+00 0.  1.
         23    2    1    2    0    0 -0.23379582487E+03 -0.88746748224E+02 -0.13522435709E+03  0.29861702900E+03  0.91378499726E+02 0.  0.
        254    2    1    2    0    0  0.23379582487E+03  0.88746748224E+02  0.31173396863E+04  0.32538514569E+04  0.89844649857E+03 0.  0.
        -24    2    4    4    0    0  0.14659592314E+03  0.40502811325E+03  0.25941157617E+04  0.26308000679E+04  0.78321610572E+02 0.  0.
         24    2    4    4    0    0  0.87199901724E+02 -0.31628136503E+03  0.52322392455E+03  0.62305138902E+03  0.82413793769E+02 0.  0.
         11    1    3    3    0    0 -0.92705291979E-01  0.37134500927E+01 -0.23125968097E+02  0.23422397535E+02  0.00000000000E+00 0. -1.
        -11    1    3    3    0    0 -0.23370311958E+03 -0.92460198317E+02 -0.11209838900E+03  0.27519463147E+03  0.00000000000E+00 0.  1.
          2    1    6    6  502    0 -0.82372131963E+01 -0.70133949351E+02  0.15115307365E+03  0.16683487108E+03  0.00000000000E+00 0. -1.
          3    1    5    5  503    0  0.95104397526E+02  0.15866826223E+03  0.10065085921E+04  0.10233669967E+04  0.00000000000E+00 0. -1.
         -2    1    5    5    0  503  0.51491525618E+02  0.24635985102E+03  0.15876071696E+04  0.16074330712E+04  0.00000000000E+00 0.  1.
         -1    1    6    6    0  502  0.95437114920E+02 -0.24614741568E+03  0.37207085090E+03  0.45621651794E+03  0.00000000000E+00 0.  1.
<mgrwt>
<rscale>  0 0.19305493E+04</rscale>
<asrwt>0</asrwt>
<pdfrwt beam="1">  1        2 0.50266027E+00 0.19305493E+04</pdfrwt>
<pdfrwt beam="2">  1       -2 0.43873322E-01 0.19305493E+04</pdfrwt>
<totfact> 0.54149834E+00</totfact>
</mgrwt>
</event>
<event>
12    1  0.1397649E-007  0.2148451E+04  0.7818608E-02  0.8540196E-01
         -2   -1    0    0    0  501 -0.00000000000E+00  0.00000000000E+00  0.97069150412E+03  0.97069150412E+03  0.00000000000E+00 0.  1.
          2   -1    0    0  501    0  0.00000000000E+00 -0.00000000000E+00 -0.11888023674E+04  0.11888023674E+04  0.00000000000E+00 0. -1.
         23    2    1    2    0    0 -0.86935790046E+03 -0.15619010287E+03 -0.15235405772E+03  0.90092735227E+03  0.90993559321E+02 0.  0.
        254    2    1    2    0    0  0.86935790046E+03  0.15619010287E+03 -0.65756805565E+02  0.12585665192E+04  0.89414049151E+03 0.  0.
        -24    2    4    4    0    0  0.93123433245E+03 -0.13423383243E+03 -0.85157973809E+02  0.94844925943E+03  0.84190340848E+02 0.  0.
         24    2    4    4    0    0 -0.61876431993E+02  0.29042393531E+03  0.19401168244E+02  0.31011725982E+03  0.87301514733E+02 0.  0.
         11    1    3    3    0    0 -0.65836578359E+03 -0.13720232882E+03 -0.15016394987E+03  0.68907125603E+03  0.00000000000E+00 0. -1.
        -11    1    3    3    0    0 -0.21099211687E+03 -0.18987774051E+02 -0.21901078467E+01  0.21185609624E+03  0.00000000000E+00 0.  1.
          4    1    6    6  502    0  0.13357972394E+01  0.18773000038E+03 -0.14386646124E+01  0.18774026513E+03  0.00000000000E+00 0. -1.
          3    1    5    5  503    0  0.81695462584E+03 -0.12585381803E+03 -0.47983282993E+02  0.82798335710E+03  0.00000000000E+00 0. -1.
         -4    1    5    5    0  503  0.11427970662E+03 -0.83800144072E+01 -0.37174690816E+02  0.12046590232E+03  0.00000000000E+00 0.  1.
         -3    1    6    6    0  502 -0.63212229232E+02  0.10269393493E+03  0.20839832857E+02  0.12237699469E+03  0.00000000000E+00 0.  1.
<mgrwt>
<rscale>  0 0.21484509E+04</rscale>
<asrwt>0</asrwt>
<pdfrwt beam="1">  1        2 0.18289267E+00 0.21484509E+04</pdfrwt>
<pdfrwt beam="2">  1       -2 0.14933715E+00 0.21484509E+04</pdfrwt>
<totfact> 0.53532172E+00</totfact>
</mgrwt>
</event>
<event>
12    1  0.1397649E-007  0.2217238E+04  0.7818608E-02  0.8511288E-01
         -2   -1    0    0    0  501 -0.00000000000E+00  0.00000000000E+00  0.11239411229E+04  0.11239411229E+04  0.00000000000E+00 0.  1.
          2   -1    0    0  501    0  0.00000000000E+00 -0.00000000000E+00 -0.10935053752E+04  0.10935053752E+04  0.00000000000E+00 0. -1.
         23    2    1    2    0    0  0.85672720448E+02  0.70816571479E+03 -0.57536156212E+03  0.92044400729E+03  0.85660660556E+02 0.  0.
        254    2    1    2    0    0 -0.85672720448E+02 -0.70816571479E+03  0.60579730982E+03  0.12970024908E+04  0.89799030396E+03 0.  0.
        -24    2    4    4    0    0  0.14394747693E+03 -0.84267383397E+03  0.37751367476E+03  0.93762490439E+03  0.76182807250E+02 0.  0.
         24    2    4    4    0    0 -0.22962019737E+03  0.13450811918E+03  0.22828363505E+03  0.35937758644E+03  0.78873078003E+02 0.  0.
         11    1    3    3    0    0  0.45445792331E+02  0.18619773448E+03 -0.11647901925E+03  0.22428169407E+03  0.00000000000E+00 0.  1.
        -11    1    3    3    0    0  0.40226928116E+02  0.52196798030E+03 -0.45888254286E+03  0.69616231322E+03  0.00000000000E+00 0. -1.
          4    1    6    6  502    0 -0.11669972988E+03  0.23456215339E+02  0.10376113498E+03  0.15790944913E+03  0.00000000000E+00 0. -1.
          1    1    5    5  503    0  0.12938567897E+03 -0.73301133120E+03  0.35529171582E+03  0.82478995443E+03  0.00000000000E+00 0. -1.
         -2    1    5    5    0  503  0.14561797956E+02 -0.10966250277E+03  0.22221958945E+02  0.11283494996E+03  0.00000000000E+00 0.  1.
         -3    1    6    6    0  502 -0.11292046749E+03  0.11105190385E+03  0.12452250008E+03  0.20146813731E+03  0.00000000000E+00 0.  1.
<mgrwt>
<rscale>  0 0.22172376E+04</rscale>
<asrwt>0</asrwt>
<pdfrwt beam="1">  1        2 0.16823160E+00 0.22172376E+04</pdfrwt>
<pdfrwt beam="2">  1       -2 0.17291402E+00 0.22172376E+04</pdfrwt>
<totfact> 0.40787211E+00</totfact>
</mgrwt>
</event>
<event>
12    1  0.1397649E-007  0.1697501E+04  0.7818608E-02  0.8762791E-01
         -2   -1    0    0    0  501 -0.00000000000E+00  0.00000000000E+00  0.43123482133E+03  0.43123482133E+03  0.00000000000E+00 0. -1.
          2   -1    0    0  501    0  0.00000000000E+00 -0.00000000000E+00 -0.16704997948E+04  0.16704997948E+04  0.00000000000E+00 0.  1.
         23    2    1    2    0    0 -0.45352643210E+03  0.49536420627E+02  0.43477662259E+02  0.46726864804E+03  0.91157011445E+02 0.  0.
        254    2    1    2    0    0  0.45352643210E+03 -0.49536420627E+02 -0.12827426357E+04  0.16344659680E+04  0.90438390617E+03 0.  0.
        -24    2    4    4    0    0  0.92240794828E+02 -0.44522097080E+03 -0.70798473787E+03  0.84511218899E+03  0.79007251898E+02 0.  0.
         24    2    4    4    0    0  0.36128563728E+03  0.39568455017E+03 -0.57475789781E+03  0.78935377906E+03  0.75094423705E+02 0.  0.
         11    1    3    3    0    0 -0.25704100037E+03  0.73057095027E+02  0.19481903289E+02  0.26793088579E+03  0.00000000000E+00 0. -1.
        -11    1    3    3    0    0 -0.19648543173E+03 -0.23520674400E+02  0.23995758970E+02  0.19933776224E+03  0.00000000000E+00 0.  1.
          2    1    6    6  502    0  0.22577196305E+03  0.23584182435E+03 -0.40120192259E+03  0.51725943984E+03  0.00000000000E+00 0. -1.
          1    1    5    5  503    0  0.85323152506E+02 -0.43713197689E+03 -0.66176291874E+03  0.79768074202E+03  0.00000000000E+00 0. -1.
         -2    1    5    5    0  503  0.69176423218E+01 -0.80889939083E+01 -0.46221819129E+02  0.47431446967E+02  0.00000000000E+00 0.  1.
         -1    1    6    6    0  502  0.13551367423E+03  0.15984272583E+03 -0.17355597522E+03  0.27209433922E+03  0.00000000000E+00 0.  1.
<mgrwt>
<rscale>  0 0.16975013E+04</rscale>
<asrwt>0</asrwt>
<pdfrwt beam="1">  1        2 0.25699997E+00 0.16975013E+04</pdfrwt>
<pdfrwt beam="2">  1       -2 0.66343817E-01 0.16975013E+04</pdfrwt>
<totfact> 0.20246413E+01</totfact>
</mgrwt>
</event>
<event>
12    1  0.1397649E-007  0.1823178E+04  0.7818608E-02  0.8694070E-01
          2   -1    0    0  501    0  0.00000000000E+00  0.00000000000E+00  0.10076528357E+04  0.10076528357E+04  0.00000000000E+00 0. -1.
         -2   -1    0    0    0  501 -0.00000000000E+00 -0.00000000000E+00 -0.82468340778E+03  0.82468340778E+03  0.00000000000E+00 0.  1.
         23    2    1    2    0    0  0.34284503289E+03 -0.50802156954E+03 -0.23087323701E+03  0.66118188484E+03  0.90721560700E+02 0.  0.
        254    2    1    2    0    0 -0.34284503289E+03  0.50802156954E+03  0.41384266490E+03  0.11711543586E+04  0.90813443317E+03 0.  0.
        -24    2    4    4    0    0  0.22663661353E+03 -0.25882723884E+02  0.28851044720E+03  0.37651320117E+03  0.80559558877E+02 0.  0.
         24    2    4    4    0    0 -0.56948164642E+03  0.53390429343E+03  0.12533221770E+03  0.79464115744E+03  0.79895332542E+02 0.  0.
         11    1    3    3    0    0  0.24224869900E+03 -0.37602123683E+03 -0.20922409846E+03  0.49381284521E+03  0.00000000000E+00 0.  1.
        -11    1    3    3    0    0  0.10059633389E+03 -0.13200033271E+03 -0.21649138551E+02  0.16736903963E+03  0.00000000000E+00 0. -1.
          2    1    6    6  502    0 -0.45106458921E+03  0.45974681614E+03  0.88290674268E+02  0.65009356384E+03  0.00000000000E+00 0. -1.
          3    1    5    5  503    0  0.13102017072E+03 -0.49917291404E+02  0.19843522764E+03  0.24297028766E+03  0.00000000000E+00 0. -1.
         -4    1    5    5    0  503  0.95616442806E+02  0.24034567520E+02  0.90075219563E+02  0.13354291352E+03  0.00000000000E+00 0.  1.
         -1    1    6    6    0  502 -0.11841705721E+03  0.74157477290E+02  0.37041543429E+02  0.14454759360E+03  0.00000000000E+00 0.  1.
<mgrwt>
<rscale>  0 0.18231781E+04</rscale>
<asrwt>0</asrwt>
<pdfrwt beam="1">  1        2 0.15502351E+00 0.18231781E+04</pdfrwt>
<pdfrwt beam="2">  1       -2 0.12687437E+00 0.18231781E+04</pdfrwt>
<totfact> 0.10839394E+01</totfact>
</mgrwt>
</event>
<event>
12    1  0.1397649E-007  0.4458662E+04  0.7818608E-02  0.7917914E-01
          1   -1    0    0  501    0  0.00000000000E+00  0.00000000000E+00  0.19263117431E+04  0.19263117431E+04  0.00000000000E+00 0. -1.
         -1   -1    0    0    0  501 -0.00000000000E+00 -0.00000000000E+00 -0.25800169551E+04  0.25800169551E+04  0.00000000000E+00 0.  1.
         23    2    1    2    0    0  0.71605540732E+03 -0.30380940432E+03 -0.23263770411E+04  0.24547646132E+04  0.93827867286E+02 0.  0.
        254    2    1    2    0    0 -0.71605540732E+03  0.30380940432E+03  0.16726718291E+04  0.20515640850E+04  0.89780212004E+03 0.  0.
        -24    2    4    4    0    0 -0.84538100053E+03  0.82757397250E+02  0.93044822012E+03  0.12624185145E+04  0.80304375056E+02 0.  0.
         24    2    4    4    0    0  0.12932559320E+03  0.22105200707E+03  0.74222360896E+03  0.78914557052E+03  0.79156470875E+02 0.  0.
         11    1    3    3    0    0  0.19377659832E+03 -0.47959013195E+02 -0.67939641086E+03  0.70811645941E+03  0.00000000000E+00 0.  1.
        -11    1    3    3    0    0  0.52227880900E+03 -0.25585039113E+03 -0.16469806302E+04  0.17466481538E+04  0.00000000000E+00 0. -1.
          4    1    6    6  502    0  0.10974270600E+02  0.93127702669E+02  0.26304003664E+03  0.27925483791E+03  0.00000000000E+00 0. -1.
          3    1    5    5  503    0 -0.17098426773E+02 -0.98657912555E+01  0.22968583179E+02  0.30286066903E+02  0.00000000000E+00 0. -1.
         -4    1    5    5    0  503 -0.82828257375E+03  0.92623188506E+02  0.90747963694E+03  0.12321324476E+04  0.00000000000E+00 0.  1.
         -3    1    6    6    0  502  0.11835132260E+03  0.12792430440E+03  0.47918357232E+03  0.50989073260E+03  0.00000000000E+00 0.  1.
<mgrwt>
<rscale>  0 0.44586621E+04</rscale>
<asrwt>0</asrwt>
<pdfrwt beam="1">  1        1 0.29635565E+00 0.44586621E+04</pdfrwt>
<pdfrwt beam="2">  1       -1 0.39692568E+00 0.44586621E+04</pdfrwt>
<totfact> 0.18924446E-02</totfact>
</mgrwt>
</event>
<event>
12    1  0.1397649E-007  0.1603003E+04  0.7818608E-02  0.8818705E-01
          2   -1    0    0  501    0  0.00000000000E+00  0.00000000000E+00  0.14157331414E+04  0.14157331414E+04  0.00000000000E+00 0. -1.
         -2   -1    0    0    0  501 -0.00000000000E+00 -0.00000000000E+00 -0.45376104965E+03  0.45376104965E+03  0.00000000000E+00 0.  1.
         23    2    1    2    0    0  0.47202809930E+03  0.14013885535E+03  0.58697758144E+03  0.77098844615E+03  0.86203698744E+02 0.  0.
        254    2    1    2    0    0 -0.47202809930E+03 -0.14013885535E+03  0.37499451027E+03  0.10985057448E+04  0.90754865623E+03 0.  0.
        -24    2    4    4    0    0 -0.52907262558E+03  0.25528493962E+03  0.35384606375E+03  0.69050922727E+03  0.80670394626E+02 0.  0.
         24    2    4    4    0    0  0.57044526283E+02 -0.39542379497E+03  0.21148446514E+02  0.40799651758E+03  0.79999037273E+02 0.  0.
         13    1    3    3    0    0  0.45181228924E+03  0.11387046848E+03  0.55804770057E+03  0.72699247892E+03  0.00000000000E+00 0. -1.
        -13    1    3    3    0    0  0.20215810058E+02  0.26268386868E+02  0.28929880870E+02  0.43995967225E+02  0.00000000000E+00 0.  1.
          4    1    6    6  502    0  0.48227930182E+02 -0.23366520581E+03  0.49137497528E+02  0.24359773258E+03  0.00000000000E+00 0. -1.
          3    1    5    5  503    0 -0.51489068746E+03  0.25585229441E+03  0.33046969244E+03  0.66316139379E+03  0.00000000000E+00 0. -1.
         -4    1    5    5    0  503 -0.14181938120E+02 -0.56735478905E+00  0.23376371307E+02  0.27347833475E+02  0.00000000000E+00 0.  1.
         -3    1    6    6    0  502  0.88165961006E+01 -0.16175858916E+03 -0.27989051014E+02  0.16439878501E+03  0.00000000000E+00 0.  1.
<mgrwt>
<rscale>  0 0.16030029E+04</rscale>
<asrwt>0</asrwt>
<pdfrwt beam="1">  1        2 0.21780510E+00 0.16030029E+04</pdfrwt>
<pdfrwt beam="2">  1       -2 0.69809393E-01 0.16030029E+04</pdfrwt>
<totfact> 0.25409975E+01</totfact>
</mgrwt>
</event>
<event>
12    1  0.1397649E-007  0.2085717E+04  0.7818608E-02  0.8567562E-01
          2   -1    0    0  501    0  0.00000000000E+00  0.00000000000E+00  0.10271509915E+04  0.10271509915E+04  0.00000000000E+00 0. -1.
         -2   -1    0    0    0  501 -0.00000000000E+00 -0.00000000000E+00 -0.10588058602E+04  0.10588058602E+04  0.00000000000E+00 0.  1.
         23    2    1    2    0    0 -0.78658793447E+03  0.29522975406E+03 -0.74798830231E+02  0.84825777108E+03  0.89806429996E+02 0.  0.
        254    2    1    2    0    0  0.78658793447E+03 -0.29522975406E+03  0.43143961507E+02  0.12376990806E+04  0.90783061541E+03 0.  0.
        -24    2    4    4    0    0 -0.98113235896E+02  0.17680777402E+03  0.77628009661E+02  0.23129285946E+03  0.81136199949E+02 0.  0.
         24    2    4    4    0    0  0.88470117036E+03 -0.47203752808E+03 -0.34484048153E+02  0.10064062211E+04  0.78413924337E+02 0.  0.
         11    1    3    3    0    0 -0.18840688848E+03  0.70292496041E+02  0.20424722892E+02  0.20212708856E+03  0.00000000000E+00 0. -1.
        -11    1    3    3    0    0 -0.59818104599E+03  0.22493725802E+03 -0.95223553123E+02  0.64613068252E+03  0.00000000000E+00 0.  1.
          4    1    6    6  502    0  0.90503609756E+02 -0.70976802578E+02 -0.18849890066E+02  0.11655011042E+03  0.00000000000E+00 0. -1.
          3    1    5    5  503    0  0.85812950598E+01  0.44759407888E+02  0.24913912925E+01  0.45642636317E+02  0.00000000000E+00 0. -1.
         -4    1    5    5    0  503 -0.10669453096E+03  0.13204836613E+03  0.75136618368E+02  0.18565022315E+03  0.00000000000E+00 0.  1.
         -3    1    6    6    0  502  0.79419756061E+03 -0.40106072550E+03 -0.15634158087E+02  0.88985611068E+03  0.00000000000E+00 0.  1.
<mgrwt>
<rscale>  0 0.20857167E+04</rscale>
<asrwt>0</asrwt>
<pdfrwt beam="1">  1        2 0.15802323E+00 0.20857167E+04</pdfrwt>
<pdfrwt beam="2">  1       -2 0.16289321E+00 0.20857167E+04</pdfrwt>
<totfact> 0.53546589E+00</totfact>
</mgrwt>
</event>
<event>
12    1  0.1397649E-007  0.2753246E+04  0.7818608E-02  0.8317932E-01
         -2   -1    0    0    0  501 -0.00000000000E+00  0.00000000000E+00  0.11985723761E+04  0.11985723761E+04  0.00000000000E+00 0.  1.
          2   -1    0    0  501    0  0.00000000000E+00 -0.00000000000E+00 -0.15811232293E+04  0.15811232293E+04  0.00000000000E+00 0. -1.
         23    2    1    2    0    0 -0.18440260827E+03  0.11525059319E+04  0.20693524633E+03  0.11889429182E+04  0.92134800383E+02 0.  0.
        254    2    1    2    0    0  0.18440260827E+03 -0.11525059319E+04 -0.58948609948E+03  0.15907526872E+04  0.90593929454E+03 0.  0.
        -24    2    4    4    0    0 -0.32591557215E+03 -0.33665573930E+03 -0.33668307071E+02  0.47668280310E+03  0.80838684390E+02 0.  0.
         24    2    4    4    0    0  0.51031818042E+03 -0.81585019262E+03 -0.55581779241E+03  0.11140698841E+04  0.78626371536E+02 0.  0.
         13    1    3    3    0    0 -0.16758559014E+03  0.84452974696E+03  0.17753534868E+03  0.87910990414E+03  0.00000000000E+00 0. -1.
        -13    1    3    3    0    0 -0.16817018128E+02  0.30797618496E+03  0.29399897651E+02  0.30983301403E+03  0.00000000000E+00 0.  1.
          2    1    6    6  502    0  0.25646965146E+02 -0.23354983278E+02 -0.34083435095E+02  0.48630264373E+02  0.00000000000E+00 0. -1.
          1    1    5    5  503    0 -0.40659496641E+02 -0.13936455869E+02  0.88070108619E+01  0.43874627174E+02  0.00000000000E+00 0. -1.
         -2    1    5    5    0  503 -0.28525607551E+03 -0.32271928343E+03 -0.42475317933E+02  0.43280817592E+03  0.00000000000E+00 0.  1.
         -1    1    6    6    0  502  0.48467121528E+03 -0.79249520934E+03 -0.52173435731E+03  0.10654396198E+04  0.00000000000E+00 0.  1.
<mgrwt>
<rscale>  0 0.27532458E+04</rscale>
<asrwt>0</asrwt>
<pdfrwt beam="1">  1        2 0.24324973E+00 0.27532458E+04</pdfrwt>
<pdfrwt beam="2">  1       -2 0.18439575E+00 0.27532458E+04</pdfrwt>
<totfact> 0.16885599E+00</totfact>
</mgrwt>
</event>
<event>
12    1  0.1397649E-007  0.1630978E+04  0.7818608E-02  0.8801740E-01
          2   -1    0    0  501    0  0.00000000000E+00  0.00000000000E+00  0.15930513589E+04  0.15930513589E+04  0.00000000000E+00 0. -1.
         -2   -1    0    0    0  501 -0.00000000000E+00 -0.00000000000E+00 -0.41745201566E+03  0.41745201566E+03  0.00000000000E+00 0.  1.
         23    2    1    2    0    0 -0.17303063107E+03  0.48005527296E+03  0.12152569572E+03  0.53238237090E+03  0.90938604242E+02 0.  0.
        254    2    1    2    0    0  0.17303063107E+03 -0.48005527296E+03  0.10540736475E+04  0.14781210037E+04  0.90187459367E+03 0.  0.
        -24    2    4    4    0    0 -0.19272739980E+03 -0.60194481712E+03  0.57783664976E+03  0.86019076237E+03  0.80941586150E+02 0.  0.
         24    2    4    4    0    0  0.36575803087E+03  0.12188954417E+03  0.47623699779E+03  0.61793024132E+03  0.80000668436E+02 0.  0.
         13    1    3    3    0    0 -0.10630879382E+03  0.28871087359E+03  0.11856552472E+03  0.32971701780E+03  0.00000000000E+00 0. -1.
        -13    1    3    3    0    0 -0.66721837256E+02  0.19134439937E+03  0.29601709952E+01  0.20266535311E+03  0.00000000000E+00 0.  1.
          2    1    6    6  502    0  0.19559166586E+03  0.34023599510E+02  0.28459974694E+03  0.34700247987E+03  0.00000000000E+00 0. -1.
          1    1    5    5  503    0  0.55556034117E+01 -0.45096449147E+02  0.31569441748E+02  0.55327968581E+02  0.00000000000E+00 0. -1.
         -2    1    5    5    0  503 -0.19828300321E+03 -0.55684836798E+03  0.54626720801E+03  0.80486279379E+03  0.00000000000E+00 0.  1.
         -1    1    6    6    0  502  0.17016636501E+03  0.87865944656E+02  0.19163725085E+03  0.27092776145E+03  0.00000000000E+00 0.  1.
<mgrwt>
<rscale>  0 0.16309782E+04</rscale>
<asrwt>0</asrwt>
<pdfrwt beam="1">  1        2 0.24508482E+00 0.16309782E+04</pdfrwt>
<pdfrwt beam="2">  1       -2 0.64223388E-01 0.16309782E+04</pdfrwt>
<totfact> 0.24113169E+01</totfact>
</mgrwt>
</event>
<event>
12    1  0.1397649E-007  0.1422664E+04  0.7818608E-02  0.8937575E-01
          1   -1    0    0  501    0  0.00000000000E+00  0.00000000000E+00  0.24360760420E+04  0.24360760420E+04  0.00000000000E+00 0. -1.
         -1   -1    0    0    0  501 -0.00000000000E+00 -0.00000000000E+00 -0.20770817753E+03  0.20770817753E+03  0.00000000000E+00 0.  1.
         23    2    1    2    0    0 -0.21544150408E+03  0.35081273839E+03  0.61670298568E+03  0.74871522381E+03  0.10376557583E+03 0.  0.
        254    2    1    2    0    0  0.21544150408E+03 -0.35081273839E+03  0.16116648788E+04  0.18950689957E+04  0.90793072305E+03 0.  0.
        -24    2    4    4    0    0 -0.10654720726E+03 -0.53582710804E+03  0.12681226962E+04  0.13830790049E+04  0.79431507040E+02 0.  0.
         24    2    4    4    0    0  0.32198871133E+03  0.18501436965E+03  0.34354218261E+03  0.51198999074E+03  0.78774819517E+02 0.  0.
         13    1    3    3    0    0 -0.18382530000E+03  0.31649763787E+03  0.59176988163E+03  0.69581181975E+03  0.00000000000E+00 0.  1.
        -13    1    3    3    0    0 -0.31616204080E+02  0.34315100523E+02  0.24933104050E+02  0.52903404067E+02  0.00000000000E+00 0. -1.
          2    1    6    6  502    0  0.13847909465E+03  0.11298211131E+03  0.12762429675E+03  0.21961188095E+03  0.00000000000E+00 0. -1.
          1    1    5    5  503    0 -0.77449040713E+01 -0.38952821304E+02  0.50309184508E+02  0.64096176739E+02  0.00000000000E+00 0. -1.
         -4    1    5    5    0  503 -0.98802303186E+02 -0.49687428674E+03  0.12178135116E+04  0.13189828282E+04  0.00000000000E+00 0.  1.
         -1    1    6    6    0  502  0.18350961668E+03  0.72032258335E+02  0.21591788586E+03  0.29237810980E+03  0.00000000000E+00 0.  1.
<mgrwt>
<rscale>  0 0.14226636E+04</rscale>
<asrwt>0</asrwt>
<pdfrwt beam="1">  1        1 0.37478091E+00 0.14226636E+04</pdfrwt>
<pdfrwt beam="2">  1       -1 0.31955106E-01 0.14226636E+04</pdfrwt>
<totfact> 0.13366551E+01</totfact>
</mgrwt>
</event>
<event>
12    1  0.1397649E-007  0.1833858E+04  0.7818608E-02  0.8688499E-01
         -2   -1    0    0    0  501 -0.00000000000E+00  0.00000000000E+00  0.58240152901E+03  0.58240152901E+03  0.00000000000E+00 0.  1.
          2   -1    0    0  501    0  0.00000000000E+00 -0.00000000000E+00 -0.14436064644E+04  0.14436064644E+04  0.00000000000E+00 0. -1.
         23    2    1    2    0    0  0.67162218020E+03  0.16230635382E+03 -0.28558611075E+03  0.75334814758E+03  0.92489455494E+02 0.  0.
        254    2    1    2    0    0 -0.67162218020E+03 -0.16230635382E+03 -0.57561882460E+03  0.12726598458E+04  0.90050338503E+03 0.  0.
        -24    2    4    4    0    0 -0.62665104598E+03 -0.43795256038E+03 -0.19431376622E+03  0.79288950689E+03  0.80137081482E+02 0.  0.
         24    2    4    4    0    0 -0.44971134220E+02  0.27564620656E+03 -0.38130505838E+03  0.47977033891E+03  0.82357734571E+02 0.  0.
         13    1    3    3    0    0  0.11531037735E+03  0.52687212560E+02 -0.81572727450E+02  0.15075322668E+03  0.00000000000E+00 0. -1.
        -13    1    3    3    0    0  0.55631180285E+03  0.10961914126E+03 -0.20401338330E+03  0.60259492090E+03  0.00000000000E+00 0.  1.
          4    1    6    6  502    0  0.16594977247E+01 -0.56654018238E+01 -0.98986635282E+01  0.11525374188E+02  0.00000000000E+00 0. -1.
          3    1    5    5  503    0 -0.13353165877E+03 -0.10959248106E+03 -0.76116797477E+02  0.18877230373E+03  0.00000000000E+00 0. -1.
         -4    1    5    5    0  503 -0.49311938721E+03 -0.32836007932E+03 -0.11819696874E+03  0.60411720316E+03  0.00000000000E+00 0.  1.
         -3    1    6    6    0  502 -0.46630631945E+02  0.28131160838E+03 -0.37140639485E+03  0.46824496472E+03  0.00000000000E+00 0.  1.
<mgrwt>
<rscale>  0 0.18338578E+04</rscale>
<asrwt>0</asrwt>
<pdfrwt beam="1">  1        2 0.22209330E+00 0.18338578E+04</pdfrwt>
<pdfrwt beam="2">  1       -2 0.89600236E-01 0.18338578E+04</pdfrwt>
<totfact> 0.13737235E+01</totfact>
</mgrwt>
</event>
<event>
12    1  0.1397649E-007  0.1294243E+04  0.7818608E-02  0.9034143E-01
         -2   -1    0    0    0  501 -0.00000000000E+00  0.00000000000E+00  0.25313215222E+03  0.25313215222E+03  0.00000000000E+00 0.  1.
          2   -1    0    0  501    0  0.00000000000E+00 -0.00000000000E+00 -0.16543375185E+04  0.16543375185E+04  0.00000000000E+00 0. -1.
         23    2    1    2    0    0 -0.59464815775E+02 -0.12981817621E+03 -0.75966004047E+03  0.77844162627E+03  0.92190917293E+02 0.  0.
        254    2    1    2    0    0  0.59464815775E+02  0.12981817621E+03 -0.64154532582E+03  0.11290280445E+04  0.91800604404E+03 0.  0.
        -24    2    4    4    0    0  0.19472675614E+03  0.45101816621E+03 -0.58348569050E+03  0.76686301018E+03  0.79293313351E+02 0.  0.
         24    2    4    4    0    0 -0.13526194037E+03 -0.32119999000E+03 -0.58059635320E+02  0.36216503428E+03  0.79544734063E+02 0.  0.
         11    1    3    3    0    0 -0.28970832362E+02  0.47648554678E+01 -0.19304515609E+03  0.19526506412E+03  0.00000000000E+00 0.  1.
        -11    1    3    3    0    0 -0.30493983413E+02 -0.13458303168E+03 -0.56661488437E+03  0.58317656214E+03  0.00000000000E+00 0. -1.
          4    1    6    6  502    0 -0.12399251986E+03 -0.24400046449E+03 -0.71771662975E+02  0.28295148569E+03  0.00000000000E+00 0. -1.
          3    1    5    5  503    0  0.18895342529E+03  0.40983483970E+03 -0.55961227029E+03  0.71891159806E+03  0.00000000000E+00 0. -1.
         -4    1    5    5    0  503  0.57733308558E+01  0.41183326508E+02 -0.23873420215E+02  0.47951412119E+02  0.00000000000E+00 0.  1.
         -3    1    6    6    0  502 -0.11269420511E+02 -0.77199525508E+02  0.13712027654E+02  0.79213548587E+02  0.00000000000E+00 0.  1.
<mgrwt>
<rscale>  0 0.12942427E+04</rscale>
<asrwt>0</asrwt>
<pdfrwt beam="1">  1        2 0.25451347E+00 0.12942427E+04</pdfrwt>
<pdfrwt beam="2">  1       -2 0.38943407E-01 0.12942427E+04</pdfrwt>
<totfact> 0.63531374E+01</totfact>
</mgrwt>
</event>
<event>
12    1  0.1397649E-007  0.2265890E+04  0.7818608E-02  0.8491493E-01
         -2   -1    0    0    0  501 -0.00000000000E+00  0.00000000000E+00  0.10554896384E+04  0.10554896384E+04  0.00000000000E+00 0. -1.
          2   -1    0    0  501    0  0.00000000000E+00 -0.00000000000E+00 -0.12160845563E+04  0.12160845563E+04  0.00000000000E+00 0.  1.
         23    2    1    2    0    0 -0.61299775851E+03  0.14094085902E+03 -0.77815342475E+03  0.10047076732E+04  0.91017461972E+02 0.  0.
        254    2    1    2    0    0  0.61299775851E+03 -0.14094085902E+03  0.61755850683E+03  0.12668665215E+04  0.90991301574E+03 0.  0.
        -24    2    4    4    0    0  0.89200720398E+02 -0.44861332748E+03  0.12529737032E+03  0.48082548843E+03  0.79265586505E+02 0.  0.
         24    2    4    4    0    0  0.52379703811E+03  0.30767246845E+03  0.49226113651E+03  0.78604103305E+03  0.80708079804E+02 0.  0.
         13    1    3    3    0    0 -0.56674167537E+03  0.15206594348E+03 -0.70237387972E+03  0.91523179834E+03  0.00000000000E+00 0.  1.
        -13    1    3    3    0    0 -0.46256083133E+02 -0.11125084457E+02 -0.75779545029E+02  0.89475874826E+02  0.00000000000E+00 0. -1.
          2    1    6    6  502    0  0.43459906829E+03  0.24342779958E+03  0.36302068322E+03  0.61637444805E+03  0.00000000000E+00 0. -1.
          3    1    5    5  503    0  0.21776319970E+01 -0.98246724620E+02  0.56375306626E+02  0.11329314267E+03  0.00000000000E+00 0. -1.
         -4    1    5    5    0  503  0.87023088401E+02 -0.35036660286E+03  0.68922063693E+02  0.36753234575E+03  0.00000000000E+00 0.  1.
         -1    1    6    6    0  502  0.89197969820E+02  0.64244668869E+02  0.12924045329E+03  0.16966658500E+03  0.00000000000E+00 0.  1.
<mgrwt>
<rscale>  0 0.22658902E+04</rscale>
<asrwt>0</asrwt>
<pdfrwt beam="1">  1        2 0.18708993E+00 0.22658902E+04</pdfrwt>
<pdfrwt beam="2">  1       -2 0.16238302E+00 0.22658902E+04</pdfrwt>
<totfact> 0.40748760E+00</totfact>
</mgrwt>
</event>
<event>
12    1  0.1397649E-007  0.3096449E+04  0.7818608E-02  0.8216713E-01
         -2   -1    0    0    0  501 -0.00000000000E+00  0.00000000000E+00  0.10927646545E+04  0.10927646545E+04  0.00000000000E+00 0. -1.
          2   -1    0    0  501    0  0.00000000000E+00 -0.00000000000E+00 -0.21935185307E+04  0.21935185307E+04  0.00000000000E+00 0.  1.
         23    2    1    2    0    0  0.29917570433E+03  0.76531635676E+03 -0.16951638300E+04  0.18859552602E+04  0.89619222268E+02 0.  0.
        254    2    1    2    0    0 -0.29917570433E+03 -0.76531635676E+03  0.59440995376E+03  0.14003279250E+04  0.96559819622E+03 0.  0.
        -24    2    4    4    0    0  0.23264398919E+03 -0.39332883605E+02  0.40726989376E+03  0.47744812768E+03  0.80110216720E+02 0.  0.
         24    2    4    4    0    0 -0.53181969352E+03 -0.72598347316E+03  0.18714006000E+03  0.92287979736E+03  0.82471380614E+02 0.  0.
         11    1    3    3    0    0  0.29830180196E+03  0.76224726466E+03 -0.16619460383E+04  0.18525845437E+04  0.00000000000E+00 0.  1.
        -11    1    3    3    0    0  0.87390236816E+00  0.30690921005E+01 -0.33217791687E+02  0.33370716448E+02  0.00000000000E+00 0. -1.
          4    1    6    6  502    0 -0.49441542472E+03 -0.69115603011E+03  0.15900040712E+03  0.86453710136E+03  0.00000000000E+00 0. -1.
          3    1    5    5  503    0  0.21231100758E+03 -0.14495257423E+02  0.31848432851E+03  0.38303830609E+03  0.00000000000E+00 0. -1.
         -4    1    5    5    0  503  0.20332981609E+02 -0.24837626182E+02  0.88785565250E+02  0.94409821588E+02  0.00000000000E+00 0.  1.
         -3    1    6    6    0  502 -0.37404268793E+02 -0.34827443047E+02  0.28139652881E+02  0.58342696007E+02  0.00000000000E+00 0.  1.
<mgrwt>
<rscale>  0 0.30964493E+04</rscale>
<asrwt>0</asrwt>
<pdfrwt beam="1">  1        2 0.33746439E+00 0.30964493E+04</pdfrwt>
<pdfrwt beam="2">  1       -2 0.16811764E+00 0.30964493E+04</pdfrwt>
<totfact> 0.97221195E-01</totfact>
</mgrwt>
</event>
<event>
12    1  0.1397649E-007  0.1197556E+04  0.7818608E-02  0.9114999E-01
         -1   -1    0    0    0  501 -0.00000000000E+00  0.00000000000E+00  0.16460291525E+04  0.16460291525E+04  0.00000000000E+00 0.  1.
          1   -1    0    0  501    0  0.00000000000E+00 -0.00000000000E+00 -0.21781804044E+03  0.21781804044E+03  0.00000000000E+00 0. -1.
         23    2    1    2    0    0 -0.19899940015E+03 -0.14593961714E+03  0.44330080431E+03  0.51482393591E+03  0.87343853659E+02 0.  0.
        254    2    1    2    0    0  0.19899940015E+03  0.14593961714E+03  0.98491030778E+03  0.13490232571E+04  0.88820960398E+03 0.  0.
        -24    2    4    4    0    0 -0.15225872256E+03  0.82906215493E+02 -0.92968181934E+02  0.21077641031E+03  0.75679938734E+02 0.  0.
         24    2    4    4    0    0  0.35125812271E+03  0.63033401644E+02  0.10778784897E+04  0.11382468468E+04  0.80177098136E+02 0.  0.
         11    1    3    3    0    0 -0.96515608162E+02 -0.52694565968E+02  0.27907029492E+03  0.29995367877E+03  0.00000000000E+00 0.  1.
        -11    1    3    3    0    0 -0.10248379199E+03 -0.93245051169E+02  0.16423050939E+03  0.21487025714E+03  0.00000000000E+00 0. -1.
          4    1    6    6  502    0  0.65686700350E+02 -0.18642484967E+02  0.22463745548E+03  0.23478558571E+03  0.00000000000E+00 0. -1.
          3    1    5    5  503    0  0.77369110194E+01 -0.18319790776E+01 -0.57574371720E+01  0.98165178272E+01  0.00000000000E+00 0. -1.
         -4    1    5    5    0  503 -0.15999563358E+03  0.84738194571E+02 -0.87210744762E+02  0.20095989248E+03  0.00000000000E+00 0.  1.
         -3    1    6    6    0  502  0.28557142236E+03  0.81675886611E+02  0.85324103423E+03  0.90346126105E+03  0.00000000000E+00 0.  1.
<mgrwt>
<rscale>  0 0.11975556E+04</rscale>
<asrwt>0</asrwt>
<pdfrwt beam="1">  1        1 0.33510469E-01 0.11975556E+04</pdfrwt>
<pdfrwt beam="2">  1       -1 0.25323525E+00 0.11975556E+04</pdfrwt>
<totfact> 0.87731329E+00</totfact>
</mgrwt>
</event>
<event>
12    1  0.1397649E-007  0.1818173E+04  0.7818608E-02  0.8696695E-01
         -1   -1    0    0    0  501 -0.00000000000E+00  0.00000000000E+00  0.28705019526E+03  0.28705019526E+03  0.00000000000E+00 0.  1.
          1   -1    0    0  501    0  0.00000000000E+00 -0.00000000000E+00 -0.28790724142E+04  0.28790724142E+04  0.00000000000E+00 0. -1.
         23    2    1    2    0    0  0.36365615651E+03  0.23471915892E+03 -0.64812429069E+02  0.44756314523E+03  0.93665544741E+02 0.  0.
        254    2    1    2    0    0 -0.36365615651E+03 -0.23471915892E+03 -0.25272097899E+04  0.27185594643E+04  0.90356923079E+03 0.  0.
        -24    2    4    4    0    0 -0.28267743889E+03  0.28853508769E+03 -0.15560573360E+04  0.16096057067E+04  0.79731215655E+02 0.  0.
         24    2    4    4    0    0 -0.80978717627E+02 -0.52325424661E+03 -0.97115245393E+03  0.11089537576E+04  0.79301881782E+02 0.  0.
         11    1    3    3    0    0  0.11051704403E+02  0.36002427750E+02  0.97891461709E-02  0.37660524026E+02  0.00000000000E+00 0. -1.
        -11    1    3    3    0    0  0.35260445211E+03  0.19871673117E+03 -0.64822218215E+02  0.40990262120E+03  0.00000000000E+00 0.  1.
          4    1    6    6  502    0 -0.48566050458E+02 -0.20895935965E+03 -0.46789903141E+03  0.51473505693E+03  0.00000000000E+00 0. -1.
          3    1    5    5  503    0 -0.17928668422E+03  0.23413359360E+03 -0.11147848075E+04  0.11531294038E+04  0.00000000000E+00 0. -1.
         -4    1    5    5    0  503 -0.10339075466E+03  0.54401494097E+02 -0.44127252844E+03  0.45647630285E+03  0.00000000000E+00 0.  1.
         -3    1    6    6    0  502 -0.32412667169E+02 -0.31429488697E+03 -0.50325342252E+03  0.59421870069E+03  0.00000000000E+00 0.  1.
<mgrwt>
<rscale>  0 0.18181730E+04</rscale>
<asrwt>0</asrwt>
<pdfrwt beam="1">  1        1 0.44293421E+00 0.18181730E+04</pdfrwt>
<pdfrwt beam="2">  1       -1 0.44161570E-01 0.18181730E+04</pdfrwt>
<totfact> 0.35040680E+00</totfact>
</mgrwt>
</event>
<event>
12    1  0.1397649E-007  0.1236577E+04  0.7818608E-02  0.9081430E-01
         -2   -1    0    0    0  501 -0.00000000000E+00  0.00000000000E+00  0.19947640489E+03  0.19947640489E+03  0.00000000000E+00 0.  1.
          2   -1    0    0  501    0  0.00000000000E+00 -0.00000000000E+00 -0.19164193301E+04  0.19164193301E+04  0.00000000000E+00 0. -1.
         23    2    1    2    0    0  0.19936478544E+03  0.24627296781E+02 -0.77348783017E+03  0.80389471092E+03  0.87237958520E+02 0.  0.
        254    2    1    2    0    0 -0.19936478544E+03 -0.24627296781E+02 -0.94345509503E+03  0.13120010241E+04  0.88931791244E+03 0.  0.
        -24    2    4    4    0    0  0.10007126340E+03 -0.25778160842E+03  0.63907667605E+01  0.28635990605E+03  0.74131899306E+02 0.  0.
         24    2    4    4    0    0 -0.29943604885E+03  0.23315431164E+03 -0.94984586179E+03  0.10256411180E+04  0.75562301515E+02 0.  0.
         13    1    3    3    0    0  0.32654577746E+02  0.21193036261E+02 -0.62635272461E+02  0.73747159877E+02  0.00000000000E+00 0.  1.
        -13    1    3    3    0    0  0.16671020770E+03  0.34342605195E+01 -0.71085255771E+03  0.73014755104E+03  0.00000000000E+00 0. -1.
          2    1    6    6  502    0 -0.56127706815E+02  0.41836650032E+02 -0.10805047091E+03  0.12874598643E+03  0.00000000000E+00 0. -1.
          1    1    5    5  503    0  0.34572508342E+02 -0.43701311347E+02 -0.23541385283E+02  0.60491815707E+02  0.00000000000E+00 0. -1.
         -2    1    5    5    0  503  0.65498755063E+02 -0.21408029707E+03  0.29932152044E+02  0.22586809034E+03  0.00000000000E+00 0.  1.
         -1    1    6    6    0  502 -0.24330834203E+03  0.19131766161E+03 -0.84179539088E+03  0.89689513158E+03  0.00000000000E+00 0.  1.
<mgrwt>
<rscale>  0 0.12365766E+04</rscale>
<asrwt>0</asrwt>
<pdfrwt beam="1">  1        2 0.29483373E+00 0.12365766E+04</pdfrwt>
<pdfrwt beam="2">  1       -2 0.30688679E-01 0.12365766E+04</pdfrwt>
<totfact> 0.71985750E+01</totfact>
</mgrwt>
</event>
<event>
12    1  0.1397649E-007  0.1113762E+04  0.7818608E-02  0.9191881E-01
          2   -1    0    0  501    0  0.00000000000E+00  0.00000000000E+00  0.68918845390E+03  0.68918845390E+03  0.00000000000E+00 0. -1.
         -2   -1    0    0    0  501 -0.00000000000E+00 -0.00000000000E+00 -0.44997331363E+03  0.44997331363E+03  0.00000000000E+00 0.  1.
         23    2    1    2    0    0 -0.53508506591E+02  0.16274002692E+03  0.15816303557E+02  0.19603815748E+03  0.93985781320E+02 0.  0.
        254    2    1    2    0    0  0.53508506591E+02 -0.16274002692E+03  0.22339883671E+03  0.94312361006E+03  0.90012645054E+03 0.  0.
        -24    2    4    4    0    0  0.11752373823E+03  0.22222915562E+03 -0.22309774019E+03  0.34467399481E+03  0.76354006888E+02 0.  0.
         24    2    4    4    0    0 -0.64015231642E+02 -0.38496918254E+03  0.44649657690E+03  0.59844961524E+03  0.80520354051E+02 0.  0.
         13    1    3    3    0    0 -0.10293744455E+02  0.14752069592E+03  0.23015075845E+02  0.14965964925E+03  0.00000000000E+00 0. -1.
        -13    1    3    3    0    0 -0.43214762136E+02  0.15219331001E+02 -0.71987722880E+01  0.46378508224E+02  0.00000000000E+00 0.  1.
          2    1    6    6  502    0  0.13799619849E+02 -0.92965668798E+02  0.79914163155E+02  0.12336660227E+03  0.00000000000E+00 0. -1.
          3    1    5    5  503    0 -0.17988108493E+01  0.66504113153E+02 -0.54723803372E+02  0.86143644236E+02  0.00000000000E+00 0. -1.
         -4    1    5    5    0  503  0.11932254908E+03  0.15572504247E+03 -0.16837393682E+03  0.25853035058E+03  0.00000000000E+00 0.  1.
         -1    1    6    6    0  502 -0.77814851492E+02 -0.29200351374E+03  0.36658241374E+03  0.47508301297E+03  0.00000000000E+00 0.  1.
<mgrwt>
<rscale>  0 0.11137619E+04</rscale>
<asrwt>0</asrwt>
<pdfrwt beam="1">  1        2 0.10602899E+00 0.11137619E+04</pdfrwt>
<pdfrwt beam="2">  1       -2 0.69226664E-01 0.11137619E+04</pdfrwt>
<totfact> 0.79002049E+01</totfact>
</mgrwt>
</event>
<event>
12    1  0.1397649E-007  0.1351598E+04  0.7818608E-02  0.8989619E-01
         -2   -1    0    0    0  501 -0.00000000000E+00  0.00000000000E+00  0.81513479675E+03  0.81513479675E+03  0.00000000000E+00 0.  1.
          2   -1    0    0  501    0  0.00000000000E+00 -0.00000000000E+00 -0.56028066048E+03  0.56028066048E+03  0.00000000000E+00 0. -1.
         23    2    1    2    0    0  0.12985197337E+02 -0.25261903199E+03 -0.20799123354E+03  0.33832162560E+03  0.84948092644E+02 0.  0.
        254    2    1    2    0    0 -0.12985197337E+02  0.25261903199E+03  0.46284536981E+03  0.10370938316E+04  0.89294612859E+03 0.  0.
        -24    2    4    4    0    0 -0.37839374615E+03  0.27034966061E+03  0.43324359500E+02  0.47401978545E+03  0.80913476961E+02 0.  0.
         24    2    4    4    0    0  0.36540854882E+03 -0.17730628618E+02  0.41952101031E+03  0.56307404617E+03  0.84951283942E+02 0.  0.
         13    1    3    3    0    0  0.94180522356E+01 -0.20397051148E+03 -0.11766155540E+03  0.23566270574E+03  0.00000000000E+00 0. -1.
        -13    1    3    3    0    0  0.35671451015E+01 -0.48648520514E+02 -0.90329678141E+02  0.10265891985E+03  0.00000000000E+00 0.  1.
          4    1    6    6  502    0  0.39500882402E+02 -0.25961314974E+02  0.34215565685E+02  0.58352502268E+02  0.00000000000E+00 0. -1.
          3    1    5    5  503    0 -0.18811799317E+03  0.11012572657E+03  0.55620693234E+02  0.22496603415E+03  0.00000000000E+00 0. -1.
         -4    1    5    5    0  503 -0.19027575299E+03  0.16022393404E+03 -0.12296333734E+02  0.24905375130E+03  0.00000000000E+00 0.  1.
         -3    1    6    6    0  502  0.32590766641E+03  0.82306863554E+01  0.38530544463E+03  0.50472154391E+03  0.00000000000E+00 0.  1.
<mgrwt>
<rscale>  0 0.13515980E+04</rscale>
<asrwt>0</asrwt>
<pdfrwt beam="1">  1        2 0.86197025E-01 0.13515980E+04</pdfrwt>
<pdfrwt beam="2">  1       -2 0.12540535E+00 0.13515980E+04</pdfrwt>
<totfact> 0.25005177E+01</totfact>
</mgrwt>
</event>
<event>
12    1  0.1397649E-007  0.2079485E+04  0.7818608E-02  0.8570335E-01
         -1   -1    0    0    0  501 -0.00000000000E+00  0.00000000000E+00  0.10706136342E+04  0.10706136342E+04  0.00000000000E+00 0.  1.
          1   -1    0    0  501    0  0.00000000000E+00 -0.00000000000E+00 -0.10097611840E+04  0.10097611840E+04  0.00000000000E+00 0. -1.
         23    2    1    2    0    0  0.58592433616E+03  0.49504572307E+03  0.38662305557E+03  0.86378671743E+03  0.90953342330E+02 0.  0.
        254    2    1    2    0    0 -0.58592433616E+03 -0.49504572307E+03 -0.32577060535E+03  0.12165881007E+04  0.88633093361E+03 0.  0.
        -24    2    4    4    0    0 -0.14234881340E+03 -0.53809296615E+03 -0.47868588761E+03  0.73849456629E+03  0.80167453163E+02 0.  0.
         24    2    4    4    0    0 -0.44357552276E+03  0.43047243076E+02  0.15291528226E+03  0.47809353443E+03  0.81105083606E+02 0.  0.
         11    1    3    3    0    0  0.44210288662E+03  0.32226899074E+03  0.28850408091E+03  0.61850373439E+03  0.00000000000E+00 0.  1.
        -11    1    3    3    0    0  0.14382144954E+03  0.17277673234E+03  0.98118974654E+02  0.24528298305E+03  0.00000000000E+00 0. -1.
          2    1    6    6  502    0 -0.91131259050E+02  0.39165319797E+02  0.18697033339E+02  0.10093764266E+03  0.00000000000E+00 0. -1.
          3    1    5    5  503    0 -0.74692477724E+02 -0.31275682968E+03 -0.32670675935E+03  0.45840277851E+03  0.00000000000E+00 0. -1.
         -4    1    5    5    0  503 -0.67656335677E+02 -0.22533613647E+03 -0.15197912827E+03  0.28009178779E+03  0.00000000000E+00 0.  1.
         -1    1    6    6    0  502 -0.35244426371E+03  0.38819232786E+01  0.13421824892E+03  0.37715589176E+03  0.00000000000E+00 0.  1.
<mgrwt>
<rscale>  0 0.20794846E+04</rscale>
<asrwt>0</asrwt>
<pdfrwt beam="1">  1        1 0.15534787E+00 0.20794846E+04</pdfrwt>
<pdfrwt beam="2">  1       -1 0.16470979E+00 0.20794846E+04</pdfrwt>
<totfact> 0.36893426E+00</totfact>
</mgrwt>
</event>
<event>
12    1  0.1397649E-007  0.2257293E+04  0.7818608E-02  0.8494953E-01
         -2   -1    0    0    0  501 -0.00000000000E+00  0.00000000000E+00  0.11169527563E+04  0.11169527563E+04  0.00000000000E+00 0.  1.
          2   -1    0    0  501    0  0.00000000000E+00 -0.00000000000E+00 -0.11404624169E+04  0.11404624169E+04  0.00000000000E+00 0. -1.
         23    2    1    2    0    0  0.47602230730E+03  0.12638701380E+03  0.79411139596E+03  0.94077075655E+03  0.10893022027E+03 0.  0.
        254    2    1    2    0    0 -0.47602230730E+03 -0.12638701380E+03 -0.81762105656E+03  0.13166444167E+04  0.90690540492E+03 0.  0.
        -24    2    4    4    0    0 -0.18210534895E+03  0.37704982256E+03 -0.22778973431E+03  0.48323562179E+03  0.79369870192E+02 0.  0.
         24    2    4    4    0    0 -0.29391695835E+03 -0.50343683636E+03 -0.58983132226E+03  0.83340879487E+03  0.82664406173E+02 0.  0.
         11    1    3    3    0    0 -0.56235403246E+01  0.18846696649E+01  0.42304924303E+01  0.72851391017E+01  0.00000000000E+00 0. -1.
        -11    1    3    3    0    0  0.48164584762E+03  0.12450234413E+03  0.78988090353E+03  0.93348561745E+03  0.00000000000E+00 0.  1.
          4    1    6    6  502    0 -0.27243112067E+03 -0.47143509918E+03 -0.51614748792E+03  0.75025195603E+03  0.00000000000E+00 0. -1.
          3    1    5    5  503    0 -0.45932656271E+02  0.11237557151E+03 -0.27512919859E+02  0.12447906950E+03  0.00000000000E+00 0. -1.
         -4    1    5    5    0  503 -0.13617269268E+03  0.26467425105E+03 -0.20027681445E+03  0.35875655229E+03  0.00000000000E+00 0.  1.
         -3    1    6    6    0  502 -0.21485837680E+02 -0.32001737185E+02 -0.73683834334E+02  0.83156838840E+02  0.00000000000E+00 0.  1.
<mgrwt>
<rscale>  0 0.22572928E+04</rscale>
<asrwt>0</asrwt>
<pdfrwt beam="1">  1        2 0.17545576E+00 0.22572928E+04</pdfrwt>
<pdfrwt beam="2">  1       -2 0.17183888E+00 0.22572928E+04</pdfrwt>
<totfact> 0.38714383E+00</totfact>
</mgrwt>
</event>
<event>
12    1  0.1397649E-007  0.1763215E+04  0.7818608E-02  0.8726110E-01
          1   -1    0    0  501    0  0.00000000000E+00  0.00000000000E+00  0.15365259722E+04  0.15365259722E+04  0.00000000000E+00 0. -1.
         -1   -1    0    0    0  501 -0.00000000000E+00 -0.00000000000E+00 -0.50583691446E+03  0.50583691446E+03  0.00000000000E+00 0.  1.
         23    2    1    2    0    0  0.27542810326E+03 -0.50974779168E+03  0.71348798387E+03  0.92416146865E+03  0.96466915687E+02 0.  0.
        254    2    1    2    0    0 -0.27542810326E+03  0.50974779168E+03  0.31720107385E+03  0.11182014180E+04  0.90224965434E+03 0.  0.
        -24    2    4    4    0    0 -0.16956016727E+03 -0.21159935816E+03  0.25764987340E+03  0.38243750240E+03  0.79687183892E+02 0.  0.
         24    2    4    4    0    0 -0.10586793599E+03  0.72134714984E+03  0.59551200447E+02  0.73576391559E+03  0.79072520871E+02 0.  0.
         13    1    3    3    0    0  0.17930075927E+03 -0.37109988727E+03  0.56542577046E+03  0.69969292586E+03  0.00000000000E+00 0. -1.
        -13    1    3    3    0    0  0.96127343989E+02 -0.13864790441E+03  0.14806221341E+03  0.22446854278E+03  0.00000000000E+00 0.  1.
          2    1    6    6  502    0 -0.61897423498E+01  0.78183763254E+02 -0.17559806953E+02  0.80370147239E+02  0.00000000000E+00 0. -1.
          1    1    5    5  503    0 -0.84549347649E+02 -0.13406557903E+03  0.10052377288E+03  0.18768910619E+03  0.00000000000E+00 0. -1.
         -4    1    5    5    0  503 -0.85010819617E+02 -0.77533779127E+02  0.15712610052E+03  0.19474839620E+03  0.00000000000E+00 0.  1.
         -1    1    6    6    0  502 -0.99678193643E+02  0.64316338659E+03  0.77111007399E+02  0.65539376835E+03  0.00000000000E+00 0.  1.
<mgrwt>
<rscale>  0 0.17632147E+04</rscale>
<asrwt>0</asrwt>
<pdfrwt beam="1">  1        1 0.23638861E+00 0.17632147E+04</pdfrwt>
<pdfrwt beam="2">  1       -1 0.77821065E-01 0.17632147E+04</pdfrwt>
<totfact> 0.96626113E+00</totfact>
</mgrwt>
</event>
<event>
12    1  0.1397649E-007  0.2633220E+04  0.7818608E-02  0.8357004E-01
         -1   -1    0    0    0  501 -0.00000000000E+00  0.00000000000E+00  0.75383044674E+03  0.75383044674E+03  0.00000000000E+00 0.  1.
          1   -1    0    0  501    0  0.00000000000E+00 -0.00000000000E+00 -0.22995374823E+04  0.22995374823E+04  0.00000000000E+00 0. -1.
         23    2    1    2    0    0 -0.39761109634E+03  0.10798036749E+04 -0.48639582193E+03  0.12523929931E+04  0.88525440016E+02 0.  0.
        254    2    1    2    0    0  0.39761109634E+03 -0.10798036749E+04 -0.10593112136E+04  0.18009749358E+04  0.89291652026E+03 0.  0.
        -24    2    4    4    0    0  0.54875150717E+03 -0.45653250043E+03 -0.23970804151E+03  0.75727690795E+03  0.80363110840E+02 0.  0.
         24    2    4    4    0    0 -0.15114041082E+03 -0.62327117442E+03 -0.81960317208E+03  0.10436980279E+04  0.79030583350E+02 0.  0.
         13    1    3    3    0    0 -0.11342195592E+03  0.38100545681E+03 -0.20470998411E+03  0.44714189671E+03  0.00000000000E+00 0.  1.
        -13    1    3    3    0    0 -0.28418914042E+03  0.69879821804E+03 -0.28168583781E+03  0.80525109643E+03  0.00000000000E+00 0. -1.
          2    1    6    6  502    0 -0.14389961402E+02 -0.18932520883E+03 -0.21148431090E+03  0.28421245477E+03  0.00000000000E+00 0. -1.
          1    1    5    5  503    0  0.33442480662E+03 -0.22911328952E+03 -0.14875613510E+03  0.43181157748E+03  0.00000000000E+00 0. -1.
         -2    1    5    5    0  503  0.21432670055E+03 -0.22741921090E+03 -0.90951906417E+02  0.32546533047E+03  0.00000000000E+00 0.  1.
         -1    1    6    6    0  502 -0.13675044942E+03 -0.43394596559E+03 -0.60811886118E+03  0.75948557313E+03  0.00000000000E+00 0.  1.
<mgrwt>
<rscale>  0 0.26332196E+04</rscale>
<asrwt>0</asrwt>
<pdfrwt beam="1">  1        1 0.35377499E+00 0.26332196E+04</pdfrwt>
<pdfrwt beam="2">  1       -1 0.11597392E+00 0.26332196E+04</pdfrwt>
<totfact> 0.10998219E+00</totfact>
</mgrwt>
</event>
<event>
12    1  0.1397649E-007  0.2291875E+04  0.7818608E-02  0.8481132E-01
         -1   -1    0    0    0  501 -0.00000000000E+00  0.00000000000E+00  0.10716964395E+04  0.10716964395E+04  0.00000000000E+00 0.  1.
          1   -1    0    0  501    0  0.00000000000E+00 -0.00000000000E+00 -0.12253215137E+04  0.12253215137E+04  0.00000000000E+00 0. -1.
         23    2    1    2    0    0 -0.11948767072E+03  0.74615968616E+03 -0.66717688941E+03  0.10117155385E+04  0.86091512040E+02 0.  0.
        254    2    1    2    0    0  0.11948767072E+03 -0.74615968616E+03  0.51355181519E+03  0.12853024147E+04  0.90401064683E+03 0.  0.
        -24    2    4    4    0    0 -0.13833680991E+02  0.17251128722E+03 -0.47501693091E+02  0.19783727929E+03  0.83256611050E+02 0.  0.
         24    2    4    4    0    0  0.13332135171E+03 -0.91867097337E+03  0.56105350828E+03  0.10874651354E+04  0.77900201358E+02 0.  0.
         11    1    3    3    0    0 -0.15166469834E+02  0.36319390026E+03 -0.30981459540E+03  0.47762423987E+03  0.00000000000E+00 0.  1.
        -11    1    3    3    0    0 -0.10432120088E+03  0.38296578590E+03 -0.35736229401E+03  0.53409129866E+03  0.00000000000E+00 0. -1.
          2    1    6    6  502    0  0.13173589132E+03 -0.75904624960E+03  0.48768183525E+03  0.91177800288E+03  0.00000000000E+00 0. -1.
          3    1    5    5  503    0 -0.34868395657E+02  0.12774468999E+03 -0.62113339002E+02  0.14626201734E+03  0.00000000000E+00 0. -1.
         -4    1    5    5    0  503  0.21034714666E+02  0.44766597233E+02  0.14611645911E+02  0.51575261949E+02  0.00000000000E+00 0.  1.
         -3    1    6    6    0  502  0.15854603915E+01 -0.15962472377E+03  0.73371673027E+02  0.17568713250E+03  0.00000000000E+00 0.  1.
<mgrwt>
<rscale>  0 0.22918750E+04</rscale>
<asrwt>0</asrwt>
<pdfrwt beam="1">  1        1 0.18851100E+00 0.22918750E+04</pdfrwt>
<pdfrwt beam="2">  1       -1 0.16487637E+00 0.22918750E+04</pdfrwt>
<totfact> 0.24877231E+00</totfact>
</mgrwt>
</event>
<event>
12    1  0.1397649E-007  0.1766945E+04  0.7818608E-02  0.8724078E-01
          2   -1    0    0  501    0  0.00000000000E+00  0.00000000000E+00  0.36913900411E+04  0.36913900411E+04  0.00000000000E+00 0.  1.
         -2   -1    0    0    0  501 -0.00000000000E+00 -0.00000000000E+00 -0.21144434961E+03  0.21144434961E+03  0.00000000000E+00 0. -1.
         23    2    1    2    0    0  0.22164803493E+03  0.51288236494E+03  0.55238691406E+03  0.79089411410E+03  0.90587114010E+02 0.  0.
        254    2    1    2    0    0 -0.22164803493E+03 -0.51288236494E+03  0.29275587774E+04  0.31119402766E+04  0.89520708121E+03 0.  0.
        -24    2    4    4    0    0 -0.44237518382E+03 -0.59044771336E+03  0.16285347657E+04  0.17896086280E+04  0.79052216389E+02 0.  0.
         24    2    4    4    0    0  0.22072714888E+03  0.77565348413E+02  0.12990240118E+04  0.13223316486E+04  0.79754299543E+02 0.  0.
         11    1    3    3    0    0  0.64840435321E+02  0.16580868012E+03  0.23690825829E+03  0.29634831416E+03  0.00000000000E+00 0. -1.
        -11    1    3    3    0    0  0.15680759961E+03  0.34707368482E+03  0.31547865577E+03  0.49454579994E+03  0.00000000000E+00 0.  1.
          4    1    6    6  502    0  0.11215355120E+02 -0.70661247725E+01  0.19340609589E+03  0.19385982626E+03  0.00000000000E+00 0. -1.
          3    1    5    5  503    0 -0.35779316897E+02 -0.39433281537E+02  0.17345820521E+03  0.18144666479E+03  0.00000000000E+00 0. -1.
         -4    1    5    5    0  503 -0.40659586692E+03 -0.55101443182E+03  0.14550765604E+04  0.16081619632E+04  0.00000000000E+00 0.  1.
         -3    1    6    6    0  502  0.20951179376E+03  0.84631473186E+02  0.11056179159E+04  0.11284718224E+04  0.00000000000E+00 0.  1.
<mgrwt>
<rscale>  0 0.17669449E+04</rscale>
<asrwt>0</asrwt>
<pdfrwt beam="1">  1        2 0.56790611E+00 0.17669449E+04</pdfrwt>
<pdfrwt beam="2">  1       -2 0.32529903E-01 0.17669449E+04</pdfrwt>
<totfact> 0.49923699E+00</totfact>
</mgrwt>
</event>
<event>
12    1  0.1397649E-007  0.1222104E+04  0.7818608E-02  0.9093726E-01
         -2   -1    0    0    0  501 -0.00000000000E+00  0.00000000000E+00  0.16192056855E+03  0.16192056855E+03  0.00000000000E+00 0. -1.
          2   -1    0    0  501    0  0.00000000000E+00 -0.00000000000E+00 -0.23059739649E+04  0.23059739649E+04  0.00000000000E+00 0.  1.
         23    2    1    2    0    0 -0.12274192301E+03 -0.21003251500E+03 -0.77666445338E+03  0.81953936849E+03  0.96217806771E+02 0.  0.
        254    2    1    2    0    0  0.12274192301E+03  0.21003251500E+03 -0.13673889429E+04  0.16483551649E+04  0.88777417817E+03 0.  0.
        -24    2    4    4    0    0 -0.32021734485E+01 -0.27840199804E+03 -0.93652321897E+03  0.98026524055E+03  0.79537888625E+02 0.  0.
         24    2    4    4    0    0  0.12594409646E+03  0.48843451305E+03 -0.43086572398E+03  0.66808992438E+03  0.79175033916E+02 0.  0.
         13    1    3    3    0    0 -0.74925531806E+02 -0.17967965568E+03 -0.68185499238E+03  0.70910143465E+03  0.00000000000E+00 0.  1.
        -13    1    3    3    0    0 -0.47816391207E+02 -0.30352859319E+02 -0.94809460995E+02  0.11043793384E+03  0.00000000000E+00 0. -1.
          4    1    6    6  502    0 -0.31753734488E+01 -0.16494471262E+01 -0.16032823448E+01  0.39209930679E+01  0.00000000000E+00 0. -1.
          3    1    5    5  503    0 -0.28161106349E+01 -0.26770306191E+02 -0.34257656431E+02  0.43567956078E+02  0.00000000000E+00 0. -1.
         -4    1    5    5    0  503 -0.38606281360E+00 -0.25163169185E+03 -0.90226556254E+03  0.93669728447E+03  0.00000000000E+00 0.  1.
         -3    1    6    6    0  502  0.12911946991E+03  0.49008396017E+03 -0.42926244163E+03  0.66416893131E+03  0.00000000000E+00 0.  1.
<mgrwt>
<rscale>  0 0.12221041E+04</rscale>
<asrwt>0</asrwt>
<pdfrwt beam="1">  1        2 0.35476518E+00 0.12221041E+04</pdfrwt>
<pdfrwt beam="2">  1       -2 0.24910860E-01 0.12221041E+04</pdfrwt>
<totfact> 0.64241725E+01</totfact>
</mgrwt>
</event>
<event>
12    1  0.1397649E-007  0.1849477E+04  0.7818608E-02  0.8680422E-01
         -1   -1    0    0    0  501 -0.00000000000E+00  0.00000000000E+00  0.42203503577E+03  0.42203503577E+03  0.00000000000E+00 0.  1.
          1   -1    0    0  501    0  0.00000000000E+00 -0.00000000000E+00 -0.20262324599E+04  0.20262324599E+04  0.00000000000E+00 0. -1.
         23    2    1    2    0    0  0.24722070470E+03 -0.28312493156E+03 -0.13955481225E+04  0.14481220757E+04  0.90692778964E+02 0.  0.
        254    2    1    2    0    0 -0.24722070470E+03  0.28312493156E+03 -0.20864930167E+03  0.10001454200E+04  0.90303849664E+03 0.  0.
        -24    2    4    4    0    0  0.28777402374E+03  0.13372051231E+02 -0.25629259469E+03  0.39378337590E+03  0.79917160509E+02 0.  0.
         24    2    4    4    0    0 -0.53499472845E+03  0.26975288033E+03  0.47643293018E+02  0.60636204413E+03  0.80119094376E+02 0.  0.
         13    1    3    3    0    0  0.34664613467E+02 -0.56864568899E+02 -0.14412102602E+03  0.15876424271E+03  0.00000000000E+00 0.  1.
        -13    1    3    3    0    0  0.21255609124E+03 -0.22626036266E+03 -0.12514270965E+04  0.12893578330E+04  0.00000000000E+00 0. -1.
          4    1    6    6  502    0 -0.14196857491E+03  0.10272450303E+03 -0.95935942824E+01  0.17549768328E+03  0.00000000000E+00 0. -1.
          1    1    5    5  503    0  0.73370912392E+02  0.38550292286E+02 -0.77717844879E+02  0.11361988925E+03  0.00000000000E+00 0. -1.
         -2    1    5    5    0  503  0.21440311135E+03 -0.25178241055E+02 -0.17857474981E+03  0.28016348665E+03  0.00000000000E+00 0.  1.
         -3    1    6    6    0  502 -0.39302615353E+03  0.16702837730E+03  0.57236887300E+02  0.43086436085E+03  0.00000000000E+00 0.  1.
<mgrwt>
<rscale>  0 0.18494768E+04</rscale>
<asrwt>0</asrwt>
<pdfrwt beam="1">  1        1 0.31172808E+00 0.18494768E+04</pdfrwt>
<pdfrwt beam="2">  1       -1 0.64928466E-01 0.18494768E+04</pdfrwt>
<totfact> 0.64642134E+00</totfact>
</mgrwt>
</event>
<event>
12    1  0.1397649E-007  0.1610460E+04  0.7818608E-02  0.8814148E-01
          1   -1    0    0  501    0  0.00000000000E+00  0.00000000000E+00  0.38628962441E+03  0.38628962441E+03  0.00000000000E+00 0. -1.
         -1   -1    0    0    0  501 -0.00000000000E+00 -0.00000000000E+00 -0.16785210392E+04  0.16785210392E+04  0.00000000000E+00 0.  1.
         23    2    1    2    0    0 -0.31152606791E+02  0.13681556475E+02 -0.11651471260E+04  0.11692051392E+04  0.91187512672E+02 0.  0.
        254    2    1    2    0    0  0.31152606791E+02 -0.13681556475E+02 -0.12708428881E+03  0.89560552440E+03  0.88589004339E+03 0.  0.
        -24    2    4    4    0    0 -0.14798729718E+03 -0.40957490885E+03 -0.94470970590E+02  0.45284676039E+03  0.80582740274E+02 0.  0.
         24    2    4    4    0    0  0.17913990397E+03  0.39589335237E+03 -0.32613318216E+02  0.44275876401E+03  0.78415833447E+02 0.  0.
         11    1    3    3    0    0 -0.44519308456E+02  0.35787794281E+02 -0.45264396108E+03  0.45623381127E+03  0.00000000000E+00 0. -1.
        -11    1    3    3    0    0  0.13366701665E+02 -0.22106237806E+02 -0.71250316494E+03  0.71297132798E+03  0.00000000000E+00 0.  1.
          2    1    6    6  502    0  0.93870914821E+02  0.18759919062E+03 -0.54174798480E+02  0.21665667255E+03  0.00000000000E+00 0. -1.
          1    1    5    5  503    0 -0.15481144735E+03 -0.34889725577E+03 -0.77764127914E+02  0.38954221710E+03  0.00000000000E+00 0. -1.
         -2    1    5    5    0  503  0.68241501792E+01 -0.60677653079E+02 -0.16706842676E+02  0.63304543289E+02  0.00000000000E+00 0.  1.
         -1    1    6    6    0  502  0.85268989145E+02  0.20829416175E+03  0.21561480265E+02  0.22610209145E+03  0.00000000000E+00 0.  1.
<mgrwt>
<rscale>  0 0.16104599E+04</rscale>
<asrwt>0</asrwt>
<pdfrwt beam="1">  1        1 0.59429173E-01 0.16104599E+04</pdfrwt>
<pdfrwt beam="2">  1       -1 0.25823401E+00 0.16104599E+04</pdfrwt>
<totfact> 0.37144323E+00</totfact>
</mgrwt>
</event>
<event>
12    1  0.1397649E-007  0.4276040E+04  0.7818608E-02  0.7951063E-01
          2   -1    0    0  501    0  0.00000000000E+00  0.00000000000E+00  0.40456075584E+04  0.40456075584E+04  0.00000000000E+00 0.  1.
         -2   -1    0    0    0  501 -0.00000000000E+00 -0.00000000000E+00 -0.11298993248E+04  0.11298993248E+04  0.00000000000E+00 0. -1.
         23    2    1    2    0    0  0.62430004487E+03 -0.61015832098E+03 -0.83895585286E+03  0.12142596269E+04  0.92389369815E+02 0.  0.
        254    2    1    2    0    0 -0.62430004487E+03  0.61015832098E+03  0.37546640864E+04  0.39612472563E+04  0.91210399678E+03 0.  0.
        -24    2    4    4    0    0 -0.57810537038E+02  0.30845540585E+03  0.28349339523E+03  0.43032339298E+03  0.79516802053E+02 0.  0.
         24    2    4    4    0    0 -0.56648950783E+03  0.30170291513E+03  0.34711706912E+04  0.35309238633E+04  0.80388741205E+02 0.  0.
         11    1    3    3    0    0  0.51368357474E+03 -0.45002289471E+03 -0.64019094844E+03  0.93607471453E+03  0.00000000000E+00 0. -1.
        -11    1    3    3    0    0  0.11061647014E+03 -0.16013542627E+03 -0.19876490442E+03  0.27818491232E+03  0.00000000000E+00 0.  1.
          2    1    6    6  502    0 -0.41020795286E+03  0.20263472513E+03  0.26456328613E+04  0.26849030957E+04  0.00000000000E+00 0. -1.
          1    1    5    5  503    0 -0.58827692312E+02  0.19337906921E+03  0.22051437006E+03  0.29913667310E+03  0.00000000000E+00 0. -1.
         -2    1    5    5    0  503  0.10171552733E+01  0.11507633664E+03  0.62979025174E+02  0.13118671987E+03  0.00000000000E+00 0.  1.
         -1    1    6    6    0  502 -0.15628155498E+03  0.99068190002E+02  0.82553782985E+03  0.84602076760E+03  0.00000000000E+00 0.  1.
<mgrwt>
<rscale>  0 0.42760399E+04</rscale>
<asrwt>0</asrwt>
<pdfrwt beam="1">  1        2 0.62240116E+00 0.42760399E+04</pdfrwt>
<pdfrwt beam="2">  1       -2 0.17383067E+00 0.42760399E+04</pdfrwt>
<totfact> 0.48304900E-02</totfact>
</mgrwt>
</event>
<event>
12    1  0.1397649E-007  0.1278923E+04  0.7818608E-02  0.9046449E-01
          1   -1    0    0  501    0  0.00000000000E+00  0.00000000000E+00  0.52856531116E+03  0.52856531116E+03  0.00000000000E+00 0. -1.
         -1   -1    0    0    0  501 -0.00000000000E+00 -0.00000000000E+00 -0.77362397381E+03  0.77362397381E+03  0.00000000000E+00 0.  1.
         23    2    1    2    0    0  0.23621836157E+03  0.13756404511E+03 -0.22302995694E+03  0.36437183645E+03  0.91112527436E+02 0.  0.
        254    2    1    2    0    0 -0.23621836157E+03 -0.13756404511E+03 -0.22028705709E+02  0.93781744852E+03  0.89682401954E+03 0.  0.
        -24    2    4    4    0    0 -0.41766429181E+03  0.23264829267E+03  0.11325243135E+03  0.49649038192E+03  0.71469555749E+02 0.  0.
         24    2    4    4    0    0  0.18144593023E+03 -0.37021233778E+03 -0.13528113706E+03  0.44132706660E+03  0.80553044811E+02 0.  0.
         11    1    3    3    0    0  0.21169281260E+03  0.89678516327E+02 -0.20382208708E+03  0.30724505916E+03  0.00000000000E+00 0.  1.
        -11    1    3    3    0    0  0.24525548974E+02  0.47885528780E+02 -0.19207869858E+02  0.57126777290E+02  0.00000000000E+00 0. -1.
          2    1    6    6  502    0  0.19289360291E+02 -0.64527332150E+02 -0.52857479751E+02  0.85614071159E+02  0.00000000000E+00 0. -1.
          3    1    5    5  503    0 -0.19373713477E+03  0.99376798412E+02  0.15913881027E+02  0.21831875105E+03  0.00000000000E+00 0. -1.
         -4    1    5    5    0  503 -0.22392715704E+03  0.13327149426E+03  0.97338550323E+02  0.27817163087E+03  0.00000000000E+00 0.  1.
         -1    1    6    6    0  502  0.16215656994E+03 -0.30568500563E+03 -0.82423657308E+02  0.35571299544E+03  0.00000000000E+00 0.  1.
<mgrwt>
<rscale>  0 0.12789227E+04</rscale>
<asrwt>0</asrwt>
<pdfrwt beam="1">  1        1 0.81317741E-01 0.12789227E+04</pdfrwt>
<pdfrwt beam="2">  1       -1 0.11901907E+00 0.12789227E+04</pdfrwt>
<totfact> 0.25510132E+01</totfact>
</mgrwt>
</event>
<event>
12    1  0.1397649E-007  0.1403760E+04  0.7818608E-02  0.8951101E-01
          2   -1    0    0  501    0  0.00000000000E+00  0.00000000000E+00  0.20243437133E+04  0.20243437133E+04  0.00000000000E+00 0. -1.
         -2   -1    0    0    0  501 -0.00000000000E+00 -0.00000000000E+00 -0.24335564355E+03  0.24335564355E+03  0.00000000000E+00 0.  1.
         23    2    1    2    0    0 -0.77829384142E+02 -0.28563335355E+03  0.82136273132E+02  0.31863960219E+03  0.84504455663E+02 0.  0.
        254    2    1    2    0    0  0.77829384142E+02  0.28563335355E+03  0.16988517966E+04  0.19490597547E+04  0.90834612053E+03 0.  0.
        -24    2    4    4    0    0  0.34703306575E+03 -0.89129251175E+02  0.30037585382E+03  0.47440630012E+03  0.80372332881E+02 0.  0.
         24    2    4    4    0    0 -0.26920368161E+03  0.37476260472E+03  0.13984759428E+04  0.14746534546E+04  0.77137645367E+02 0.  0.
         11    1    3    3    0    0  0.10141242141E+02 -0.12952021920E+01  0.22238713282E+01  0.10462692988E+02  0.00000000000E+00 0. -1.
        -11    1    3    3    0    0 -0.87970626283E+02 -0.28433815135E+03  0.79912401804E+02  0.30817690920E+03  0.00000000000E+00 0.  1.
          2    1    6    6  502    0 -0.16301644790E+03  0.18840250476E+03  0.84892689662E+03  0.88472975642E+03  0.00000000000E+00 0. -1.
          3    1    5    5  503    0  0.13727515497E+02  0.98833929242E+00 -0.37780971642E+01  0.14272193751E+02  0.00000000000E+00 0. -1.
         -4    1    5    5    0  503  0.33330555025E+03 -0.90117590468E+02  0.30415395099E+03  0.46013410637E+03  0.00000000000E+00 0.  1.
         -1    1    6    6    0  502 -0.10618723371E+03  0.18636009996E+03  0.54954904620E+03  0.58992369815E+03  0.00000000000E+00 0.  1.
<mgrwt>
<rscale>  0 0.14037599E+04</rscale>
<asrwt>0</asrwt>
<pdfrwt beam="1">  1        2 0.31143748E+00 0.14037599E+04</pdfrwt>
<pdfrwt beam="2">  1       -2 0.37439331E-01 0.14037599E+04</pdfrwt>
<totfact> 0.42426078E+01</totfact>
</mgrwt>
</event>
<event>
12    1  0.1397649E-007  0.2576661E+04  0.7818608E-02  0.8376172E-01
          2   -1    0    0  501    0  0.00000000000E+00  0.00000000000E+00  0.14252660748E+04  0.14252660748E+04  0.00000000000E+00 0. -1.
         -2   -1    0    0    0  501 -0.00000000000E+00 -0.00000000000E+00 -0.11645511006E+04  0.11645511006E+04  0.00000000000E+00 0.  1.
         23    2    1    2    0    0  0.66009784821E+03 -0.27565256360E+03 -0.76367330395E+03  0.10507638008E+04  0.95886103482E+02 0.  0.
        254    2    1    2    0    0 -0.66009784821E+03  0.27565256360E+03  0.10243882782E+04  0.15390533746E+04  0.89866592261E+03 0.  0.
        -24    2    4    4    0    0 -0.78573696622E+03  0.40485473158E+03  0.60029007065E+03  0.10712483371E+04  0.77038283188E+02 0.  0.
         24    2    4    4    0    0  0.12563911802E+03 -0.12920216798E+03  0.42409820750E+03  0.46780503750E+03  0.80646607555E+02 0.  0.
         11    1    3    3    0    0  0.36611674431E+01  0.62929039846E+01 -0.67133033212E+01  0.99031928734E+01  0.00000000000E+00 0. -1.
        -11    1    3    3    0    0  0.65643668076E+03 -0.28194546758E+03 -0.75696000063E+03  0.10408606079E+04  0.00000000000E+00 0.  1.
          2    1    6    6  502    0  0.91212905564E+02 -0.13450354468E+03  0.34365044288E+03  0.38014026959E+03  0.00000000000E+00 0. -1.
          1    1    5    5  503    0 -0.69399262352E+03  0.33171857613E+03  0.53524001512E+03  0.93709383150E+03  0.00000000000E+00 0. -1.
         -2    1    5    5    0  503 -0.91744342703E+02  0.73136155451E+02  0.65050055529E+02  0.13415450561E+03  0.00000000000E+00 0.  1.
         -1    1    6    6    0  502  0.34426212453E+02  0.53013766967E+01  0.80447764624E+02  0.87664767905E+02  0.00000000000E+00 0.  1.
<mgrwt>
<rscale>  0 0.25766608E+04</rscale>
<asrwt>0</asrwt>
<pdfrwt beam="1">  1        2 0.21927170E+00 0.25766608E+04</pdfrwt>
<pdfrwt beam="2">  1       -2 0.17916171E+00 0.25766608E+04</pdfrwt>
<totfact> 0.22799363E+00</totfact>
</mgrwt>
</event>
<event>
12    1  0.1397649E-007  0.2434200E+04  0.7818608E-02  0.8426809E-01
         -2   -1    0    0    0  501 -0.00000000000E+00  0.00000000000E+00  0.19231386501E+04  0.19231386501E+04  0.00000000000E+00 0.  1.
          2   -1    0    0  501    0  0.00000000000E+00 -0.00000000000E+00 -0.77026833853E+03  0.77026833853E+03  0.00000000000E+00 0. -1.
         23    2    1    2    0    0  0.77411114898E+03 -0.15036896733E+03 -0.27369656411E+03  0.83682202026E+03  0.59180968769E+02 0.  0.
        254    2    1    2    0    0 -0.77411114898E+03  0.15036896733E+03  0.14265668757E+04  0.18565849684E+04  0.88879457509E+03 0.  0.
        -24    2    4    4    0    0 -0.68620544203E+01  0.24710913967E+03  0.84940049875E+03  0.88820060992E+03  0.79429852639E+02 0.  0.
         24    2    4    4    0    0 -0.76724909456E+03 -0.96740172336E+02  0.57716637693E+03  0.96838435846E+03  0.81347433851E+02 0.  0.
         13    1    3    3    0    0  0.39399287868E+03 -0.10617902815E+03 -0.13566852404E+03  0.43001200319E+03  0.00000000000E+00 0. -1.
        -13    1    3    3    0    0  0.38011827030E+03 -0.44189939184E+02 -0.13802804007E+03  0.40681001707E+03  0.00000000000E+00 0.  1.
          4    1    6    6  502    0 -0.40071195274E+03 -0.32486973561E+02  0.25418557638E+03  0.47564249154E+03  0.00000000000E+00 0. -1.
          1    1    5    5  503    0  0.98951876956E+01 -0.17510723860E+01  0.27045061234E+02  0.28851626145E+02  0.00000000000E+00 0. -1.
         -2    1    5    5    0  503 -0.16757242116E+02  0.24886021205E+03  0.82235543752E+03  0.85934898378E+03  0.00000000000E+00 0.  1.
         -3    1    6    6    0  502 -0.36653714183E+03 -0.64253198775E+02  0.32298080054E+03  0.49274186692E+03  0.00000000000E+00 0.  1.
<mgrwt>
<rscale>  0 0.24342003E+04</rscale>
<asrwt>0</asrwt>
<pdfrwt beam="1">  1        2 0.11850282E+00 0.24342003E+04</pdfrwt>
<pdfrwt beam="2">  1       -2 0.29586748E+00 0.24342003E+04</pdfrwt>
<totfact> 0.10943016E+00</totfact>
</mgrwt>
</event>
<event>
12    1  0.1397649E-007  0.1616801E+04  0.7818608E-02  0.8810293E-01
         -1   -1    0    0    0  501 -0.00000000000E+00  0.00000000000E+00  0.75647059473E+03  0.75647059473E+03  0.00000000000E+00 0.  1.
          1   -1    0    0  501    0  0.00000000000E+00 -0.00000000000E+00 -0.86389517894E+03  0.86389517894E+03  0.00000000000E+00 0. -1.
         23    2    1    2    0    0 -0.80905333193E+02 -0.28198741201E+03 -0.50999677088E+03  0.59537179659E+03  0.91149856821E+02 0.  0.
        254    2    1    2    0    0  0.80905333193E+02  0.28198741201E+03  0.40257218667E+03  0.10249939771E+04  0.89581566972E+03 0.  0.
        -24    2    4    4    0    0 -0.73840807195E+02 -0.14309205065E+03 -0.19897469139E+03  0.26818190474E+03  0.80017538385E+02 0.  0.
         24    2    4    4    0    0  0.15474614039E+03  0.42507946266E+03  0.60154687806E+03  0.75681207235E+03  0.79164062582E+02 0.  0.
         13    1    3    3    0    0 -0.39595771674E+02 -0.15396043334E+03 -0.18675066981E+03  0.24524977644E+03  0.00000000000E+00 0.  1.
        -13    1    3    3    0    0 -0.41309561518E+02 -0.12802697867E+03 -0.32324610107E+03  0.35012202015E+03  0.00000000000E+00 0. -1.
          4    1    6    6  502    0  0.15946201993E+03  0.41884584135E+03  0.59989703070E+03  0.74882335838E+03  0.00000000000E+00 0. -1.
          3    1    5    5  503    0 -0.75930022225E+02 -0.14049865719E+03 -0.20585333284E+03  0.26053950869E+03  0.00000000000E+00 0. -1.
         -4    1    5    5    0  503  0.20892150297E+01 -0.25933934677E+01  0.68786414543E+01  0.76423960494E+01  0.00000000000E+00 0.  1.
         -3    1    6    6    0  502 -0.47158795417E+01  0.62336213136E+01  0.16498473620E+01  0.79887139673E+01  0.00000000000E+00 0.  1.
<mgrwt>
<rscale>  0 0.16168009E+04</rscale>
<asrwt>0</asrwt>
<pdfrwt beam="1">  1        1 0.13290695E+00 0.16168009E+04</pdfrwt>
<pdfrwt beam="2">  1       -1 0.11638009E+00 0.16168009E+04</pdfrwt>
<totfact> 0.12462861E+01</totfact>
</mgrwt>
</event>
<event>
12    1  0.1397649E-007  0.1782755E+04  0.7818608E-02  0.8715524E-01
         -2   -1    0    0    0  501 -0.00000000000E+00  0.00000000000E+00  0.57939787920E+03  0.57939787920E+03  0.00000000000E+00 0.  1.
          2   -1    0    0  501    0  0.00000000000E+00 -0.00000000000E+00 -0.13713446896E+04  0.13713446896E+04  0.00000000000E+00 0. -1.
         23    2    1    2    0    0  0.53691104940E+03  0.33674663843E+03 -0.81661830036E+02  0.64546858048E+03  0.91045375717E+02 0.  0.
        254    2    1    2    0    0 -0.53691104940E+03 -0.33674663843E+03 -0.71028498035E+03  0.13052739883E+04  0.89306419576E+03 0.  0.
        -24    2    4    4    0    0  0.14431383899E+03 -0.29461464003E+03 -0.46718618331E+03  0.57636684007E+03  0.79445164841E+02 0.  0.
         24    2    4    4    0    0 -0.68122488839E+03 -0.42131998401E+02 -0.24309879704E+03  0.72890714822E+03  0.79788167998E+02 0.  0.
         13    1    3    3    0    0  0.41800613002E+03  0.24394551002E+03 -0.97835271889E+02  0.49377148259E+03  0.00000000000E+00 0.  1.
        -13    1    3    3    0    0  0.11890491939E+03  0.92801128407E+02  0.16173441853E+02  0.15169709789E+03  0.00000000000E+00 0. -1.
          2    1    6    6  502    0 -0.95250282213E+02  0.20564957452E+02 -0.43388615916E+02  0.10666820392E+03  0.00000000000E+00 0. -1.
          1    1    5    5  503    0 -0.58546547005E+01 -0.48903094765E+01 -0.29185675758E+02  0.30166136277E+02  0.00000000000E+00 0. -1.
         -2    1    5    5    0  503  0.15016849369E+03 -0.28972433055E+03 -0.43800050755E+03  0.54620070379E+03  0.00000000000E+00 0.  1.
         -1    1    6    6    0  502 -0.58597460618E+03 -0.62696955853E+02 -0.19971018113E+03  0.62223894430E+03  0.00000000000E+00 0.  1.
<mgrwt>
<rscale>  0 0.17827554E+04</rscale>
<asrwt>0</asrwt>
<pdfrwt beam="1">  1        2 0.21097611E+00 0.17827554E+04</pdfrwt>
<pdfrwt beam="2">  1       -2 0.89138135E-01 0.17827554E+04</pdfrwt>
<totfact> 0.15354128E+01</totfact>
</mgrwt>
</event>
<event>
12    1  0.1397649E-007  0.1869947E+04  0.7818608E-02  0.8669962E-01
          2   -1    0    0  501    0  0.00000000000E+00  0.00000000000E+00  0.27245546241E+04  0.27245546241E+04  0.00000000000E+00 0. -1.
         -2   -1    0    0    0  501 -0.00000000000E+00 -0.00000000000E+00 -0.32085079677E+03  0.32085079677E+03  0.00000000000E+00 0.  1.
         23    2    1    2    0    0  0.59345442365E+03  0.38135310260E+03  0.11277492643E+04  0.13334351432E+04  0.92803751009E+02 0.  0.
        254    2    1    2    0    0 -0.59345442365E+03 -0.38135310260E+03  0.12759545631E+04  0.17119702777E+04  0.89730922367E+03 0.  0.
        -24    2    4    4    0    0 -0.10453376290E+03 -0.42822477179E+03  0.10923874354E+04  0.11807012682E+04  0.80258413864E+02 0.  0.
         24    2    4    4    0    0 -0.48892066075E+03  0.46871669188E+02  0.18356712766E+03  0.53126900946E+03  0.85495638357E+02 0.  0.
         13    1    3    3    0    0  0.10037025627E+03  0.25926965198E+02  0.16548909100E+03  0.19527681662E+03  0.00000000000E+00 0. -1.
        -13    1    3    3    0    0  0.49308416738E+03  0.35542613740E+03  0.96226017332E+03  0.11381583266E+04  0.00000000000E+00 0.  1.
          2    1    6    6  502    0 -0.63079202678E+01  0.29049310942E+01 -0.76180935535E+01  0.10308435000E+02  0.00000000000E+00 0. -1.
          3    1    5    5  503    0  0.27685007147E+00  0.20143137639E+01  0.25282692847E+02  0.25364318708E+02  0.00000000000E+00 0. -1.
         -4    1    5    5    0  503 -0.10481061297E+03 -0.43023908555E+03  0.10671047426E+04  0.11553369495E+04  0.00000000000E+00 0.  1.
         -1    1    6    6    0  502 -0.48261274048E+03  0.43966738094E+02  0.19118522121E+03  0.52096057446E+03  0.00000000000E+00 0.  1.
<mgrwt>
<rscale>  0 0.18699471E+04</rscale>
<asrwt>0</asrwt>
<pdfrwt beam="1">  1        2 0.41916223E+00 0.18699471E+04</pdfrwt>
<pdfrwt beam="2">  1       -2 0.49361663E-01 0.18699471E+04</pdfrwt>
<totfact> 0.93801653E+00</totfact>
</mgrwt>
</event>
<event>
12    1  0.1397649E-007  0.2329549E+04  0.7818608E-02  0.8466360E-01
          2   -1    0    0  501    0  0.00000000000E+00  0.00000000000E+00  0.13781701727E+04  0.13781701727E+04  0.00000000000E+00 0. -1.
         -2   -1    0    0    0  501 -0.00000000000E+00 -0.00000000000E+00 -0.98442135958E+03  0.98442135958E+03  0.00000000000E+00 0.  1.
         23    2    1    2    0    0 -0.80712466945E+02  0.92040734227E+03 -0.16765457372E+03  0.94359528399E+03  0.92735246116E+02 0.  0.
        254    2    1    2    0    0  0.80712466945E+02 -0.92040734227E+03  0.56140338681E+03  0.14189962483E+04  0.91908237490E+03 0.  0.
        -24    2    4    4    0    0  0.13976669247E+03 -0.60833385115E+03 -0.13962491850E+03  0.64554919399E+03  0.87371855938E+02 0.  0.
         24    2    4    4    0    0 -0.59054225525E+02 -0.31207349111E+03  0.70102830531E+03  0.77344705428E+03  0.76827049381E+02 0.  0.
         13    1    3    3    0    0  0.16398128048E+02  0.20738653361E+03 -0.55446416903E+02  0.21529602428E+03  0.00000000000E+00 0. -1.
        -13    1    3    3    0    0 -0.97110594992E+02  0.71302080866E+03 -0.11220815681E+03  0.72829925971E+03  0.00000000000E+00 0.  1.
          2    1    6    6  502    0 -0.43620101207E+01 -0.63392811947E+02  0.22246622249E+03  0.23136312560E+03  0.00000000000E+00 0. -1.
          1    1    5    5  503    0  0.30844589538E+02 -0.29267238665E+03 -0.39475959909E+02  0.29692905890E+03  0.00000000000E+00 0. -1.
         -2    1    5    5    0  503  0.10892210293E+03 -0.31566146451E+03 -0.10014895859E+03  0.34862013509E+03  0.00000000000E+00 0.  1.
         -1    1    6    6    0  502 -0.54692215404E+02 -0.24868067917E+03  0.47856208282E+03  0.54208392868E+03  0.00000000000E+00 0.  1.
<mgrwt>
<rscale>  0 0.23295494E+04</rscale>
<asrwt>0</asrwt>
<pdfrwt beam="1">  1        2 0.21202618E+00 0.23295494E+04</pdfrwt>
<pdfrwt beam="2">  1       -2 0.15144944E+00 0.23295494E+04</pdfrwt>
<totfact> 0.39348538E+00</totfact>
</mgrwt>
</event>
<event>
12    1  0.1397649E-007  0.1432882E+04  0.7818608E-02  0.8930355E-01
         -2   -1    0    0    0  501 -0.00000000000E+00  0.00000000000E+00  0.29974123164E+03  0.29974123164E+03  0.00000000000E+00 0.  1.
          2   -1    0    0  501    0  0.00000000000E+00 -0.00000000000E+00 -0.17124361839E+04  0.17124361839E+04  0.00000000000E+00 0. -1.
         23    2    1    2    0    0 -0.11060890852E+03 -0.38322820417E+03 -0.18877089366E+03  0.45070506125E+03  0.91664686900E+02 0.  0.
        254    2    1    2    0    0  0.11060890852E+03  0.38322820417E+03 -0.12239240586E+04  0.15614723543E+04  0.88380293326E+03 0.  0.
        -24    2    4    4    0    0 -0.19876332017E+03  0.45831523815E+03 -0.10985228128E+04  0.12095526998E+04  0.81888023769E+02 0.  0.
         24    2    4    4    0    0  0.30937222868E+03 -0.75087033978E+02 -0.12540124579E+03  0.35191965445E+03  0.82296611051E+02 0.  0.
         13    1    3    3    0    0 -0.37218463691E+02 -0.95074232433E+02 -0.93551596931E+02  0.13847824739E+03  0.00000000000E+00 0. -1.
        -13    1    3    3    0    0 -0.73390444825E+02 -0.28815397174E+03 -0.95219296726E+02  0.31222681385E+03  0.00000000000E+00 0.  1.
          2    1    6    6  502    0  0.17146255540E+02 -0.18571588428E+01 -0.32272715285E+02  0.36591956354E+02  0.00000000000E+00 0. -1.
          1    1    5    5  503    0 -0.44961948387E+02  0.79257709666E+02 -0.13595969337E+03  0.16367162113E+03  0.00000000000E+00 0. -1.
         -2    1    5    5    0  503 -0.15380137178E+03  0.37905752848E+03 -0.96256311942E+03  0.10458810787E+04  0.00000000000E+00 0.  1.
         -1    1    6    6    0  502  0.29222597314E+03 -0.73229875135E+02 -0.93128530501E+02  0.31532769809E+03  0.00000000000E+00 0.  1.
<mgrwt>
<rscale>  0 0.14328820E+04</rscale>
<asrwt>0</asrwt>
<pdfrwt beam="1">  1        2 0.26345172E+00 0.14328820E+04</pdfrwt>
<pdfrwt beam="2">  1       -2 0.46114036E-01 0.14328820E+04</pdfrwt>
<totfact> 0.41782936E+01</totfact>
</mgrwt>
</event>
<event>
12    1  0.1397649E-007  0.1379551E+04  0.7818608E-02  0.8968755E-01
         -3   -1    0    0    0  501 -0.00000000000E+00  0.00000000000E+00  0.56480668409E+03  0.56480668409E+03  0.00000000000E+00 0.  1.
          3   -1    0    0  501    0  0.00000000000E+00 -0.00000000000E+00 -0.84239485472E+03  0.84239485472E+03  0.00000000000E+00 0. -1.
         23    2    1    2    0    0 -0.14733570964E+03 -0.10117822225E+03 -0.36332891216E+03  0.41588227060E+03  0.94896367663E+02 0.  0.
        254    2    1    2    0    0  0.14733570964E+03  0.10117822225E+03  0.85740741539E+02  0.99131926820E+03  0.97129685100E+03 0.  0.
        -24    2    4    4    0    0 -0.32919722509E+03  0.27834836462E+03 -0.90943601428E+02  0.44742246292E+03  0.77894137101E+02 0.  0.
         24    2    4    4    0    0  0.47653293473E+03 -0.17717014237E+03  0.17668434297E+03  0.54389680528E+03  0.78316540497E+02 0.  0.
         11    1    3    3    0    0 -0.93186406189E+02 -0.67617100695E+02 -0.12835837881E+03  0.17242868675E+03  0.00000000000E+00 0.  1.
        -11    1    3    3    0    0 -0.54149303448E+02 -0.33561121553E+02 -0.23497053336E+03  0.24345358385E+03  0.00000000000E+00 0. -1.
          2    1    6    6  502    0  0.20019373717E+03 -0.90726227328E+02  0.11418767867E+03  0.24768449020E+03  0.00000000000E+00 0. -1.
          1    1    5    5  503    0 -0.14261933810E+02  0.22932847903E+02 -0.24622331537E+02  0.36545553481E+02  0.00000000000E+00 0. -1.
         -2    1    5    5    0  503 -0.31493529128E+03  0.25541551672E+03 -0.66321269892E+02  0.41087690944E+03  0.00000000000E+00 0.  1.
         -1    1    6    6    0  502  0.27633919756E+03 -0.86443915045E+02  0.62496664301E+02  0.29621231508E+03  0.00000000000E+00 0.  1.
<mgrwt>
<rscale>  0 0.13795510E+04</rscale>
<asrwt>0</asrwt>
<pdfrwt beam="1">  1        3 0.12959921E+00 0.13795510E+04</pdfrwt>
<pdfrwt beam="2">  1       -3 0.86893337E-01 0.13795510E+04</pdfrwt>
<totfact> 0.14455778E+00</totfact>
</mgrwt>
</event>
<event>
12    1  0.1397649E-007  0.1116794E+04  0.7818608E-02  0.9188976E-01
         -2   -1    0    0    0  501 -0.00000000000E+00  0.00000000000E+00  0.39396080377E+03  0.39396080377E+03  0.00000000000E+00 0.  1.
          2   -1    0    0  501    0  0.00000000000E+00 -0.00000000000E+00 -0.79146742004E+03  0.79146742004E+03  0.00000000000E+00 0. -1.
         23    2    1    2    0    0  0.17653168473E+03 -0.25227336424E+02 -0.12540232189E+03  0.22901357048E+03  0.70154250847E+02 0.  0.
        254    2    1    2    0    0 -0.17653168473E+03  0.25227336424E+02 -0.27210429438E+03  0.95641465333E+03  0.89938222568E+03 0.  0.
        -24    2    4    4    0    0  0.14955566817E+03  0.26176189350E+03 -0.41714805216E+03  0.52079451839E+03  0.79550274622E+02 0.  0.
         24    2    4    4    0    0 -0.32608735290E+03 -0.23653455708E+03  0.14504375778E+03  0.43562013494E+03  0.80284817275E+02 0.  0.
         13    1    3    3    0    0  0.89265562989E+02 -0.16188411974E+02 -0.21893645390E+02  0.93325972411E+02  0.00000000000E+00 0.  1.
        -13    1    3    3    0    0  0.87266121740E+02 -0.90389244508E+01 -0.10350867650E+03  0.13568759807E+03  0.00000000000E+00 0. -1.
          4    1    6    6  502    0 -0.88151550013E+02 -0.54207992479E+02  0.20630451399E+01  0.10350583739E+03  0.00000000000E+00 0. -1.
          1    1    5    5  503    0  0.11524477117E+03  0.22353442766E+03 -0.29116269993E+03  0.38473980229E+03  0.00000000000E+00 0. -1.
         -2    1    5    5    0  503  0.34310896999E+02  0.38227465838E+02 -0.12598535223E+03  0.13605471610E+03  0.00000000000E+00 0.  1.
         -3    1    6    6    0  502 -0.23793580288E+03 -0.18232656460E+03  0.14298071264E+03  0.33211429755E+03  0.00000000000E+00 0.  1.
<mgrwt>
<rscale>  0 0.11167939E+04</rscale>
<asrwt>0</asrwt>
<pdfrwt beam="1">  1        2 0.12176422E+00 0.11167939E+04</pdfrwt>
<pdfrwt beam="2">  1       -2 0.60609355E-01 0.11167939E+04</pdfrwt>
<totfact> 0.87889971E+01</totfact>
</mgrwt>
</event>
<event>
12    1  0.1397649E-007  0.1567150E+04  0.7818608E-02  0.8840987E-01
         -2   -1    0    0    0  501 -0.00000000000E+00  0.00000000000E+00  0.31149455965E+03  0.31149455965E+03  0.00000000000E+00 0.  1.
          2   -1    0    0  501    0  0.00000000000E+00 -0.00000000000E+00 -0.19711092654E+04  0.19711092654E+04  0.00000000000E+00 0. -1.
         23    2    1    2    0    0 -0.51464353965E+03  0.10574638629E+02 -0.65664566495E+03  0.83934192312E+03  0.91332024645E+02 0.  0.
        254    2    1    2    0    0  0.51464353965E+03 -0.10574638629E+02 -0.10029690408E+04  0.14432619019E+04  0.90115937814E+03 0.  0.
        -24    2    4    4    0    0  0.44883969389E+03  0.40415019494E+03 -0.56163604551E+03  0.82892691627E+03  0.83008035808E+02 0.  0.
         24    2    4    4    0    0  0.65803845756E+02 -0.41472483356E+03 -0.44133299525E+03  0.61433498562E+03  0.79409244838E+02 0.  0.
         11    1    3    3    0    0 -0.36634477086E+03  0.15179055432E+01 -0.52897613841E+03  0.64344894916E+03  0.00000000000E+00 0.  1.
        -11    1    3    3    0    0 -0.14829876879E+03  0.90567330854E+01 -0.12766952654E+03  0.19589297396E+03  0.00000000000E+00 0. -1.
          2    1    6    6  502    0 -0.16804401360E+02 -0.12357704447E+03 -0.12827126849E+03  0.17890553973E+03  0.00000000000E+00 0. -1.
          3    1    5    5  503    0  0.15140940642E+03  0.11731144934E+03 -0.13061809297E+03  0.23183587020E+03  0.00000000000E+00 0. -1.
         -4    1    5    5    0  503  0.29743028747E+03  0.28683874560E+03 -0.43101795254E+03  0.59709104607E+03  0.00000000000E+00 0.  1.
         -1    1    6    6    0  502  0.82608247116E+02 -0.29114778909E+03 -0.31306172676E+03  0.43542944589E+03  0.00000000000E+00 0.  1.
<mgrwt>
<rscale>  0 0.15671500E+04</rscale>
<asrwt>0</asrwt>
<pdfrwt beam="1">  1        2 0.30324759E+00 0.15671500E+04</pdfrwt>
<pdfrwt beam="2">  1       -2 0.47922239E-01 0.15671500E+04</pdfrwt>
<totfact> 0.27502975E+01</totfact>
</mgrwt>
</event>
<event>
12    1  0.1397649E-007  0.1192048E+04  0.7818608E-02  0.9119846E-01
         -1   -1    0    0    0  501 -0.00000000000E+00  0.00000000000E+00  0.74480559989E+03  0.74480559989E+03  0.00000000000E+00 0.  1.
          1   -1    0    0  501    0  0.00000000000E+00 -0.00000000000E+00 -0.47696259255E+03  0.47696259255E+03  0.00000000000E+00 0. -1.
         23    2    1    2    0    0  0.13647034665E+03  0.17651128681E+03  0.15001163650E+03  0.28427498323E+03  0.92349256195E+02 0.  0.
        254    2    1    2    0    0 -0.13647034665E+03 -0.17651128681E+03  0.11783137084E+03  0.93749320922E+03  0.90290026885E+03 0.  0.
        -24    2    4    4    0    0  0.34668249263E+03 -0.12624326501E+03 -0.11253320746E+03  0.39356439037E+03  0.78122301118E+02 0.  0.
         24    2    4    4    0    0 -0.48315283928E+03 -0.50268021798E+02  0.23036457830E+03  0.54392881885E+03  0.82626756685E+02 0.  0.
         13    1    3    3    0    0  0.12828462753E+03  0.18785783174E+03  0.14141270742E+03  0.26785269165E+03  0.00000000000E+00 0. -1.
        -13    1    3    3    0    0  0.81857191242E+01 -0.11346544929E+02  0.85989290789E+01  0.16422291579E+02  0.00000000000E+00 0.  1.
          2    1    6    6  502    0 -0.19322594036E+03  0.50506096561E+01  0.56546056274E+02  0.20139322026E+03  0.00000000000E+00 0. -1.
          3    1    5    5  503    0  0.30619276253E+03 -0.11829703754E+03 -0.12375415274E+03  0.35080377312E+03  0.00000000000E+00 0. -1.
         -4    1    5    5    0  503  0.40489730100E+02 -0.79462274677E+01  0.11220945282E+02  0.42760617250E+02  0.00000000000E+00 0.  1.
         -1    1    6    6    0  502 -0.28992689892E+03 -0.55318631454E+02  0.17381852202E+03  0.34253559859E+03  0.00000000000E+00 0.  1.
<mgrwt>
<rscale>  0 0.11920477E+04</rscale>
<asrwt>0</asrwt>
<pdfrwt beam="1">  1        1 0.73378861E-01 0.11920477E+04</pdfrwt>
<pdfrwt beam="2">  1       -1 0.11458548E+00 0.11920477E+04</pdfrwt>
<totfact> 0.32444024E+01</totfact>
</mgrwt>
</event>
<event>
12    1  0.1397649E-007  0.2397854E+04  0.7818608E-02  0.8440307E-01
          2   -1    0    0  501    0  0.00000000000E+00  0.00000000000E+00  0.11435614101E+04  0.11435614101E+04  0.00000000000E+00 0.  1.
         -2   -1    0    0    0  501 -0.00000000000E+00 -0.00000000000E+00 -0.12569734771E+04  0.12569734771E+04  0.00000000000E+00 0. -1.
         23    2    1    2    0    0  0.94664881064E+03 -0.37932111731E+03 -0.16506524114E+03  0.10371230131E+04  0.91373571976E+02 0.  0.
        254    2    1    2    0    0 -0.94664881064E+03  0.37932111731E+03  0.51653174089E+02  0.13634118742E+04  0.90343533667E+03 0.  0.
        -24    2    4    4    0    0 -0.46107178811E+03  0.48279748328E+03  0.37052486633E+03  0.76784130987E+03  0.81308037326E+02 0.  0.
         24    2    4    4    0    0 -0.48557702253E+03 -0.10347636597E+03 -0.31887169224E+03  0.59557056431E+03  0.80825353915E+02 0.  0.
         11    1    3    3    0    0  0.49876072619E+03 -0.16616872900E+03 -0.51206405662E+02  0.52820110229E+03  0.00000000000E+00 0. -1.
        -11    1    3    3    0    0  0.44788808445E+03 -0.21315238832E+03 -0.11385883547E+03  0.50892191076E+03  0.00000000000E+00 0.  1.
          2    1    6    6  502    0 -0.42090629856E+03 -0.11613752409E+03 -0.28564640582E+03  0.52176997406E+03  0.00000000000E+00 0. -1.
          3    1    5    5  503    0 -0.36132674751E+03  0.35402078998E+03  0.24422123887E+03  0.56172213035E+03  0.00000000000E+00 0. -1.
         -4    1    5    5    0  503 -0.99745040594E+02  0.12877669330E+03  0.12630362746E+03  0.20611917953E+03  0.00000000000E+00 0.  1.
         -1    1    6    6    0  502 -0.64670723965E+02  0.12661158121E+02 -0.33225286411E+02  0.73800590243E+02  0.00000000000E+00 0.  1.
<mgrwt>
<rscale>  0 0.23978543E+04</rscale>
<asrwt>0</asrwt>
<pdfrwt beam="1">  1        2 0.17593253E+00 0.23978543E+04</pdfrwt>
<pdfrwt beam="2">  1       -2 0.19338053E+00 0.23978543E+04</pdfrwt>
<totfact> 0.27106867E+00</totfact>
</mgrwt>
</event>
<event>
12    1  0.1397649E-007  0.2448621E+04  0.7818608E-02  0.8421522E-01
          1   -1    0    0  501    0  0.00000000000E+00  0.00000000000E+00  0.11537191967E+04  0.11537191967E+04  0.00000000000E+00 0. -1.
         -1   -1    0    0    0  501 -0.00000000000E+00 -0.00000000000E+00 -0.12992205830E+04  0.12992205830E+04  0.00000000000E+00 0.  1.
         23    2    1    2    0    0  0.29280245527E+03  0.97103422065E+03 -0.18660929520E+03  0.10351206285E+04  0.89503915860E+02 0.  0.
        254    2    1    2    0    0 -0.29280245527E+03 -0.97103422065E+03  0.41107908945E+02  0.14178191512E+04  0.98988916035E+03 0.  0.
        -24    2    4    4    0    0  0.26615060862E+03 -0.49954530465E+03  0.28914688729E+03  0.64070468518E+03  0.80715012984E+02 0.  0.
         24    2    4    4    0    0 -0.55895306389E+03 -0.47148891600E+03 -0.24803897835E+03  0.77711446599E+03  0.87482757933E+02 0.  0.
         13    1    3    3    0    0  0.95938668252E+02  0.37991811022E+03 -0.11261713441E+03  0.40770653355E+03  0.00000000000E+00 0. -1.
        -13    1    3    3    0    0  0.19686378702E+03  0.59111611043E+03 -0.73992160791E+02  0.62741409492E+03  0.00000000000E+00 0.  1.
          4    1    6    6  502    0 -0.22744319534E+03 -0.23350508031E+03 -0.14146147195E+03  0.35533980594E+03  0.00000000000E+00 0. -1.
          3    1    5    5  503    0  0.39800579101E+02 -0.93523307801E+02  0.87043894603E+02  0.13381829018E+03  0.00000000000E+00 0. -1.
         -4    1    5    5    0  503  0.22635002952E+03 -0.40602199685E+03  0.20210299269E+03  0.50688639501E+03  0.00000000000E+00 0.  1.
         -1    1    6    6    0  502 -0.33150986855E+03 -0.23798383569E+03 -0.10657750639E+03  0.42177466006E+03  0.00000000000E+00 0.  1.
<mgrwt>
<rscale>  0 0.24486206E+04</rscale>
<asrwt>0</asrwt>
<pdfrwt beam="1">  1        1 0.17749526E+00 0.24486206E+04</pdfrwt>
<pdfrwt beam="2">  1       -1 0.19988009E+00 0.24486206E+04</pdfrwt>
<totfact> 0.15553576E+00</totfact>
</mgrwt>
</event>
<event>
12    1  0.1397649E-007  0.2721840E+04  0.7818608E-02  0.8327953E-01
         -2   -1    0    0    0  501 -0.00000000000E+00  0.00000000000E+00  0.16915567845E+04  0.16915567845E+04  0.00000000000E+00 0.  1.
          2   -1    0    0  501    0  0.00000000000E+00 -0.00000000000E+00 -0.10949106354E+04  0.10949106354E+04  0.00000000000E+00 0. -1.
         23    2    1    2    0    0 -0.70010992626E+03 -0.95258308488E+03 -0.70827734999E+02  0.11877434634E+04  0.90274716587E+02 0.  0.
        254    2    1    2    0    0  0.70010992626E+03  0.95258308488E+03  0.66747388409E+03  0.15987239564E+04  0.84429169152E+03 0.  0.
        -24    2    4    4    0    0  0.37672413871E+03  0.78801528353E+03  0.50402859689E+02  0.87848399856E+03  0.79401030784E+02 0.  0.
         24    2    4    4    0    0  0.32338578755E+03  0.16456780135E+03  0.61707102440E+03  0.72023995784E+03  0.79423037511E+02 0.  0.
         11    1    3    3    0    0 -0.55624728084E+03 -0.81164345231E+03 -0.68376194294E+02  0.98633231473E+03  0.00000000000E+00 0. -1.
        -11    1    3    3    0    0 -0.14386264542E+03 -0.14093963257E+03 -0.24515407045E+01  0.20141114871E+03  0.00000000000E+00 0.  1.
          2    1    6    6  502    0  0.11092478088E+03  0.69415524728E+02  0.29619450827E+03  0.32381168728E+03  0.00000000000E+00 0. -1.
          1    1    5    5  503    0  0.32529223566E+03  0.60626330477E+03  0.45733666996E+02  0.68953738230E+03  0.00000000000E+00 0. -1.
         -2    1    5    5    0  503  0.51431903055E+02  0.18175197876E+03  0.46691926928E+01  0.18894661626E+03  0.00000000000E+00 0.  1.
         -1    1    6    6    0  502  0.21246100666E+03  0.95152276623E+02  0.32087651613E+03  0.39642827056E+03  0.00000000000E+00 0.  1.
<mgrwt>
<rscale>  0 0.27218402E+04</rscale>
<asrwt>0</asrwt>
<pdfrwt beam="1">  1        2 0.16844779E+00 0.27218402E+04</pdfrwt>
<pdfrwt beam="2">  1       -2 0.26023950E+00 0.27218402E+04</pdfrwt>
<totfact> 0.10685490E+00</totfact>
</mgrwt>
</event>
<event>
12    1  0.1397649E-007  0.2740986E+04  0.7818608E-02  0.8321828E-01
          2   -1    0    0  501    0  0.00000000000E+00  0.00000000000E+00  0.12843541312E+04  0.12843541312E+04  0.00000000000E+00 0. -1.
         -2   -1    0    0    0  501 -0.00000000000E+00 -0.00000000000E+00 -0.14624088370E+04  0.14624088370E+04  0.00000000000E+00 0.  1.
         23    2    1    2    0    0  0.74622520339E+03 -0.89151747852E+03  0.29630789953E+03  0.12031765778E+04  0.90443559169E+02 0.  0.
        254    2    1    2    0    0 -0.74622520339E+03  0.89151747852E+03 -0.47436260531E+03  0.15435863904E+04  0.89776589076E+03 0.  0.
        -24    2    4    4    0    0 -0.71732273200E+02  0.71128012475E+03 -0.43320978374E+03  0.83963197258E+03  0.79032890398E+02 0.  0.
         24    2    4    4    0    0 -0.67449293019E+03  0.18023735377E+03 -0.41152821563E+02  0.70395441782E+03  0.80200068999E+02 0.  0.
         13    1    3    3    0    0  0.31934614657E+03 -0.38041008062E+03  0.17287558978E+03  0.52590850945E+03  0.00000000000E+00 0.  1.
        -13    1    3    3    0    0  0.42687905682E+03 -0.51110739790E+03  0.12343230975E+03  0.67726806837E+03  0.00000000000E+00 0. -1.
          2    1    6    6  502    0 -0.64644983119E+03  0.18585278388E+03 -0.48636552777E+02  0.67439169315E+03  0.00000000000E+00 0. -1.
          3    1    5    5  503    0 -0.24657876144E+02  0.35213390042E+03 -0.25821376275E+03  0.43735642439E+03  0.00000000000E+00 0. -1.
         -4    1    5    5    0  503 -0.47074397056E+02  0.35914622433E+03 -0.17499602099E+03  0.40227554819E+03  0.00000000000E+00 0.  1.
         -1    1    6    6    0  502 -0.28043098997E+02 -0.56154301081E+01  0.74837312140E+01  0.29562724663E+02  0.00000000000E+00 0.  1.
<mgrwt>
<rscale>  0 0.27409858E+04</rscale>
<asrwt>0</asrwt>
<pdfrwt beam="1">  1        2 0.19759294E+00 0.27409858E+04</pdfrwt>
<pdfrwt beam="2">  1       -2 0.22498597E+00 0.27409858E+04</pdfrwt>
<totfact> 0.13570077E+00</totfact>
</mgrwt>
</event>
<event>
12    1  0.2192500E-007  0.2530158E+04  0.7818608E-02  0.8392320E-01
         -1   -1    0    0    0  501 -0.00000000000E+00  0.00000000000E+00  0.97612179840E+03  0.97612179840E+03  0.00000000000E+00 0.  1.
          1   -1    0    0  501    0  0.00000000000E+00 -0.00000000000E+00 -0.16395744162E+04  0.16395744162E+04  0.00000000000E+00 0. -1.
         23    2    1    2    0    0 -0.67475133842E+03  0.65255560103E+03 -0.88727231888E+03  0.12948888568E+04  0.91470227756E+02 0.  0.
        254    2    1    2    0    0  0.67475133842E+03 -0.65255560103E+03  0.22381970110E+03  0.13208073577E+04  0.90184180237E+03 0.  0.
        -24    2    4    4    0    0 -0.21218190323E+03 -0.18738670145E+03  0.19434141444E+02  0.29534735905E+03  0.81959994522E+02 0.  0.
         24    2    4    4    0    0  0.88693324165E+03 -0.46516889959E+03  0.20438555966E+03  0.10254599987E+04  0.82231816403E+02 0.  0.
         11    1    3    3    0    0 -0.60513841979E+03  0.56450150108E+03 -0.81429318282E+03  0.11610029455E+04  0.00000000000E+00 0. -1.
        -11    1    3    3    0    0 -0.69612918623E+02  0.88054099956E+02 -0.72979136053E+02  0.13388591135E+03  0.00000000000E+00 0.  1.
          2    1    6    6  502    0  0.15740029637E+03 -0.71893128722E+02  0.66000550473E+02  0.18520137126E+03  0.00000000000E+00 0. -1.
          3    1    5    5  503    0 -0.27182621098E+02 -0.69281182040E+02 -0.45142110956E+01  0.74559742331E+02  0.00000000000E+00 0. -1.
         -4    1    5    5    0  503 -0.18499928214E+03 -0.11810551941E+03  0.23948352539E+02  0.22078761672E+03  0.00000000000E+00 0.  1.
         -1    1    6    6    0  502  0.72953294528E+03 -0.39327577086E+03  0.13838500918E+03  0.84025862743E+03  0.00000000000E+00 0.  1.
<mgrwt>
<rscale>  0 0.25301576E+04</rscale>
<asrwt>0</asrwt>
<pdfrwt beam="1">  1        1 0.25224221E+00 0.25301576E+04</pdfrwt>
<pdfrwt beam="2">  1       -1 0.15017259E+00 0.25301576E+04</pdfrwt>
<totfact> 0.16155401E+00</totfact>
</mgrwt>
</event>
<event>
12    1  0.1397649E-007  0.2571615E+04  0.7818608E-02  0.8377907E-01
         -2   -1    0    0    0  501 -0.00000000000E+00  0.00000000000E+00  0.77879753131E+03  0.77879753131E+03  0.00000000000E+00 0.  1.
          2   -1    0    0  501    0  0.00000000000E+00 -0.00000000000E+00 -0.21228894996E+04  0.21228894996E+04  0.00000000000E+00 0. -1.
         23    2    1    2    0    0 -0.33089158477E+03  0.60976756577E+03  0.41027877502E+03  0.81142335189E+03  0.93666737056E+02 0.  0.
        254    2    1    2    0    0  0.33089158477E+03 -0.60976756577E+03 -0.17543707433E+04  0.20902636790E+04  0.90004434207E+03 0.  0.
        -24    2    4    4    0    0  0.42760303925E+03 -0.64734228992E+03 -0.17917984521E+04  0.19541162038E+04  0.78307379798E+02 0.  0.
         24    2    4    4    0    0 -0.96711454476E+02  0.37574724155E+02  0.37427708802E+02  0.13614747515E+03  0.79814386429E+02 0.  0.
         13    1    3    3    0    0 -0.23290354319E+03  0.46238241589E+03  0.26052099619E+03  0.57957980331E+03  0.00000000000E+00 0. -1.
        -13    1    3    3    0    0 -0.97988041579E+02  0.14738514988E+03  0.14975777883E+03  0.23184354858E+03  0.00000000000E+00 0.  1.
          2    1    6    6  502    0 -0.75780324604E+01  0.10543765141E+02 -0.22082711435E+02  0.25617254023E+02  0.00000000000E+00 0. -1.
          1    1    5    5  503    0  0.22289260937E+03 -0.32005935050E+03 -0.80532545728E+03  0.89480064556E+03  0.00000000000E+00 0. -1.
         -2    1    5    5    0  503  0.20471042988E+03 -0.32728293943E+03 -0.98647299480E+03  0.10593155583E+04  0.00000000000E+00 0.  1.
         -1    1    6    6    0  502 -0.89133422016E+02  0.27030959014E+02  0.59510420237E+02  0.11053022113E+03  0.00000000000E+00 0.  1.
<mgrwt>
<rscale>  0 0.25716151E+04</rscale>
<asrwt>0</asrwt>
<pdfrwt beam="1">  1        2 0.32659838E+00 0.25716151E+04</pdfrwt>
<pdfrwt beam="2">  1       -2 0.11981501E+00 0.25716151E+04</pdfrwt>
<totfact> 0.26961713E+00</totfact>
</mgrwt>
</event>
<event>
12    1  0.1397649E-007  0.1761074E+04  0.7818608E-02  0.8727278E-01
         -1   -1    0    0    0  501 -0.00000000000E+00  0.00000000000E+00  0.77563134097E+03  0.77563134097E+03  0.00000000000E+00 0.  1.
          1   -1    0    0  501    0  0.00000000000E+00 -0.00000000000E+00 -0.99963166001E+03  0.99963166001E+03  0.00000000000E+00 0. -1.
         23    2    1    2    0    0 -0.49506204414E+03 -0.35942890528E+03  0.83722859956E+02  0.62482634623E+03  0.95513769510E+02 0.  0.
        254    2    1    2    0    0  0.49506204414E+03  0.35942890528E+03 -0.30772317900E+03  0.11504366547E+04  0.92441082652E+03 0.  0.
        -24    2    4    4    0    0  0.38313836175E+03  0.74077063057E+01  0.25807804100E+03  0.46985291691E+03  0.85484559557E+02 0.  0.
         24    2    4    4    0    0  0.11192368239E+03  0.35202119897E+03 -0.56580122000E+03  0.68058373784E+03  0.81347209249E+02 0.  0.
         13    1    3    3    0    0 -0.60856619590E+02 -0.87706670136E+02  0.20777360558E+02  0.10875516928E+03  0.00000000000E+00 0. -1.
        -13    1    3    3    0    0 -0.43420542455E+03 -0.27172223514E+03  0.62945499398E+02  0.51607117695E+03  0.00000000000E+00 0.  1.
          4    1    6    6  502    0  0.75691131207E+02  0.27985954009E+03 -0.49267213123E+03  0.57164354139E+03  0.00000000000E+00 0. -1.
          3    1    5    5  503    0  0.38781953335E+03  0.66587069091E+01  0.25456079608E+03  0.46394991941E+03  0.00000000000E+00 0. -1.
         -4    1    5    5    0  503 -0.46811715951E+01  0.74899939665E+00  0.35172449182E+01  0.59029974940E+01  0.00000000000E+00 0.  1.
         -3    1    6    6    0  502  0.36232551184E+02  0.72161658878E+02 -0.73129088764E+02  0.10894019644E+03  0.00000000000E+00 0.  1.
<mgrwt>
<rscale>  0 0.17610743E+04</rscale>
<asrwt>0</asrwt>
<pdfrwt beam="1">  1        1 0.15378949E+00 0.17610743E+04</pdfrwt>
<pdfrwt beam="2">  1       -1 0.11932790E+00 0.17610743E+04</pdfrwt>
<totfact> 0.89989170E+00</totfact>
</mgrwt>
</event>
<event>
12    1  0.1397649E-007  0.2081807E+04  0.7818608E-02  0.8569300E-01
          2   -1    0    0  501    0  0.00000000000E+00  0.00000000000E+00  0.14056621546E+04  0.14056621546E+04  0.00000000000E+00 0. -1.
         -2   -1    0    0    0  501 -0.00000000000E+00 -0.00000000000E+00 -0.77079667799E+03  0.77079667799E+03  0.00000000000E+00 0.  1.
         23    2    1    2    0    0 -0.79941084112E+03 -0.27421947231E+03  0.25384543988E+03  0.88720843100E+03  0.91909089867E+02 0.  0.
        254    2    1    2    0    0  0.79941084112E+03  0.27421947231E+03  0.38102003669E+03  0.12892504016E+04  0.89595553331E+03 0.  0.
        -24    2    4    4    0    0  0.99377009515E+02  0.44313529370E+03 -0.20886296407E+02  0.46068389276E+03  0.74489818970E+02 0.  0.
         24    2    4    4    0    0  0.70003383160E+03 -0.16891582138E+03  0.40190633310E+03  0.82856650880E+03  0.80086445952E+02 0.  0.
         11    1    3    3    0    0 -0.16294109120E+03 -0.37218725838E+02  0.17300803234E+02  0.16803080237E+03  0.00000000000E+00 0. -1.
        -11    1    3    3    0    0 -0.63646974992E+03 -0.23700074647E+03  0.23654463665E+03  0.71917762862E+03  0.00000000000E+00 0.  1.
          2    1    6    6  502    0  0.24838169669E+03 -0.49474447933E+02  0.99787680286E+02  0.27221089138E+03  0.00000000000E+00 0. -1.
          3    1    5    5  503    0  0.44277039352E+02  0.25195069870E+03  0.23299017872E+02  0.25687050244E+03  0.00000000000E+00 0. -1.
         -4    1    5    5    0  503  0.55099970163E+02  0.19118459500E+03 -0.44185314279E+02  0.20381339032E+03  0.00000000000E+00 0.  1.
         -1    1    6    6    0  502  0.45165213491E+03 -0.11944137345E+03  0.30211865281E+03  0.55635561743E+03  0.00000000000E+00 0.  1.
<mgrwt>
<rscale>  0 0.20818066E+04</rscale>
<asrwt>0</asrwt>
<pdfrwt beam="1">  1        2 0.21625572E+00 0.20818066E+04</pdfrwt>
<pdfrwt beam="2">  1       -2 0.11858410E+00 0.20818066E+04</pdfrwt>
<totfact> 0.72507902E+00</totfact>
</mgrwt>
</event>
<event>
12    1  0.1397649E-007  0.2518293E+04  0.7818608E-02  0.8396498E-01
         -1   -1    0    0    0  501 -0.00000000000E+00  0.00000000000E+00  0.48092729078E+03  0.48092729078E+03  0.00000000000E+00 0.  1.
          1   -1    0    0  501    0  0.00000000000E+00 -0.00000000000E+00 -0.32966508544E+04  0.32966508544E+04  0.00000000000E+00 0. -1.
         23    2    1    2    0    0  0.40016297663E+03  0.16546591620E+01 -0.27760719403E+04  0.28062349525E+04  0.90807737455E+02 0.  0.
        254    2    1    2    0    0 -0.40016297663E+03 -0.16546591620E+01 -0.39651623355E+02  0.97134319270E+03  0.88419579336E+03 0.  0.
        -24    2    4    4    0    0 -0.25901217529E+03  0.26414470887E+03 -0.36182710364E+03  0.52351953710E+03  0.79335481483E+02 0.  0.
         24    2    4    4    0    0 -0.14115080135E+03 -0.26579936803E+03  0.32217548029E+03  0.44782365560E+03  0.78588381139E+02 0.  0.
         11    1    3    3    0    0  0.22533056408E+03 -0.14183602523E+02 -0.12639024141E+04  0.12839097905E+04  0.00000000000E+00 0.  1.
        -11    1    3    3    0    0  0.17483241256E+03  0.15838261685E+02 -0.15121695261E+04  0.15223251620E+04  0.00000000000E+00 0. -1.
          2    1    6    6  502    0 -0.72387301337E+02 -0.10529249307E+03  0.18935497253E+03  0.22843322025E+03  0.00000000000E+00 0. -1.
          1    1    5    5  503    0 -0.13643492725E+03  0.14722137178E+03 -0.24969862752E+03  0.32037170016E+03  0.00000000000E+00 0. -1.
         -2    1    5    5    0  503 -0.12257724804E+03  0.11692333709E+03 -0.11212847613E+03  0.20314783694E+03  0.00000000000E+00 0.  1.
         -1    1    6    6    0  502 -0.68763500009E+02 -0.16050687495E+03  0.13282050776E+03  0.21939043535E+03  0.00000000000E+00 0.  1.
<mgrwt>
<rscale>  0 0.25182926E+04</rscale>
<asrwt>0</asrwt>
<pdfrwt beam="1">  1        1 0.50717707E+00 0.25182926E+04</pdfrwt>
<pdfrwt beam="2">  1       -1 0.73988811E-01 0.25182926E+04</pdfrwt>
<totfact> 0.58632053E-01</totfact>
</mgrwt>
</event>
<event>
12    1  0.1397649E-007  0.1285526E+04  0.7818608E-02  0.9041123E-01
         -1   -1    0    0    0  501 -0.00000000000E+00  0.00000000000E+00  0.39569176458E+03  0.39569176458E+03  0.00000000000E+00 0.  1.
          1   -1    0    0  501    0  0.00000000000E+00 -0.00000000000E+00 -0.10441062741E+04  0.10441062741E+04  0.00000000000E+00 0. -1.
         23    2    1    2    0    0  0.11744268292E+03 -0.10953207131E+03 -0.48719758315E+03  0.52042520847E+03  0.87697515192E+02 0.  0.
        254    2    1    2    0    0 -0.11744268292E+03  0.10953207131E+03 -0.16121692632E+03  0.91937283016E+03  0.89076677368E+03 0.  0.
        -24    2    4    4    0    0 -0.41263390374E+03  0.16311073765E+03  0.15367257546E+03  0.47703486787E+03  0.84113931417E+02 0.  0.
         24    2    4    4    0    0  0.29519122083E+03 -0.53578666342E+02 -0.31488950178E+03  0.44233796229E+03  0.80616029527E+02 0.  0.
         13    1    3    3    0    0 -0.13442523089E+02 -0.93624723677E+01 -0.26743278036E+02  0.31361763917E+02  0.00000000000E+00 0.  1.
        -13    1    3    3    0    0  0.13088520601E+03 -0.10016959894E+03 -0.46045430511E+03  0.48906344456E+03  0.00000000000E+00 0. -1.
          2    1    6    6  502    0  0.19803002685E+03 -0.11003699286E+02 -0.16114134061E+03  0.25554550394E+03  0.00000000000E+00 0. -1.
          3    1    5    5  503    0 -0.27647943332E+03  0.10115402342E+03  0.59749680717E+02  0.30040478999E+03  0.00000000000E+00 0. -1.
         -4    1    5    5    0  503 -0.13615447042E+03  0.61956714231E+02  0.93922894742E+02  0.17663007788E+03  0.00000000000E+00 0.  1.
         -1    1    6    6    0  502  0.97161193981E+02 -0.42574967056E+02 -0.15374816117E+03  0.18679245835E+03  0.00000000000E+00 0.  1.
<mgrwt>
<rscale>  0 0.12855260E+04</rscale>
<asrwt>0</asrwt>
<pdfrwt beam="1">  1        1 0.16063173E+00 0.12855260E+04</pdfrwt>
<pdfrwt beam="2">  1       -1 0.60875657E-01 0.12855260E+04</pdfrwt>
<totfact> 0.37642136E+01</totfact>
</mgrwt>
</event>
<event>
12    1  0.1397649E-007  0.2391581E+04  0.7818608E-02  0.8442662E-01
          2   -1    0    0  501    0  0.00000000000E+00  0.00000000000E+00  0.17497241727E+04  0.17497241727E+04  0.00000000000E+00 0. -1.
         -2   -1    0    0    0  501 -0.00000000000E+00 -0.00000000000E+00 -0.81722285888E+03  0.81722285888E+03  0.00000000000E+00 0.  1.
         23    2    1    2    0    0 -0.36645348186E+03 -0.30667622005E+03  0.13705717726E+04  0.14543140334E+04  0.90685531479E+02 0.  0.
        254    2    1    2    0    0  0.36645348186E+03  0.30667622005E+03 -0.43807045874E+03  0.11126329982E+04  0.90427208494E+03 0.  0.
        -24    2    4    4    0    0  0.64367109898E+03  0.26921659142E+03 -0.42982698964E+03  0.82325495992E+03  0.78787253087E+02 0.  0.
         24    2    4    4    0    0 -0.27721761712E+03  0.37459628628E+02 -0.82434690919E+01  0.28937803829E+03  0.73612928512E+02 0.  0.
         11    1    3    3    0    0 -0.36252011920E+03 -0.31016883827E+03  0.13219776260E+04  0.14054360137E+04  0.00000000000E+00 0. -1.
        -11    1    3    3    0    0 -0.39333626646E+01  0.34926182202E+01  0.48594146598E+02  0.48878019677E+02  0.00000000000E+00 0.  1.
          4    1    6    6  502    0 -0.43725323499E+02  0.31397008976E+02  0.11256729342E+02  0.54994454659E+02  0.00000000000E+00 0. -1.
          3    1    5    5  503    0  0.15922502944E+03  0.98325599063E+02 -0.13727218410E+03  0.23208659151E+03  0.00000000000E+00 0. -1.
         -4    1    5    5    0  503  0.48444606955E+03  0.17089099236E+03 -0.29255480555E+03  0.59116836842E+03  0.00000000000E+00 0.  1.
         -3    1    6    6    0  502 -0.23349229362E+03  0.60626196519E+01 -0.19500198434E+02  0.23438358364E+03  0.00000000000E+00 0.  1.
<mgrwt>
<rscale>  0 0.23915807E+04</rscale>
<asrwt>0</asrwt>
<pdfrwt beam="1">  1        2 0.26918833E+00 0.23915807E+04</pdfrwt>
<pdfrwt beam="2">  1       -2 0.12572659E+00 0.23915807E+04</pdfrwt>
<totfact> 0.39132665E+00</totfact>
</mgrwt>
</event>
<event>
12    1  0.1397649E-007  0.1087151E+04  0.7818608E-02  0.9217807E-01
          1   -1    0    0  501    0  0.00000000000E+00  0.00000000000E+00  0.10789787573E+04  0.10789787573E+04  0.00000000000E+00 0. -1.
         -1   -1    0    0    0  501 -0.00000000000E+00 -0.00000000000E+00 -0.27384612325E+03  0.27384612325E+03  0.00000000000E+00 0.  1.
         23    2    1    2    0    0 -0.83498049820E+02 -0.89523297666E+02  0.13137919672E+03  0.20208095138E+03  0.92681564674E+02 0.  0.
        254    2    1    2    0    0  0.83498049820E+02  0.89523297666E+02  0.67375343736E+03  0.11507439292E+04  0.92481433331E+03 0.  0.
        -24    2    4    4    0    0 -0.30906481517E+03 -0.38620961774E+02 -0.37222675775E+02  0.32466826492E+03  0.83733601315E+02 0.  0.
         24    2    4    4    0    0  0.39256286499E+03  0.12814425944E+03  0.71097611313E+03  0.82607566428E+03  0.79921308043E+02 0.  0.
         11    1    3    3    0    0 -0.57311066217E+02 -0.66375052612E+02  0.14080557770E+03  0.16588073014E+03  0.00000000000E+00 0. -1.
        -11    1    3    3    0    0 -0.26186983603E+02 -0.23148245054E+02 -0.94263809807E+01  0.36200221239E+02  0.00000000000E+00 0.  1.
          2    1    6    6  502    0  0.81366692791E+01  0.14075954204E+02  0.53977673056E+02  0.56373105842E+02  0.00000000000E+00 0. -1.
          3    1    5    5  503    0 -0.13489562052E+03 -0.32624807788E+02 -0.55435771370E+02  0.14944675060E+03  0.00000000000E+00 0. -1.
         -4    1    5    5    0  503 -0.17416919465E+03 -0.59961539858E+01  0.18213095595E+02  0.17522151432E+03  0.00000000000E+00 0.  1.
         -1    1    6    6    0  502  0.38442619571E+03  0.11406830524E+03  0.65699844007E+03  0.76970255844E+03  0.00000000000E+00 0.  1.
<mgrwt>
<rscale>  0 0.10871507E+04</rscale>
<asrwt>0</asrwt>
<pdfrwt beam="1">  1        1 0.16599673E+00 0.10871507E+04</pdfrwt>
<pdfrwt beam="2">  1       -1 0.42130173E-01 0.10871507E+04</pdfrwt>
<totfact> 0.72561502E+01</totfact>
</mgrwt>
</event>
<event>
12    1  0.1397649E-007  0.2060776E+04  0.7818608E-02  0.8578722E-01
          1   -1    0    0  501    0  0.00000000000E+00  0.00000000000E+00  0.13298178518E+04  0.13298178518E+04  0.00000000000E+00 0. -1.
         -1   -1    0    0    0  501 -0.00000000000E+00 -0.00000000000E+00 -0.79837932282E+03  0.79837932282E+03  0.00000000000E+00 0.  1.
         23    2    1    2    0    0 -0.56673435267E+03  0.89907238187E+02  0.82824188684E+03  0.10122127212E+04  0.96534096619E+02 0.  0.
        254    2    1    2    0    0  0.56673435267E+03 -0.89907238187E+02 -0.29680335782E+03  0.11159844535E+04  0.90997688391E+03 0.  0.
        -24    2    4    4    0    0  0.22437023636E+02 -0.66540174445E+02  0.29103920637E+03  0.31045445707E+03  0.82140948541E+02 0.  0.
         24    2    4    4    0    0  0.54429732903E+03 -0.23367063742E+02 -0.58784256419E+03  0.80552999642E+03  0.80709929952E+02 0.  0.
         11    1    3    3    0    0 -0.36645183011E+03  0.15778729961E+02  0.48747022131E+03  0.61005174270E+03  0.00000000000E+00 0. -1.
        -11    1    3    3    0    0 -0.20028252256E+03  0.74128508226E+02  0.34077166553E+03  0.40216097847E+03  0.00000000000E+00 0.  1.
          4    1    6    6  502    0  0.12635264869E+03  0.16061780666E+02 -0.17769334717E+03  0.21862730446E+03  0.00000000000E+00 0. -1.
          1    1    5    5  503    0 -0.29260380654E+02 -0.27370422871E+02  0.76953271418E+02  0.86758952887E+02  0.00000000000E+00 0. -1.
         -2    1    5    5    0  503  0.51697404290E+02 -0.39169751575E+02  0.21408593495E+03  0.22369550419E+03  0.00000000000E+00 0.  1.
         -3    1    6    6    0  502  0.41794468034E+03 -0.39428844408E+02 -0.41014921702E+03  0.58690269195E+03  0.00000000000E+00 0.  1.
<mgrwt>
<rscale>  0 0.20607757E+04</rscale>
<asrwt>0</asrwt>
<pdfrwt beam="1">  1        1 0.20458736E+00 0.20607757E+04</pdfrwt>
<pdfrwt beam="2">  1       -1 0.12282759E+00 0.20607757E+04</pdfrwt>
<totfact> 0.46463052E+00</totfact>
</mgrwt>
</event>
<event>
12    1  0.1397649E-007  0.1172781E+04  0.7818608E-02  0.9137021E-01
         -1   -1    0    0    0  501 -0.00000000000E+00  0.00000000000E+00  0.21600449873E+03  0.21600449873E+03  0.00000000000E+00 0.  1.
          1   -1    0    0  501    0  0.00000000000E+00 -0.00000000000E+00 -0.15918819671E+04  0.15918819671E+04  0.00000000000E+00 0. -1.
         23    2    1    2    0    0  0.37735124273E+02 -0.10777218314E+03 -0.58586816310E+03  0.60388405994E+03  0.91627890163E+02 0.  0.
        254    2    1    2    0    0 -0.37735124273E+02  0.10777218314E+03 -0.79000930528E+03  0.12040024059E+04  0.90137023910E+03 0.  0.
        -24    2    4    4    0    0 -0.34014503151E+03  0.10027315863E+03 -0.98363597961E+01  0.36349419376E+03  0.79233364947E+02 0.  0.
         24    2    4    4    0    0  0.30240990724E+03  0.74990245128E+01 -0.78017294548E+03  0.84050821214E+03  0.79222739420E+02 0.  0.
         13    1    3    3    0    0  0.15768772630E+02 -0.59501972129E+02 -0.49389571468E+03  0.49771690332E+03  0.00000000000E+00 0. -1.
        -13    1    3    3    0    0  0.21966351643E+02 -0.48270211011E+02 -0.91972448419E+02  0.10616715662E+03  0.00000000000E+00 0.  1.
          4    1    6    6  502    0  0.30711443434E+03  0.10177043537E+02 -0.76744761723E+03  0.82667931702E+03  0.00000000000E+00 0. -1.
          1    1    5    5  503    0 -0.29451585030E+03  0.62739060515E+02  0.96548836525E+01  0.30127892819E+03  0.00000000000E+00 0. -1.
         -2    1    5    5    0  503 -0.45629181216E+02  0.37534098113E+02 -0.19491243449E+02  0.62215265577E+02  0.00000000000E+00 0.  1.
         -3    1    6    6    0  502 -0.47045270959E+01 -0.26780190238E+01 -0.12725328250E+02  0.13828895117E+02  0.00000000000E+00 0.  1.
<mgrwt>
<rscale>  0 0.11727807E+04</rscale>
<asrwt>0</asrwt>
<pdfrwt beam="1">  1        1 0.24490492E+00 0.11727807E+04</pdfrwt>
<pdfrwt beam="2">  1       -1 0.33231461E-01 0.11727807E+04</pdfrwt>
<totfact> 0.47720010E+01</totfact>
</mgrwt>
</event>
<event>
12    1  0.1397649E-007  0.2419352E+04  0.7818608E-02  0.8432294E-01
          1   -1    0    0  501    0  0.00000000000E+00  0.00000000000E+00  0.66805899626E+03  0.66805899626E+03  0.00000000000E+00 0. -1.
         -1   -1    0    0    0  501 -0.00000000000E+00 -0.00000000000E+00 -0.21903994238E+04  0.21903994238E+04  0.00000000000E+00 0.  1.
         23    2    1    2    0    0  0.74428961299E+03 -0.42381735721E+03 -0.13553064077E+04  0.16058819222E+04  0.91723000990E+02 0.  0.
        254    2    1    2    0    0 -0.74428961299E+03  0.42381735721E+03 -0.16703401981E+03  0.12525764979E+04  0.89858741310E+03 0.  0.
        -24    2    4    4    0    0 -0.81092363863E+03  0.43096326893E+03  0.13717361742E+03  0.93196963360E+03  0.80151792016E+02 0.  0.
         24    2    4    4    0    0  0.66634025648E+02 -0.71459117281E+01 -0.30420763723E+03  0.32060686428E+03  0.75863808539E+02 0.  0.
         11    1    3    3    0    0  0.58902501392E+03 -0.36648038971E+03 -0.11369819546E+04  0.13319107733E+04  0.00000000000E+00 0.  1.
        -11    1    3    3    0    0  0.15526459907E+03 -0.57336967501E+02 -0.21832445313E+03  0.27397114885E+03  0.00000000000E+00 0. -1.
          2    1    6    6  502    0  0.75017763178E+02 -0.26712250278E+02 -0.22932573403E+03  0.24275811294E+03  0.00000000000E+00 0. -1.
          1    1    5    5  503    0 -0.22667639016E+03  0.10817395778E+03  0.32772753541E+01  0.25118624869E+03  0.00000000000E+00 0. -1.
         -4    1    5    5    0  503 -0.58424724848E+03  0.32278931115E+03  0.13389634206E+03  0.68078338491E+03  0.00000000000E+00 0.  1.
         -1    1    6    6    0  502 -0.83837375298E+01  0.19566338550E+02 -0.74881903198E+02  0.77848751343E+02  0.00000000000E+00 0.  1.
<mgrwt>
<rscale>  0 0.24193520E+04</rscale>
<asrwt>0</asrwt>
<pdfrwt beam="1">  1        1 0.10277831E+00 0.24193520E+04</pdfrwt>
<pdfrwt beam="2">  1       -1 0.33698452E+00 0.24193520E+04</pdfrwt>
<totfact> 0.49558985E-01</totfact>
</mgrwt>
</event>
<event>
12    1  0.1587860E-007  0.1377675E+04  0.7818608E-02  0.8970139E-01
          1   -1    0    0  501    0  0.00000000000E+00  0.00000000000E+00  0.96411632134E+03  0.96411632134E+03  0.00000000000E+00 0.  1.
         -1   -1    0    0    0  501 -0.00000000000E+00 -0.00000000000E+00 -0.49215770370E+03  0.49215770370E+03  0.00000000000E+00 0. -1.
         23    2    1    2    0    0  0.44759952336E+02  0.23935574399E+02  0.55585555588E+03  0.56558556473E+03  0.91297683295E+02 0.  0.
        254    2    1    2    0    0 -0.44759952336E+02 -0.23935574399E+02 -0.83896938237E+02  0.89068846031E+03  0.88527446141E+03 0.  0.
        -24    2    4    4    0    0  0.28616893624E+03 -0.31085861978E+03  0.30394529672E+02  0.43123074807E+03  0.80686982154E+02 0.  0.
         24    2    4    4    0    0 -0.33092888858E+03  0.28692304538E+03 -0.11429146791E+03  0.45945771223E+03  0.78740627569E+02 0.  0.
         11    1    3    3    0    0 -0.19480580394E+02 -0.18976090956E+02  0.14150051588E+03  0.14409018369E+03  0.00000000000E+00 0. -1.
        -11    1    3    3    0    0  0.64240532730E+02  0.42911665355E+02  0.41435504000E+03  0.42149538104E+03  0.00000000000E+00 0.  1.
          2    1    6    6  502    0 -0.30392670670E+03  0.26546164734E+03 -0.12645200029E+03  0.42288466233E+03  0.00000000000E+00 0. -1.
          3    1    5    5  503    0  0.25075558593E+03 -0.29097238756E+03  0.47736227817E+02  0.38706852319E+03  0.00000000000E+00 0. -1.
         -4    1    5    5    0  503  0.35413350313E+02 -0.19886232219E+02 -0.17341698145E+02  0.44162224885E+02  0.00000000000E+00 0.  1.
         -1    1    6    6    0  502 -0.27002181877E+02  0.21461398038E+02  0.12160532376E+02  0.36573049908E+02  0.00000000000E+00 0.  1.
<mgrwt>
<rscale>  0 0.13776753E+04</rscale>
<asrwt>0</asrwt>
<pdfrwt beam="1">  1        1 0.14832559E+00 0.13776753E+04</pdfrwt>
<pdfrwt beam="2">  1       -1 0.75716570E-01 0.13776753E+04</pdfrwt>
<totfact> 0.27653571E+01</totfact>
</mgrwt>
</event>
<event>
12    1  0.1397649E-007  0.1468069E+04  0.7818608E-02  0.8905969E-01
         -2   -1    0    0    0  501 -0.00000000000E+00  0.00000000000E+00  0.49408970695E+03  0.49408970695E+03  0.00000000000E+00 0.  1.
          2   -1    0    0  501    0  0.00000000000E+00 -0.00000000000E+00 -0.10905040606E+04  0.10905040606E+04  0.00000000000E+00 0. -1.
         23    2    1    2    0    0  0.12237630575E+03 -0.40581552373E+03 -0.32331245265E+03  0.54083625819E+03  0.91163131926E+02 0.  0.
        254    2    1    2    0    0 -0.12237630575E+03  0.40581552373E+03 -0.27310190098E+03  0.10437575093E+04  0.91388341187E+03 0.  0.
        -24    2    4    4    0    0  0.39020885910E+03  0.19009667320E+03 -0.73540299854E+02  0.44739493009E+03  0.79714169928E+02 0.  0.
         24    2    4    4    0    0 -0.51258516485E+03  0.21571885053E+03 -0.19956160112E+03  0.59636257926E+03  0.80903149495E+02 0.  0.
         13    1    3    3    0    0  0.10205782789E+03 -0.38810077468E+03 -0.27824406921E+03  0.48832138351E+03  0.00000000000E+00 0.  1.
        -13    1    3    3    0    0  0.20318477866E+02 -0.17714749050E+02 -0.45068383445E+02  0.52514874683E+02  0.00000000000E+00 0. -1.
          4    1    6    6  502    0 -0.44113957885E+03  0.21367259868E+03 -0.16712076791E+03  0.51787011742E+03  0.00000000000E+00 0. -1.
          1    1    5    5  503    0  0.35694130670E+03  0.14501132472E+03 -0.63436885061E+02  0.39046077795E+03  0.00000000000E+00 0. -1.
         -2    1    5    5    0  503  0.33267552391E+02  0.45085348476E+02 -0.10103414793E+02  0.56934152139E+02  0.00000000000E+00 0.  1.
         -3    1    6    6    0  502 -0.71445586001E+02  0.20462518567E+01 -0.32440833209E+02  0.78492461836E+02  0.00000000000E+00 0.  1.
<mgrwt>
<rscale>  0 0.14680693E+04</rscale>
<asrwt>0</asrwt>
<pdfrwt beam="1">  1        2 0.16776986E+00 0.14680693E+04</pdfrwt>
<pdfrwt beam="2">  1       -2 0.76013800E-01 0.14680693E+04</pdfrwt>
<totfact> 0.33153332E+01</totfact>
</mgrwt>
</event>
<event>
12    1  0.1397649E-007  0.1210902E+04  0.7818608E-02  0.9103367E-01
         -1   -1    0    0    0  501 -0.00000000000E+00  0.00000000000E+00  0.40071106646E+03  0.40071106646E+03  0.00000000000E+00 0.  1.
          1   -1    0    0  501    0  0.00000000000E+00 -0.00000000000E+00 -0.91480182213E+03  0.91480182213E+03  0.00000000000E+00 0. -1.
         23    2    1    2    0    0 -0.13862739627E+03 -0.10074938440E+03 -0.32711927668E+03  0.38065762896E+03  0.92332095495E+02 0.  0.
        254    2    1    2    0    0  0.13862739627E+03  0.10074938440E+03 -0.18697147899E+03  0.93485525963E+03  0.89979332574E+03 0.  0.
        -24    2    4    4    0    0 -0.35287148063E+03  0.87144485772E+02  0.63433921470E+02  0.37724624765E+03  0.78602962617E+02 0.  0.
         24    2    4    4    0    0  0.49149887690E+03  0.13604898632E+02 -0.25040540046E+03  0.55760901197E+03  0.80428268626E+02 0.  0.
         11    1    3    3    0    0 -0.13863543216E+03 -0.11144963991E+03 -0.32382161954E+03  0.36946075105E+03  0.00000000000E+00 0. -1.
        -11    1    3    3    0    0  0.80358832130E-02  0.10700255505E+02 -0.32976571408E+01  0.11196877916E+02  0.00000000000E+00 0.  1.
          4    1    6    6  502    0  0.48891417292E+03  0.11470069096E+02 -0.25530012954E+03  0.55167634271E+03  0.00000000000E+00 0. -1.
          3    1    5    5  503    0 -0.29358075547E+03  0.41847703163E+02  0.59976493799E+02  0.30255259055E+03  0.00000000000E+00 0. -1.
         -4    1    5    5    0  503 -0.59290725161E+02  0.45296782608E+02  0.34574276706E+01  0.74693657099E+02  0.00000000000E+00 0.  1.
         -3    1    6    6    0  502  0.25847039823E+01  0.21348295353E+01  0.48947290790E+01  0.59326692625E+01  0.00000000000E+00 0.  1.
<mgrwt>
<rscale>  0 0.12109025E+04</rscale>
<asrwt>0</asrwt>
<pdfrwt beam="1">  1        1 0.14073874E+00 0.12109025E+04</pdfrwt>
<pdfrwt beam="2">  1       -1 0.61647856E-01 0.12109025E+04</pdfrwt>
<totfact> 0.46709051E+01</totfact>
</mgrwt>
</event>
<event>
12    1  0.1397649E-007  0.1896920E+04  0.7818608E-02  0.8656391E-01
          1   -1    0    0  501    0  0.00000000000E+00  0.00000000000E+00  0.27429886655E+04  0.27429886655E+04  0.00000000000E+00 0. -1.
         -1   -1    0    0    0  501 -0.00000000000E+00 -0.00000000000E+00 -0.32795482864E+03  0.32795482864E+03  0.00000000000E+00 0.  1.
         23    2    1    2    0    0  0.39799093968E+02 -0.74438071567E+03  0.11047548000E+04  0.13359333477E+04  0.92456064137E+02 0.  0.
        254    2    1    2    0    0 -0.39799093968E+02  0.74438071567E+03  0.13102790369E+04  0.17350101464E+04  0.85891934191E+03 0.  0.
        -24    2    4    4    0    0  0.28364341313E+03  0.68160373816E+03  0.11286726298E+04  0.13511839429E+04  0.82212533370E+02 0.  0.
         24    2    4    4    0    0 -0.32344250709E+03  0.62776977503E+02  0.18160640713E+03  0.38382620353E+03  0.76063546492E+02 0.  0.
         13    1    3    3    0    0  0.37755564969E+02 -0.67645425402E+03  0.94926582525E+03  0.11662424480E+04  0.00000000000E+00 0. -1.
        -13    1    3    3    0    0  0.20435289991E+01 -0.67926461646E+02  0.15548897471E+03  0.16969089975E+03  0.00000000000E+00 0.  1.
          4    1    6    6  502    0 -0.40850000095E+02  0.21881817029E+02  0.53756553372E+02  0.70973963217E+02  0.00000000000E+00 0. -1.
          3    1    5    5  503    0  0.91337641902E+02  0.26413853834E+03  0.49364180510E+03  0.56726886395E+03  0.00000000000E+00 0. -1.
         -4    1    5    5    0  503  0.19230577122E+03  0.41746519982E+03  0.63503082471E+03  0.78391507897E+03  0.00000000000E+00 0.  1.
         -3    1    6    6    0  502 -0.28259250700E+03  0.40895160474E+02  0.12784985375E+03  0.31285224031E+03  0.00000000000E+00 0.  1.
<mgrwt>
<rscale>  0 0.18969200E+04</rscale>
<asrwt>0</asrwt>
<pdfrwt beam="1">  1        1 0.42199824E+00 0.18969200E+04</pdfrwt>
<pdfrwt beam="2">  1       -1 0.50454591E-01 0.18969200E+04</pdfrwt>
<totfact> 0.33831364E+00</totfact>
</mgrwt>
</event>
<event>
12    1  0.1397649E-007  0.3425833E+04  0.7818608E-02  0.8131595E-01
         -2   -1    0    0    0  501 -0.00000000000E+00  0.00000000000E+00  0.11351180183E+04  0.11351180183E+04  0.00000000000E+00 0.  1.
          2   -1    0    0  501    0  0.00000000000E+00 -0.00000000000E+00 -0.25848255917E+04  0.25848255917E+04  0.00000000000E+00 0. -1.
         23    2    1    2    0    0 -0.59395592968E+03 -0.22223166378E+03  0.91069346900E+03  0.11135196572E+04  0.91612628281E+02 0.  0.
        254    2    1    2    0    0  0.59395592968E+03  0.22223166378E+03 -0.23604010424E+04  0.26064239528E+04  0.90541823599E+03 0.  0.
        -24    2    4    4    0    0  0.78923023573E+03  0.30048584771E+01 -0.15576204999E+04  0.17478707141E+04  0.77311173341E+02 0.  0.
         24    2    4    4    0    0 -0.19527430605E+03  0.21922680530E+03 -0.80278054250E+03  0.85855323867E+03  0.80402844704E+02 0.  0.
         13    1    3    3    0    0 -0.54403522480E+03 -0.19382937945E+03  0.86521175735E+03  0.10402574389E+04  0.00000000000E+00 0.  1.
        -13    1    3    3    0    0 -0.49920704877E+02 -0.28402284322E+02  0.45481711648E+02  0.73262218261E+02  0.00000000000E+00 0. -1.
          2    1    6    6  502    0 -0.73291431484E+01  0.27455473532E+02 -0.34470356145E+02  0.44673536002E+02  0.00000000000E+00 0. -1.
          3    1    5    5  503    0  0.25753216557E+03  0.21532392954E+02 -0.57687100825E+03  0.63211282254E+03  0.00000000000E+00 0. -1.
         -4    1    5    5    0  503  0.53169807016E+03 -0.18527534477E+02 -0.98074949163E+03  0.11157578916E+04  0.00000000000E+00 0.  1.
         -1    1    6    6    0  502 -0.18794516290E+03  0.19177133177E+03 -0.76831018636E+03  0.81387970267E+03  0.00000000000E+00 0.  1.
<mgrwt>
<rscale>  0 0.34258325E+04</rscale>
<asrwt>0</asrwt>
<pdfrwt beam="1">  1        2 0.39766547E+00 0.34258325E+04</pdfrwt>
<pdfrwt beam="2">  1       -2 0.17463354E+00 0.34258325E+04</pdfrwt>
<totfact> 0.50744762E-01</totfact>
</mgrwt>
</event>
<event>
12    1  0.1397649E-007  0.1665084E+04  0.7818608E-02  0.8781532E-01
         -1   -1    0    0    0  501 -0.00000000000E+00  0.00000000000E+00  0.12104862263E+04  0.12104862263E+04  0.00000000000E+00 0.  1.
          1   -1    0    0  501    0  0.00000000000E+00 -0.00000000000E+00 -0.57260173423E+03  0.57260173423E+03  0.00000000000E+00 0. -1.
         23    2    1    2    0    0  0.45112493162E+03 -0.39679979313E+03  0.14610030160E+03  0.62518353352E+03  0.92441185121E+02 0.  0.
        254    2    1    2    0    0 -0.45112493162E+03  0.39679979313E+03  0.49178419046E+03  0.11579044270E+04  0.85902688684E+03 0.  0.
        -24    2    4    4    0    0 -0.70126735090E+03  0.31767421181E+03  0.35691654546E+03  0.85234801098E+03  0.80093127710E+02 0.  0.
         24    2    4    4    0    0  0.25014241928E+03  0.79125581314E+02  0.13486764500E+03  0.30555641601E+03  0.79645176620E+02 0.  0.
         11    1    3    3    0    0  0.10263030728E+03 -0.11220556048E+03  0.75389093678E+02  0.16972502238E+03  0.00000000000E+00 0. -1.
        -11    1    3    3    0    0  0.34849462434E+03 -0.28459423264E+03  0.70711207919E+02  0.45545851114E+03  0.00000000000E+00 0.  1.
          2    1    6    6  502    0  0.45157239689E+01  0.14007750993E+02 -0.49388916197E+01  0.15524223049E+02  0.00000000000E+00 0. -1.
          3    1    5    5  503    0 -0.18397245738E+03  0.53848535239E+02  0.64976956186E+02  0.20240438399E+03  0.00000000000E+00 0. -1.
         -4    1    5    5    0  503 -0.51729489352E+03  0.26382567657E+03  0.29193958927E+03  0.64994362699E+03  0.00000000000E+00 0.  1.
         -1    1    6    6    0  502  0.24562669531E+03  0.65117830320E+02  0.13980653662E+03  0.29003219297E+03  0.00000000000E+00 0.  1.
<mgrwt>
<rscale>  0 0.16650844E+04</rscale>
<asrwt>0</asrwt>
<pdfrwt beam="1">  1        1 0.88092575E-01 0.16650844E+04</pdfrwt>
<pdfrwt beam="2">  1       -1 0.18622865E+00 0.16650844E+04</pdfrwt>
<totfact> 0.65667288E+00</totfact>
</mgrwt>
</event>
<event>
12    1  0.1397649E-007  0.5450549E+04  0.7818608E-02  0.7762531E-01
          1   -1    0    0  501    0  0.00000000000E+00  0.00000000000E+00  0.29740448732E+04  0.29740448732E+04  0.00000000000E+00 0. -1.
         -1   -1    0    0    0  501 -0.00000000000E+00 -0.00000000000E+00 -0.24973128938E+04  0.24973128938E+04  0.00000000000E+00 0.  1.
         23    2    1    2    0    0  0.64763649460E+02 -0.20597242898E+04  0.19046311530E+04  0.28076000932E+04  0.91323461125E+02 0.  0.
        254    2    1    2    0    0 -0.64763649460E+02  0.20597242898E+04 -0.14278991735E+04  0.26637576738E+04  0.90002800771E+03 0.  0.
        -24    2    4    4    0    0 -0.39975736781E+03  0.14797945390E+04 -0.12117665228E+04  0.19556286429E+04  0.80668782370E+02 0.  0.
         24    2    4    4    0    0  0.33499371835E+03  0.57992975073E+03 -0.21613265077E+03  0.70812903085E+03  0.78702569791E+02 0.  0.
         13    1    3    3    0    0 -0.21012505204E+02 -0.23508896903E+03  0.20973800205E+03  0.31575049998E+03  0.00000000000E+00 0.  1.
        -13    1    3    3    0    0  0.85776154664E+02 -0.18246353207E+04  0.16948931509E+04  0.24918495932E+04  0.00000000000E+00 0. -1.
          4    1    6    6  502    0  0.31905720370E+02  0.20104314701E+02 -0.13407732628E+02  0.40024064713E+02  0.00000000000E+00 0. -1.
          3    1    5    5  503    0 -0.22521072202E+03  0.94964603785E+03 -0.73974506603E+03  0.12246510643E+04  0.00000000000E+00 0. -1.
         -4    1    5    5    0  503 -0.17454664579E+03  0.53014850118E+03 -0.47202145674E+03  0.73097757864E+03  0.00000000000E+00 0.  1.
         -3    1    6    6    0  502  0.30308799798E+03  0.55982543602E+03 -0.20272491814E+03  0.66810496613E+03  0.00000000000E+00 0.  1.
<mgrwt>
<rscale>  0 0.54505488E+04</rscale>
<asrwt>0</asrwt>
<pdfrwt beam="1">  1        1 0.45754536E+00 0.54505488E+04</pdfrwt>
<pdfrwt beam="2">  1       -1 0.38420198E+00 0.54505488E+04</pdfrwt>
<totfact> 0.39883807E-03</totfact>
</mgrwt>
</event>
<event>
12    1  0.1397649E-007  0.1740834E+04  0.7818608E-02  0.8738412E-01
          2   -1    0    0  501    0  0.00000000000E+00  0.00000000000E+00  0.11402909600E+04  0.11402909600E+04  0.00000000000E+00 0. -1.
         -2   -1    0    0    0  501 -0.00000000000E+00 -0.00000000000E+00 -0.66441446163E+03  0.66441446163E+03  0.00000000000E+00 0.  1.
         23    2    1    2    0    0  0.21032215415E+03  0.46892411602E+03  0.56271123259E+03  0.76739428205E+03  0.90137770789E+02 0.  0.
        254    2    1    2    0    0 -0.21032215415E+03 -0.46892411602E+03 -0.86834734239E+02  0.10373111396E+04  0.89685500172E+03 0.  0.
        -24    2    4    4    0    0 -0.34350940185E+03 -0.24208791013E+03 -0.42391545031E+03  0.60224486356E+03  0.79933105039E+02 0.  0.
         24    2    4    4    0    0  0.13318724770E+03 -0.22683620588E+03  0.33708071607E+03  0.43506627601E+03  0.80409875816E+02 0.  0.
         11    1    3    3    0    0 -0.77074558376E+00  0.72089713674E+02  0.70671450292E+02  0.10095531067E+03  0.00000000000E+00 0.  1.
        -11    1    3    3    0    0  0.21109289973E+03  0.39683440234E+03  0.49203978230E+03  0.66643897137E+03  0.00000000000E+00 0. -1.
          2    1    6    6  502    0  0.91283973647E+02 -0.76955620334E+02  0.15003100641E+03  0.19174001729E+03  0.00000000000E+00 0. -1.
          3    1    5    5  503    0 -0.96463855364E+01 -0.21345217188E+02 -0.73234703405E+01  0.24541888039E+02  0.00000000000E+00 0. -1.
         -4    1    5    5    0  503 -0.33386301632E+03 -0.22074269295E+03 -0.41659197997E+03  0.57770297552E+03  0.00000000000E+00 0.  1.
         -1    1    6    6    0  502  0.41903274055E+02 -0.14988058555E+03  0.18704970966E+03  0.24332625872E+03  0.00000000000E+00 0.  1.
<mgrwt>
<rscale>  0 0.17408341E+04</rscale>
<asrwt>0</asrwt>
<pdfrwt beam="1">  1        2 0.17542938E+00 0.17408341E+04</pdfrwt>
<pdfrwt beam="2">  1       -2 0.10221761E+00 0.17408341E+04</pdfrwt>
<totfact> 0.15305824E+01</totfact>
</mgrwt>
</event>
<event>
12    1  0.1397649E-007  0.1024374E+04  0.7818608E-02  0.9282209E-01
         -2   -1    0    0    0  501 -0.00000000000E+00  0.00000000000E+00  0.41872551897E+03  0.41872551897E+03  0.00000000000E+00 0. -1.
          2   -1    0    0  501    0  0.00000000000E+00 -0.00000000000E+00 -0.62650898329E+03  0.62650898329E+03  0.00000000000E+00 0.  1.
         23    2    1    2    0    0  0.22619065960E+02 -0.67159178080E+02 -0.83728913601E+02  0.14570859455E+03  0.95908738953E+02 0.  0.
        254    2    1    2    0    0 -0.22619065960E+02  0.67159178080E+02 -0.12405455073E+03  0.89952590771E+03  0.88810773544E+03 0.  0.
        -24    2    4    4    0    0  0.23407271174E+03  0.11113848689E+03 -0.41825818821E+03  0.49847435530E+03  0.79968576601E+02 0.  0.
         24    2    4    4    0    0 -0.25669177770E+03 -0.43979308813E+02  0.29420363748E+03  0.40105155241E+03  0.80384818473E+02 0.  0.
         11    1    3    3    0    0 -0.18177949641E+00 -0.83807891410E+02 -0.82268037496E+02  0.11743860396E+03  0.00000000000E+00 0. -1.
        -11    1    3    3    0    0  0.22800845456E+02  0.16648713330E+02 -0.14608761059E+01  0.28269990592E+02  0.00000000000E+00 0.  1.
          2    1    6    6  502    0 -0.14082729828E+03 -0.26420873803E+01  0.20653292641E+03  0.24999031633E+03  0.00000000000E+00 0. -1.
          1    1    5    5  503    0  0.22900056187E+03  0.11965419981E+03 -0.41323634136E+03  0.48736296401E+03  0.00000000000E+00 0. -1.
         -2    1    5    5    0  503  0.50721498652E+01 -0.85157129132E+01 -0.50218468454E+01  0.11111391291E+02  0.00000000000E+00 0.  1.
         -1    1    6    6    0  502 -0.11586447942E+03 -0.41337221433E+02  0.87670711072E+02  0.15106123608E+03  0.00000000000E+00 0.  1.
<mgrwt>
<rscale>  0 0.10243736E+04</rscale>
<asrwt>0</asrwt>
<pdfrwt beam="1">  1        2 0.96385998E-01 0.10243736E+04</pdfrwt>
<pdfrwt beam="2">  1       -2 0.64419311E-01 0.10243736E+04</pdfrwt>
<totfact> 0.10448440E+02</totfact>
</mgrwt>
</event>
<event>
12    1  0.2277885E-007  0.2633473E+04  0.7818608E-02  0.8356919E-01
          2   -1    0    0  501    0  0.00000000000E+00  0.00000000000E+00  0.16693884729E+04  0.16693884729E+04  0.00000000000E+00 0. -1.
         -2   -1    0    0    0  501 -0.00000000000E+00 -0.00000000000E+00 -0.10385811102E+04  0.10385811102E+04  0.00000000000E+00 0.  1.
         23    2    1    2    0    0 -0.59470275160E+03  0.99648372372E+03  0.25519083800E+03  0.11918942853E+04  0.94013026703E+02 0.  0.
        254    2    1    2    0    0  0.59470275160E+03 -0.99648372372E+03  0.37561652472E+03  0.15160752977E+04  0.90041399389E+03 0.  0.
        -24    2    4    4    0    0  0.40786501649E+03  0.20522038580E+02  0.10946874199E+02  0.41669793989E+03  0.82111590570E+02 0.  0.
         24    2    4    4    0    0  0.18683773511E+03 -0.10170057623E+04  0.36466965052E+03  0.10993773579E+04  0.80234413737E+02 0.  0.
         13    1    3    3    0    0 -0.36222924696E+03  0.58646342690E+03  0.10537685639E+03  0.69731890861E+03  0.00000000000E+00 0.  1.
        -13    1    3    3    0    0 -0.23247350464E+03  0.41002029682E+03  0.14981398162E+03  0.49457537672E+03  0.00000000000E+00 0. -1.
          2    1    6    6  502    0  0.17014868802E+03 -0.96266877383E+03  0.32553592150E+03  0.10303666242E+04  0.00000000000E+00 0. -1.
          1    1    5    5  503    0  0.38555614215E+03  0.33212235210E+02 -0.39854403818E+01  0.38700448971E+03  0.00000000000E+00 0. -1.
         -4    1    5    5    0  503  0.22308874340E+02 -0.12690196630E+02  0.14932314581E+02  0.29693450180E+02  0.00000000000E+00 0.  1.
         -1    1    6    6    0  502  0.16689047085E+02 -0.54336988475E+02  0.39133729023E+02  0.69010733631E+02  0.00000000000E+00 0.  1.
<mgrwt>
<rscale>  0 0.26334732E+04</rscale>
<asrwt>0</asrwt>
<pdfrwt beam="1">  1        2 0.25682900E+00 0.26334732E+04</pdfrwt>
<pdfrwt beam="2">  1       -2 0.15978171E+00 0.26334732E+04</pdfrwt>
<totfact> 0.22751782E+00</totfact>
</mgrwt>
</event>
<event>
12    1  0.1397649E-007  0.1756334E+04  0.7818608E-02  0.8729871E-01
         -1   -1    0    0    0  501 -0.00000000000E+00  0.00000000000E+00  0.70697941533E+03  0.70697941533E+03  0.00000000000E+00 0.  1.
          1   -1    0    0  501    0  0.00000000000E+00 -0.00000000000E+00 -0.10908061124E+04  0.10908061124E+04  0.00000000000E+00 0. -1.
         23    2    1    2    0    0  0.59383074355E+03  0.96200910556E+02  0.96547251392E+02  0.61611449528E+03  0.91575828525E+02 0.  0.
        254    2    1    2    0    0 -0.59383074355E+03 -0.96200910556E+02 -0.48037394843E+03  0.11816710324E+04  0.89649190256E+03 0.  0.
        -24    2    4    4    0    0 -0.26575170298E+03  0.38448898938E+03 -0.32272071032E+03  0.57364935079E+03  0.80431151867E+02 0.  0.
         24    2    4    4    0    0 -0.32807904056E+03 -0.48068989994E+03 -0.15765323811E+03  0.60802168164E+03  0.78340188256E+02 0.  0.
         11    1    3    3    0    0  0.47900512547E+03  0.10322633356E+03  0.52011024576E+02  0.49275423169E+03  0.00000000000E+00 0.  1.
        -11    1    3    3    0    0  0.11482561807E+03 -0.70254230031E+01  0.44536226817E+02  0.12336026359E+03  0.00000000000E+00 0. -1.
          4    1    6    6  502    0 -0.56516968291E+02 -0.13715408880E+03 -0.55277071530E+02  0.15830655835E+03  0.00000000000E+00 0. -1.
          1    1    5    5  503    0 -0.34980286224E+02  0.15516793642E+02 -0.17432334676E+02  0.42050892993E+02  0.00000000000E+00 0. -1.
         -2    1    5    5    0  503 -0.23077141676E+03  0.36897219574E+03 -0.30528837565E+03  0.53159845779E+03  0.00000000000E+00 0.  1.
         -3    1    6    6    0  502 -0.27156207227E+03 -0.34353581114E+03 -0.10237616658E+03  0.44971512329E+03  0.00000000000E+00 0.  1.
<mgrwt>
<rscale>  0 0.17563342E+04</rscale>
<asrwt>0</asrwt>
<pdfrwt beam="1">  1        1 0.16781632E+00 0.17563342E+04</pdfrwt>
<pdfrwt beam="2">  1       -1 0.10876606E+00 0.17563342E+04</pdfrwt>
<totfact> 0.95653229E+00</totfact>
</mgrwt>
</event>
<event>
12    1  0.1397649E-007  0.2530324E+04  0.7818608E-02  0.8392261E-01
         -2   -1    0    0    0  501 -0.00000000000E+00  0.00000000000E+00  0.17831983349E+04  0.17831983349E+04  0.00000000000E+00 0.  1.
          2   -1    0    0  501    0  0.00000000000E+00 -0.00000000000E+00 -0.89762030980E+03  0.89762030980E+03  0.00000000000E+00 0. -1.
         23    2    1    2    0    0 -0.83598723255E+03 -0.43232563468E+03  0.99613340125E+03  0.13727351936E+04  0.79624438290E+02 0.  0.
        254    2    1    2    0    0  0.83598723255E+03  0.43232563468E+03 -0.11055537612E+03  0.13080834512E+04  0.90170933046E+03 0.  0.
        -24    2    4    4    0    0  0.53346434208E+03  0.59839024326E+02  0.34422308254E+03  0.64219071485E+03  0.75858226841E+02 0.  0.
         24    2    4    4    0    0  0.30252289048E+03  0.37248661036E+03 -0.45477845866E+03  0.66589273632E+03  0.79519278624E+02 0.  0.
         11    1    3    3    0    0 -0.82119393586E+03 -0.41189766326E+03  0.96103092317E+03  0.13295110382E+04  0.00000000000E+00 0.  1.
        -11    1    3    3    0    0 -0.14793296694E+02 -0.20427971422E+02  0.35102478078E+02  0.43224155408E+02  0.00000000000E+00 0. -1.
          2    1    6    6  502    0  0.30738681041E+03  0.36240255215E+03 -0.44406428952E+03  0.65039630553E+03  0.00000000000E+00 0. -1.
          3    1    5    5  503    0  0.44222899824E+03  0.75455224114E+02  0.27053562188E+03  0.52387928040E+03  0.00000000000E+00 0. -1.
         -4    1    5    5    0  503  0.91235343839E+02 -0.15616199789E+02  0.73687460662E+02  0.11831143444E+03  0.00000000000E+00 0.  1.
         -1    1    6    6    0  502 -0.48639199353E+01  0.10084058206E+02 -0.10714169141E+02  0.15496430796E+02  0.00000000000E+00 0.  1.
<mgrwt>
<rscale>  0 0.25303241E+04</rscale>
<asrwt>0</asrwt>
<pdfrwt beam="1">  1        2 0.13809543E+00 0.25303241E+04</pdfrwt>
<pdfrwt beam="2">  1       -2 0.27433821E+00 0.25303241E+04</pdfrwt>
<totfact> 0.11939119E+00</totfact>
</mgrwt>
</event>
<event>
12    1  0.1397649E-007  0.1603721E+04  0.7818608E-02  0.8818265E-01
          2   -1    0    0  501    0  0.00000000000E+00  0.00000000000E+00  0.17362483820E+04  0.17362483820E+04  0.00000000000E+00 0. -1.
         -2   -1    0    0    0  501 -0.00000000000E+00 -0.00000000000E+00 -0.37032755473E+03  0.37032755473E+03  0.00000000000E+00 0.  1.
         23    2    1    2    0    0  0.42324513069E+03  0.13493806329E+02  0.89157193621E+03  0.99146252598E+03  0.93695781721E+02 0.  0.
        254    2    1    2    0    0 -0.42324513069E+03 -0.13493806329E+02  0.47434889110E+03  0.11151134108E+04  0.91605268678E+03 0.  0.
        -24    2    4    4    0    0 -0.34605567603E+03  0.22302232440E+03  0.66858837728E+03  0.78935878872E+03  0.81138098299E+02 0.  0.
         24    2    4    4    0    0 -0.77189454660E+02 -0.23651613073E+03 -0.19423948619E+03  0.32575462206E+03  0.80554353029E+02 0.  0.
         11    1    3    3    0    0  0.42776972567E+03  0.10013997243E+02  0.88214312656E+03  0.98044057141E+03  0.00000000000E+00 0. -1.
        -11    1    3    3    0    0 -0.45245949738E+01  0.34798090857E+01  0.94288096583E+01  0.11021954569E+02  0.00000000000E+00 0.  1.
          2    1    6    6  502    0 -0.65822097842E+02 -0.21163704628E+03 -0.13248909198E+03  0.25821724849E+03  0.00000000000E+00 0. -1.
          1    1    5    5  503    0 -0.25816022541E+03  0.18004419283E+03  0.44259957265E+03  0.54309943387E+03  0.00000000000E+00 0. -1.
         -2    1    5    5    0  503 -0.87895450618E+02  0.42978131573E+02  0.22598880463E+03  0.24625935485E+03  0.00000000000E+00 0.  1.
         -3    1    6    6    0  502 -0.11367356819E+02 -0.24879084451E+02 -0.61750394210E+02  0.67537373574E+02  0.00000000000E+00 0.  1.
<mgrwt>
<rscale>  0 0.16037214E+04</rscale>
<asrwt>0</asrwt>
<pdfrwt beam="1">  1        2 0.26711513E+00 0.16037214E+04</pdfrwt>
<pdfrwt beam="2">  1       -2 0.56973471E-01 0.16037214E+04</pdfrwt>
<totfact> 0.25919171E+01</totfact>
</mgrwt>
</event>
<event>
12    1  0.1397649E-007  0.1207007E+04  0.7818608E-02  0.9106746E-01
         -1   -1    0    0    0  501 -0.00000000000E+00  0.00000000000E+00  0.15359642139E+03  0.15359642139E+03  0.00000000000E+00 0.  1.
          1   -1    0    0  501    0  0.00000000000E+00 -0.00000000000E+00 -0.23712554412E+04  0.23712554412E+04  0.00000000000E+00 0. -1.
         23    2    1    2    0    0 -0.93288602801E+02 -0.11452277649E+03 -0.92963921233E+03  0.94538480672E+03  0.87778915054E+02 0.  0.
        254    2    1    2    0    0  0.93288602801E+02  0.11452277649E+03 -0.12880198075E+04  0.15794670559E+04  0.90216568676E+03 0.  0.
        -24    2    4    4    0    0 -0.10688736396E+03  0.47346951607E+03 -0.74691844727E+03  0.89527052067E+03  0.89575929171E+02 0.  0.
         24    2    4    4    0    0  0.20017596676E+03 -0.35894673958E+03 -0.54110136019E+03  0.68419653518E+03  0.80131374818E+02 0.  0.
         13    1    3    3    0    0 -0.60979439466E+02 -0.10690830040E+03 -0.85344547856E+03  0.86227435403E+03  0.00000000000E+00 0. -1.
        -13    1    3    3    0    0 -0.32309163335E+02 -0.76144760924E+01 -0.76193733761E+02  0.83110452688E+02  0.00000000000E+00 0.  1.
          4    1    6    6  502    0  0.67729286602E+01 -0.65929094617E+01 -0.43607195649E+02  0.44619799755E+02  0.00000000000E+00 0. -1.
          3    1    5    5  503    0 -0.33016311095E+01  0.21054086144E+03 -0.33719180803E+03  0.39753826295E+03  0.00000000000E+00 0. -1.
         -4    1    5    5    0  503 -0.10358573285E+03  0.26292865463E+03 -0.40972663924E+03  0.49773225773E+03  0.00000000000E+00 0.  1.
         -3    1    6    6    0  502  0.19340303810E+03 -0.35235383012E+03 -0.49749416454E+03  0.63957673542E+03  0.00000000000E+00 0.  1.
<mgrwt>
<rscale>  0 0.12070068E+04</rscale>
<asrwt>0</asrwt>
<pdfrwt beam="1">  1        1 0.36480854E+00 0.12070068E+04</pdfrwt>
<pdfrwt beam="2">  1       -1 0.23630218E-01 0.12070068E+04</pdfrwt>
<totfact> 0.25498465E+01</totfact>
</mgrwt>
</event>
<event>
12    1  0.1397649E-007  0.2062064E+04  0.7818608E-02  0.8578141E-01
          2   -1    0    0  501    0  0.00000000000E+00  0.00000000000E+00  0.22855527508E+04  0.22855527508E+04  0.00000000000E+00 0. -1.
         -2   -1    0    0    0  501 -0.00000000000E+00 -0.00000000000E+00 -0.46510708879E+03  0.46510708879E+03  0.00000000000E+00 0.  1.
         23    2    1    2    0    0 -0.20494694123E+03  0.26107801047E+03  0.17721264076E+04  0.18052576516E+04  0.91423234140E+02 0.  0.
        254    2    1    2    0    0  0.20494694123E+03 -0.26107801047E+03  0.48319254370E+02  0.94540218800E+03  0.88390359794E+03 0.  0.
        -24    2    4    4    0    0 -0.25655601030E+03 -0.37228964589E+03  0.64238663453E+02  0.46361594681E+03  0.79953570272E+02 0.  0.
         24    2    4    4    0    0  0.46150295152E+03  0.11121163542E+03 -0.15919409084E+02  0.48178624119E+03  0.80694191208E+02 0.  0.
         13    1    3    3    0    0 -0.21466923723E+03  0.24933137270E+03  0.16905282194E+04  0.17222469844E+04  0.00000000000E+00 0. -1.
        -13    1    3    3    0    0  0.97222960033E+01  0.11746637772E+02  0.81598188245E+02  0.83010667166E+02  0.00000000000E+00 0.  1.
          4    1    6    6  502    0  0.43933663023E+03  0.95765404374E+02 -0.31223338389E+02  0.45073560343E+03  0.00000000000E+00 0. -1.
          1    1    5    5  503    0 -0.16761323530E+03 -0.30339290664E+03  0.46467304173E+02  0.34971511664E+03  0.00000000000E+00 0. -1.
         -2    1    5    5    0  503 -0.88942774996E+02 -0.68896739243E+02  0.17771359281E+02  0.11390083017E+03  0.00000000000E+00 0.  1.
         -3    1    6    6    0  502  0.22166321294E+02  0.15446231044E+02  0.15303929305E+02  0.31050637761E+02  0.00000000000E+00 0.  1.
<mgrwt>
<rscale>  0 0.20620638E+04</rscale>
<asrwt>0</asrwt>
<pdfrwt beam="1">  1        2 0.35162349E+00 0.20620638E+04</pdfrwt>
<pdfrwt beam="2">  1       -2 0.71554938E-01 0.20620638E+04</pdfrwt>
<totfact> 0.75660625E+00</totfact>
</mgrwt>
</event>
<event>
12    1  0.1397649E-007  0.2817957E+04  0.7818608E-02  0.8297715E-01
          4   -1    0    0  501    0  0.00000000000E+00  0.00000000000E+00  0.15022488580E+04  0.15022488580E+04  0.00000000000E+00 0. -1.
         -4   -1    0    0    0  501 -0.00000000000E+00 -0.00000000000E+00 -0.13214991275E+04  0.13214991275E+04  0.00000000000E+00 0.  1.
         23    2    1    2    0    0 -0.89437545970E+03  0.63178360773E+03  0.69642460534E+03  0.13008733011E+04  0.90587663540E+02 0.  0.
        254    2    1    2    0    0  0.89437545970E+03 -0.63178360773E+03 -0.51567487483E+03  0.15228746844E+04  0.92421249602E+03 0.  0.
        -24    2    4    4    0    0  0.71492971846E+03 -0.56320923542E+03  0.55502283513E+02  0.91520703624E+03  0.78703688001E+02 0.  0.
         24    2    4    4    0    0  0.17944574124E+03 -0.68574372316E+02 -0.57117715834E+03  0.60766764812E+03  0.78188271278E+02 0.  0.
         11    1    3    3    0    0 -0.36098137444E+02  0.36890485895E+02  0.54519155247E+02  0.75075440494E+02  0.00000000000E+00 0.  1.
        -11    1    3    3    0    0 -0.85827732226E+03  0.59489312184E+03  0.64190545010E+03  0.12257978606E+04  0.00000000000E+00 0. -1.
          4    1    6    6  502    0  0.64789353730E+02 -0.63881018898E+02 -0.21494450431E+03  0.23340862209E+03  0.00000000000E+00 0. -1.
          1    1    5    5  503    0  0.25100954034E+03 -0.15655911544E+03  0.35635201340E+02  0.29797049106E+03  0.00000000000E+00 0. -1.
         -2    1    5    5    0  503  0.46392017812E+03 -0.40665011998E+03  0.19867082173E+02  0.61723654518E+03  0.00000000000E+00 0.  1.
         -3    1    6    6    0  502  0.11465638751E+03 -0.46933534185E+01 -0.35623265403E+03  0.37425902603E+03  0.00000000000E+00 0.  1.
<mgrwt>
<rscale>  0 0.28179571E+04</rscale>
<asrwt>0</asrwt>
<pdfrwt beam="1">  1        4 0.23111521E+00 0.28179571E+04</pdfrwt>
<pdfrwt beam="2">  1       -4 0.20330756E+00 0.28179571E+04</pdfrwt>
<totfact> 0.17926849E-02</totfact>
</mgrwt>
</event>
<event>
12    1  0.1397649E-007  0.1294117E+04  0.7818608E-02  0.9034244E-01
          2   -1    0    0  501    0  0.00000000000E+00  0.00000000000E+00  0.79193584451E+03  0.79193584451E+03  0.00000000000E+00 0. -1.
         -2   -1    0    0    0  501 -0.00000000000E+00 -0.00000000000E+00 -0.52868474834E+03  0.52868474834E+03  0.00000000000E+00 0.  1.
         23    2    1    2    0    0  0.34769906725E+02 -0.21483943950E+03  0.41367305953E+03  0.47555576652E+03  0.87538309973E+02 0.  0.
        254    2    1    2    0    0 -0.34769906725E+02  0.21483943950E+03 -0.15042196336E+03  0.84506482633E+03  0.80258511229E+03 0.  0.
        -24    2    4    4    0    0 -0.12958723169E+03  0.47643239935E+03 -0.22145347598E+03  0.54677550335E+03  0.78365344825E+02 0.  0.
         24    2    4    4    0    0  0.94817324969E+02 -0.26159295985E+03  0.71031512625E+02  0.29828932298E+03  0.80683595995E+02 0.  0.
         11    1    3    3    0    0  0.16270195053E+02 -0.40054731711E+02  0.27424847106E+02  0.51197880995E+02  0.00000000000E+00 0.  1.
        -11    1    3    3    0    0  0.18499711671E+02 -0.17478470779E+03  0.38624821243E+03  0.42435788553E+03  0.00000000000E+00 0. -1.
          4    1    6    6  502    0  0.10803373932E+03 -0.24150711964E+03  0.72112372700E+02  0.27422102758E+03  0.00000000000E+00 0. -1.
          1    1    5    5  503    0 -0.10688224486E+03  0.35231508139E+03 -0.19935157638E+03  0.41867741979E+03  0.00000000000E+00 0. -1.
         -2    1    5    5    0  503 -0.22704986838E+02  0.12411731796E+03 -0.22101899609E+02  0.12809808356E+03  0.00000000000E+00 0.  1.
         -3    1    6    6    0  502 -0.13216414353E+02 -0.20085840208E+02 -0.10808600747E+01  0.24068295405E+02  0.00000000000E+00 0.  1.
<mgrwt>
<rscale>  0 0.12941165E+04</rscale>
<asrwt>0</asrwt>
<pdfrwt beam="1">  1        2 0.12183628E+00 0.12941165E+04</pdfrwt>
<pdfrwt beam="2">  1       -2 0.81336115E-01 0.12941165E+04</pdfrwt>
<totfact> 0.45607285E+01</totfact>
</mgrwt>
</event>
<event>
12    1  0.1397649E-007  0.1585313E+04  0.7818608E-02  0.8829622E-01
         -2   -1    0    0    0  501 -0.00000000000E+00  0.00000000000E+00  0.66536488616E+03  0.66536488616E+03  0.00000000000E+00 0.  1.
          2   -1    0    0  501    0  0.00000000000E+00 -0.00000000000E+00 -0.94429994177E+03  0.94429994177E+03  0.00000000000E+00 0. -1.
         23    2    1    2    0    0  0.18782064090E+03  0.20574969419E+03  0.36111719726E+03  0.46506066670E+03  0.90918995521E+02 0.  0.
        254    2    1    2    0    0 -0.18782064090E+03 -0.20574969419E+03 -0.64005225287E+03  0.11446041612E+04  0.90710653713E+03 0.  0.
        -24    2    4    4    0    0 -0.35470382689E+03 -0.48773930003E+03 -0.46572186621E+03  0.76650876394E+03  0.83273038373E+02 0.  0.
         24    2    4    4    0    0  0.16688318599E+03  0.28198960585E+03 -0.17433038666E+03  0.37809539730E+03  0.72089598211E+02 0.  0.
         11    1    3    3    0    0  0.12414207104E+03  0.11757491716E+03  0.14947989979E+03  0.22711088787E+03  0.00000000000E+00 0. -1.
        -11    1    3    3    0    0  0.63678569853E+02  0.88174777025E+02  0.21163729747E+03  0.23794977883E+03  0.00000000000E+00 0.  1.
          2    1    6    6  502    0  0.17159847702E+03  0.28089509455E+03 -0.17562481105E+03  0.37308466293E+03  0.00000000000E+00 0. -1.
          1    1    5    5  503    0 -0.28264305077E+03 -0.42413453632E+03 -0.36237313778E+03  0.62537308068E+03  0.00000000000E+00 0. -1.
         -2    1    5    5    0  503 -0.72060776121E+02 -0.63604763711E+02 -0.10334872843E+03  0.14113568326E+03  0.00000000000E+00 0.  1.
         -1    1    6    6    0  502 -0.47152910268E+01  0.10945113005E+01  0.12944243826E+01  0.50107343710E+01  0.00000000000E+00 0.  1.
<mgrwt>
<rscale>  0 0.15853126E+04</rscale>
<asrwt>0</asrwt>
<pdfrwt beam="1">  1        2 0.14527691E+00 0.15853126E+04</pdfrwt>
<pdfrwt beam="2">  1       -2 0.10236383E+00 0.15853126E+04</pdfrwt>
<totfact> 0.20544065E+01</totfact>
</mgrwt>
</event>
<event>
12    1  0.1397649E-007  0.1553795E+04  0.7818608E-02  0.8849447E-01
         -2   -1    0    0    0  501 -0.00000000000E+00  0.00000000000E+00  0.40337793573E+03  0.40337793573E+03  0.00000000000E+00 0.  1.
          2   -1    0    0  501    0  0.00000000000E+00 -0.00000000000E+00 -0.14962891779E+04  0.14962891779E+04  0.00000000000E+00 0. -1.
         23    2    1    2    0    0  0.32523638324E+02  0.16833328129E+03  0.22660413637E+03  0.29828559924E+03  0.90724767583E+02 0.  0.
        254    2    1    2    0    0 -0.32523638324E+02 -0.16833328129E+03 -0.13195153786E+04  0.16013815144E+04  0.89101517372E+03 0.  0.
        -24    2    4    4    0    0  0.40981366973E+03 -0.18123579835E+03 -0.72528469490E+03  0.85622617359E+03  0.79320320192E+02 0.  0.
         24    2    4    4    0    0 -0.44233730805E+03  0.12902517057E+02 -0.59423068368E+03  0.74515534084E+03  0.79483378799E+02 0.  0.
         13    1    3    3    0    0 -0.22385301240E+02  0.14369321618E+02  0.13859571024E+02  0.29994446559E+02  0.00000000000E+00 0. -1.
        -13    1    3    3    0    0  0.54908939564E+02  0.15396395968E+03  0.21274456534E+03  0.26829115268E+03  0.00000000000E+00 0.  1.
          2    1    6    6  502    0 -0.39845370909E+03  0.19590913689E+02 -0.56630198388E+03  0.69270996754E+03  0.00000000000E+00 0. -1.
          1    1    5    5  503    0  0.39105192298E+03 -0.15827487931E+03 -0.69981610156E+03  0.81713837255E+03  0.00000000000E+00 0. -1.
         -2    1    5    5    0  503  0.18761746748E+02 -0.22960919037E+02 -0.25468593339E+02  0.39087801048E+02  0.00000000000E+00 0.  1.
         -1    1    6    6    0  502 -0.43883598957E+02 -0.66883966320E+01 -0.27928699804E+02  0.52445373292E+02  0.00000000000E+00 0.  1.
<mgrwt>
<rscale>  0 0.15537954E+04</rscale>
<asrwt>0</asrwt>
<pdfrwt beam="1">  1        2 0.23019834E+00 0.15537954E+04</pdfrwt>
<pdfrwt beam="2">  1       -2 0.62058143E-01 0.15537954E+04</pdfrwt>
<totfact> 0.29588404E+01</totfact>
</mgrwt>
</event>
<event>
12    1  0.1397649E-007  0.1039740E+04  0.7818608E-02  0.9266001E-01
         -2   -1    0    0    0  501 -0.00000000000E+00  0.00000000000E+00  0.19065066904E+04  0.19065066904E+04  0.00000000000E+00 0.  1.
          2   -1    0    0  501    0  0.00000000000E+00 -0.00000000000E+00 -0.14175927928E+03  0.14175927928E+03  0.00000000000E+00 0. -1.
         23    2    1    2    0    0  0.51291568430E+01 -0.21424850655E+02  0.44242421193E+03  0.45289675694E+03  0.94291869576E+02 0.  0.
        254    2    1    2    0    0 -0.51291568430E+01  0.21424850655E+02  0.13223231992E+04  0.15953692127E+04  0.89228860207E+03 0.  0.
        -24    2    4    4    0    0  0.35446170053E+02  0.40041916064E+03  0.32047910956E+03  0.52028497803E+03  0.79985395687E+02 0.  0.
         24    2    4    4    0    0 -0.40575326896E+02 -0.37899430999E+03  0.10018440896E+04  0.10750842347E+04  0.82652813912E+02 0.  0.
         13    1    3    3    0    0  0.20866575960E+02 -0.72920740828E+01  0.19595533679E+02  0.29539351328E+02  0.00000000000E+00 0. -1.
        -13    1    3    3    0    0 -0.15737419117E+02 -0.14132776572E+02  0.42282867825E+03  0.42335740561E+03  0.00000000000E+00 0.  1.
          2    1    6    6  502    0 -0.37929797402E+02 -0.69662919632E+02  0.24269050954E+03  0.25532386360E+03  0.00000000000E+00 0. -1.
          1    1    5    5  503    0  0.27469017033E+02  0.41019375741E+02  0.51225909074E+02  0.71142321043E+02  0.00000000000E+00 0. -1.
         -2    1    5    5    0  503  0.79771530194E+01  0.35939978490E+03  0.26925320049E+03  0.44914265699E+03  0.00000000000E+00 0.  1.
         -1    1    6    6    0  502 -0.26455294938E+01 -0.30933139035E+03  0.75915358007E+03  0.81976037109E+03  0.00000000000E+00 0.  1.
<mgrwt>
<rscale>  0 0.10397404E+04</rscale>
<asrwt>0</asrwt>
<pdfrwt beam="1">  1        2 0.21809121E-01 0.10397404E+04</pdfrwt>
<pdfrwt beam="2">  1       -2 0.29330870E+00 0.10397404E+04</pdfrwt>
<totfact> 0.90548726E+00</totfact>
</mgrwt>
</event>
<event>
12    1  0.1397649E-007  0.1121360E+04  0.7818608E-02  0.9184620E-01
         -1   -1    0    0    0  501 -0.00000000000E+00  0.00000000000E+00  0.29406833611E+03  0.29406833611E+03  0.00000000000E+00 0.  1.
          1   -1    0    0  501    0  0.00000000000E+00 -0.00000000000E+00 -0.10690101836E+04  0.10690101836E+04  0.00000000000E+00 0. -1.
         23    2    1    2    0    0 -0.11855745324E+03 -0.12456970779E+03 -0.77477499624E+02  0.20985428449E+03  0.91992260292E+02 0.  0.
        254    2    1    2    0    0  0.11855745324E+03  0.12456970779E+03 -0.69746434791E+03  0.11532242353E+04  0.90216192471E+03 0.  0.
        -24    2    4    4    0    0 -0.16688651085E+03  0.73449999558E+02  0.15336927644E+03  0.25080398937E+03  0.78323024637E+02 0.  0.
         24    2    4    4    0    0  0.28544396409E+03  0.51119708228E+02 -0.85083362435E+03  0.90242024590E+03  0.79705474669E+02 0.  0.
         13    1    3    3    0    0 -0.47068575733E+02  0.13868461399E+01 -0.34847797933E+01  0.47217770531E+02  0.00000000000E+00 0. -1.
        -13    1    3    3    0    0 -0.71488877504E+02 -0.12595655393E+03 -0.73992719831E+02  0.16263651396E+03  0.00000000000E+00 0.  1.
          4    1    6    6  502    0  0.18009743444E+03  0.60969384015E+02 -0.61984821255E+03  0.64835496318E+03  0.00000000000E+00 0. -1.
          3    1    5    5  503    0 -0.13458173895E+03  0.35683176494E+02  0.14386194798E+03  0.20020437962E+03  0.00000000000E+00 0. -1.
         -4    1    5    5    0  503 -0.32304771899E+02  0.37766823065E+02  0.95073284600E+01  0.50599609745E+02  0.00000000000E+00 0.  1.
         -3    1    6    6    0  502  0.10534652965E+03 -0.98496757867E+01 -0.23098541180E+03  0.25406528272E+03  0.00000000000E+00 0.  1.
<mgrwt>
<rscale>  0 0.11213600E+04</rscale>
<asrwt>0</asrwt>
<pdfrwt beam="1">  1        1 0.16446311E+00 0.11213600E+04</pdfrwt>
<pdfrwt beam="2">  1       -1 0.45241282E-01 0.11213600E+04</pdfrwt>
<totfact> 0.64539444E+01</totfact>
</mgrwt>
</event>
<event>
12    1  0.1397649E-007  0.1610671E+04  0.7818608E-02  0.8814019E-01
          1   -1    0    0  501    0  0.00000000000E+00  0.00000000000E+00  0.72608194835E+03  0.72608194835E+03  0.00000000000E+00 0. -1.
         -1   -1    0    0    0  501 -0.00000000000E+00 -0.00000000000E+00 -0.89323932109E+03  0.89323932109E+03  0.00000000000E+00 0.  1.
         23    2    1    2    0    0 -0.71397860691E+02 -0.10102110468E+03  0.48156105397E+03  0.50549784026E+03  0.91236504252E+02 0.  0.
        254    2    1    2    0    0  0.71397860691E+02  0.10102110468E+03 -0.64871842670E+03  0.11138234292E+04  0.89691923614E+03 0.  0.
        -24    2    4    4    0    0 -0.28208329594E+03 -0.11827591490E+03 -0.61201522375E+03  0.68874238421E+03  0.79014301298E+02 0.  0.
         24    2    4    4    0    0  0.35348115663E+03  0.21929701958E+03 -0.36703202949E+02  0.42508104497E+03  0.79414474709E+02 0.  0.
         11    1    3    3    0    0 -0.76590321825E+02 -0.10740394221E+03  0.35578762867E+03  0.37945555855E+03  0.00000000000E+00 0. -1.
        -11    1    3    3    0    0  0.51924611344E+01  0.63828375348E+01  0.12577342530E+03  0.12604228171E+03  0.00000000000E+00 0.  1.
          2    1    6    6  502    0  0.22822233966E+03  0.16991410667E+03 -0.53112559695E+02  0.28944288549E+03  0.00000000000E+00 0. -1.
          1    1    5    5  503    0 -0.90441369581E+02 -0.42108630459E+02 -0.12547710566E+03  0.16030371841E+03  0.00000000000E+00 0. -1.
         -2    1    5    5    0  503 -0.19164192636E+03 -0.76167284445E+02 -0.48653811810E+03  0.52843866581E+03  0.00000000000E+00 0.  1.
         -1    1    6    6    0  502  0.12525881698E+03  0.49382912913E+02  0.16409356746E+02  0.13563815948E+03  0.00000000000E+00 0.  1.
<mgrwt>
<rscale>  0 0.16106706E+04</rscale>
<asrwt>0</asrwt>
<pdfrwt beam="1">  1        1 0.11170492E+00 0.16106706E+04</pdfrwt>
<pdfrwt beam="2">  1       -1 0.13742143E+00 0.16106706E+04</pdfrwt>
<totfact> 0.10866728E+01</totfact>
</mgrwt>
</event>
<event>
12    1  0.1397649E-007  0.2288441E+04  0.7818608E-02  0.8482493E-01
          2   -1    0    0  501    0  0.00000000000E+00  0.00000000000E+00  0.14255516975E+04  0.14255516975E+04  0.00000000000E+00 0. -1.
         -2   -1    0    0    0  501 -0.00000000000E+00 -0.00000000000E+00 -0.91840952854E+03  0.91840952854E+03  0.00000000000E+00 0.  1.
         23    2    1    2    0    0  0.39988272036E+03 -0.33314118817E+02  0.11145772538E+04  0.11880524162E+04  0.90388431794E+02 0.  0.
        254    2    1    2    0    0 -0.39988272036E+03  0.33314118817E+02 -0.60743508478E+03  0.11559088098E+04  0.89784841360E+03 0.  0.
        -24    2    4    4    0    0 -0.47762163781E+02 -0.12404841755E+03  0.20238096190E+03  0.25506325820E+03  0.80187142100E+02 0.  0.
         24    2    4    4    0    0 -0.35212055658E+03  0.15736253637E+03 -0.80981604668E+03  0.90084555161E+03  0.83479483585E+02 0.  0.
         13    1    3    3    0    0  0.25075775094E+03 -0.60387171560E+02  0.64663794126E+03  0.69618006810E+03  0.00000000000E+00 0.  1.
        -13    1    3    3    0    0  0.14912496942E+03  0.27073052743E+02  0.46793931249E+03  0.49187234814E+03  0.00000000000E+00 0. -1.
          4    1    6    6  502    0 -0.20258464046E+02 -0.10364897943E+02 -0.44694072185E+02  0.50153729307E+02  0.00000000000E+00 0. -1.
          3    1    5    5  503    0  0.16661159415E+01 -0.32296594096E+02  0.62151320816E+01  0.32931349795E+02  0.00000000000E+00 0. -1.
         -4    1    5    5    0  503 -0.49428279723E+02 -0.91751823456E+02  0.19616582981E+03  0.22213190840E+03  0.00000000000E+00 0.  1.
         -3    1    6    6    0  502 -0.33186209254E+03  0.16772743431E+03 -0.76512197449E+03  0.85069182230E+03  0.00000000000E+00 0.  1.
<mgrwt>
<rscale>  0 0.22884407E+04</rscale>
<asrwt>0</asrwt>
<pdfrwt beam="1">  1        2 0.21931565E+00 0.22884407E+04</pdfrwt>
<pdfrwt beam="2">  1       -2 0.14129377E+00 0.22884407E+04</pdfrwt>
<totfact> 0.44531233E+00</totfact>
</mgrwt>
</event>
<event>
12    1  0.1397649E-007  0.1750731E+04  0.7818608E-02  0.8732948E-01
         -2   -1    0    0    0  501 -0.00000000000E+00  0.00000000000E+00  0.54370288831E+03  0.54370288831E+03  0.00000000000E+00 0.  1.
          2   -1    0    0  501    0  0.00000000000E+00 -0.00000000000E+00 -0.14093449981E+04  0.14093449981E+04  0.00000000000E+00 0. -1.
         23    2    1    2    0    0  0.31874654652E+02 -0.29498415546E+03 -0.94987852958E+03  0.99897700171E+03  0.87488190021E+02 0.  0.
        254    2    1    2    0    0 -0.31874654652E+02  0.29498415546E+03  0.84236419812E+02  0.95407088468E+03  0.90284208640E+03 0.  0.
        -24    2    4    4    0    0  0.71653564745E+02 -0.71482698246E+02 -0.34886234580E+03  0.37189362011E+03  0.79724016896E+02 0.  0.
         24    2    4    4    0    0 -0.10352821940E+03  0.36646685370E+03  0.43309876562E+03  0.58217726457E+03  0.79622732460E+02 0.  0.
         11    1    3    3    0    0 -0.16210043373E+01 -0.31675597524E+01  0.10551037980E+01  0.37113789717E+01  0.00000000000E+00 0.  1.
        -11    1    3    3    0    0  0.33495658989E+02 -0.29181659571E+03 -0.95093363338E+03  0.99526562273E+03  0.00000000000E+00 0. -1.
          2    1    6    6  502    0 -0.11329128563E+03  0.29421794314E+03  0.36631545466E+03  0.48330748575E+03  0.00000000000E+00 0. -1.
          3    1    5    5  503    0  0.25036564263E+00 -0.42685820199E+02 -0.19767402132E+03  0.20223046416E+03  0.00000000000E+00 0. -1.
         -4    1    5    5    0  503  0.71403199102E+02 -0.28796878047E+02 -0.15118832448E+03  0.16966315595E+03  0.00000000000E+00 0.  1.
         -1    1    6    6    0  502  0.97630662297E+01  0.72248910564E+02  0.66783310959E+02  0.98869778813E+02  0.00000000000E+00 0.  1.
<mgrwt>
<rscale>  0 0.17507312E+04</rscale>
<asrwt>0</asrwt>
<pdfrwt beam="1">  1        2 0.21682230E+00 0.17507312E+04</pdfrwt>
<pdfrwt beam="2">  1       -2 0.83646599E-01 0.17507312E+04</pdfrwt>
<totfact> 0.16930611E+01</totfact>
</mgrwt>
</event>
<event>
12    1  0.1397649E-007  0.1620891E+04  0.7818608E-02  0.8807816E-01
         -2   -1    0    0    0  501 -0.00000000000E+00  0.00000000000E+00  0.10809507333E+04  0.10809507333E+04  0.00000000000E+00 0.  1.
          2   -1    0    0  501    0  0.00000000000E+00 -0.00000000000E+00 -0.60763333564E+03  0.60763333564E+03  0.00000000000E+00 0. -1.
         23    2    1    2    0    0 -0.22574677786E+03 -0.51019660409E+03  0.83638597726E+02  0.57166902108E+03  0.92454702952E+02 0.  0.
        254    2    1    2    0    0  0.22574677786E+03  0.51019660409E+03  0.38967879989E+03  0.11169150478E+04  0.88565652169E+03 0.  0.
        -24    2    4    4    0    0  0.14542982568E+03  0.63872515369E+03  0.56702697194E+03  0.87024414982E+03  0.81765746090E+02 0.  0.
         24    2    4    4    0    0  0.80316952178E+02 -0.12852854961E+03 -0.17734817205E+03  0.24667089799E+03  0.80148343179E+02 0.  0.
         11    1    3    3    0    0 -0.18535759622E+03 -0.48138978889E+03  0.73834960326E+02  0.52109996037E+03  0.00000000000E+00 0. -1.
        -11    1    3    3    0    0 -0.40389181643E+02 -0.28806815194E+02  0.98036374003E+01  0.50569060716E+02  0.00000000000E+00 0.  1.
          4    1    6    6  502    0  0.31345170152E+02 -0.10953880956E+03 -0.91940470963E+02  0.14640464710E+03  0.00000000000E+00 0. -1.
          1    1    5    5  503    0  0.10892527922E+03  0.42664056769E+03  0.33117735689E+03  0.55096763260E+03  0.00000000000E+00 0. -1.
         -2    1    5    5    0  503  0.36504546458E+02  0.21208458600E+03  0.23584961505E+03  0.31927651722E+03  0.00000000000E+00 0.  1.
         -3    1    6    6    0  502  0.48971782026E+02 -0.18989740041E+02 -0.85407701088E+02  0.10026625089E+03  0.00000000000E+00 0.  1.
<mgrwt>
<rscale>  0 0.16208907E+04</rscale>
<asrwt>0</asrwt>
<pdfrwt beam="1">  1        2 0.93482052E-01 0.16208907E+04</pdfrwt>
<pdfrwt beam="2">  1       -2 0.16630011E+00 0.16208907E+04</pdfrwt>
<totfact> 0.10584720E+01</totfact>
</mgrwt>
</event>
<event>
12    1  0.1397649E-007  0.2518586E+04  0.7818608E-02  0.8396394E-01
          1   -1    0    0  501    0  0.00000000000E+00  0.00000000000E+00  0.21782502247E+04  0.21782502247E+04  0.00000000000E+00 0. -1.
         -1   -1    0    0    0  501 -0.00000000000E+00 -0.00000000000E+00 -0.72802405984E+03  0.72802405984E+03  0.00000000000E+00 0.  1.
         23    2    1    2    0    0  0.44548730440E+03 -0.99609351984E+03  0.75956730063E+03  0.13324149820E+04  0.87897449039E+02 0.  0.
        254    2    1    2    0    0 -0.44548730440E+03  0.99609351984E+03  0.69065886423E+03  0.15738593025E+04  0.89964559614E+03 0.  0.
        -24    2    4    4    0    0  0.11456371735E+03  0.14767529533E+03 -0.14948380391E+03  0.25258473234E+03  0.80751477983E+02 0.  0.
         24    2    4    4    0    0 -0.56005102175E+03  0.84841822452E+03  0.84014266813E+03  0.13212745702E+04  0.80350210133E+02 0.  0.
         11    1    3    3    0    0  0.38444847563E+03 -0.85902107303E+03  0.69031720717E+03  0.11671570935E+04  0.00000000000E+00 0. -1.
        -11    1    3    3    0    0  0.61038828766E+02 -0.13707244682E+03  0.69250093458E+02  0.16525788858E+03  0.00000000000E+00 0.  1.
          2    1    6    6  502    0 -0.17453951259E+03  0.25773170462E+03  0.30600750658E+03  0.43649772863E+03  0.00000000000E+00 0. -1.
          1    1    5    5  503    0  0.59802207611E+02  0.13455413350E+03 -0.10573931895E+03  0.18127857692E+03  0.00000000000E+00 0. -1.
         -2    1    5    5    0  503  0.54761509739E+02  0.13121161825E+02 -0.43744484955E+02  0.71306155418E+02  0.00000000000E+00 0.  1.
         -1    1    6    6    0  502 -0.38551150916E+03  0.59068651990E+03  0.53413516156E+03  0.88477684153E+03  0.00000000000E+00 0.  1.
<mgrwt>
<rscale>  0 0.25185858E+04</rscale>
<asrwt>0</asrwt>
<pdfrwt beam="1">  1        1 0.33511542E+00 0.25185858E+04</pdfrwt>
<pdfrwt beam="2">  1       -1 0.11200370E+00 0.25185858E+04</pdfrwt>
<totfact> 0.14615191E+00</totfact>
</mgrwt>
</event>
<event>
12    1  0.1397649E-007  0.1407146E+04  0.7818608E-02  0.8948662E-01
          2   -1    0    0  501    0  0.00000000000E+00  0.00000000000E+00  0.22869112179E+04  0.22869112179E+04  0.00000000000E+00 0. -1.
         -2   -1    0    0    0  501 -0.00000000000E+00 -0.00000000000E+00 -0.21645569970E+03  0.21645569970E+03  0.00000000000E+00 0.  1.
         23    2    1    2    0    0  0.33384748539E+02 -0.31208019307E+03  0.10840247243E+04  0.11320110491E+04  0.88491943684E+02 0.  0.
        254    2    1    2    0    0 -0.33384748539E+02  0.31208019307E+03  0.98643079388E+03  0.13713558685E+04  0.89947908176E+03 0.  0.
        -24    2    4    4    0    0  0.33368302342E+03 -0.22495498106E+02  0.72869390913E+03  0.80566268569E+03  0.79038866097E+02 0.  0.
         24    2    4    4    0    0 -0.36706777196E+03  0.33457569117E+03  0.25773688475E+03  0.56569318277E+03  0.83071252187E+02 0.  0.
         13    1    3    3    0    0 -0.16480825460E+02 -0.39675920771E+02  0.23706696468E+03  0.24092849985E+03  0.00000000000E+00 0. -1.
        -13    1    3    3    0    0  0.49865573999E+02 -0.27240427230E+03  0.84695775963E+03  0.89108254928E+03  0.00000000000E+00 0.  1.
          2    1    6    6  502    0 -0.49034620459E+02  0.89182671037E+02  0.47742016112E+02  0.11241549235E+03  0.00000000000E+00 0. -1.
          1    1    5    5  503    0  0.91298028062E+02 -0.41732496962E+02  0.22280963669E+03  0.24437893820E+03  0.00000000000E+00 0. -1.
         -2    1    5    5    0  503  0.24238499536E+03  0.19236998856E+02  0.50588427244E+03  0.56128374749E+03  0.00000000000E+00 0.  1.
         -1    1    6    6    0  502 -0.31803315150E+03  0.24539302014E+03  0.20999486864E+03  0.45327769043E+03  0.00000000000E+00 0.  1.
<mgrwt>
<rscale>  0 0.14071460E+04</rscale>
<asrwt>0</asrwt>
<pdfrwt beam="1">  1        2 0.35183248E+00 0.14071460E+04</pdfrwt>
<pdfrwt beam="2">  1       -2 0.33300878E-01 0.14071460E+04</pdfrwt>
<totfact> 0.37868960E+01</totfact>
</mgrwt>
</event>
<event>
12    1  0.1397649E-007  0.1679488E+04  0.7818608E-02  0.8773150E-01
          2   -1    0    0  501    0  0.00000000000E+00  0.00000000000E+00  0.66481584283E+03  0.66481584283E+03  0.00000000000E+00 0. -1.
         -2   -1    0    0    0  501 -0.00000000000E+00 -0.00000000000E+00 -0.10606998454E+04  0.10606998454E+04  0.00000000000E+00 0.  1.
         23    2    1    2    0    0 -0.54464419050E+03  0.22710596888E+03 -0.17779082354E+03  0.62295136974E+03  0.90798770831E+02 0.  0.
        254    2    1    2    0    0  0.54464419050E+03 -0.22710596888E+03 -0.21809317903E+03  0.11025643185E+04  0.90546619280E+03 0.  0.
        -24    2    4    4    0    0 -0.23528506349E+03 -0.95921732035E+02  0.35830993736E+02  0.26808940172E+03  0.77640372384E+02 0.  0.
         24    2    4    4    0    0  0.77992925399E+03 -0.13118423684E+03 -0.25392417277E+03  0.83447491676E+03  0.79824532376E+02 0.  0.
         11    1    3    3    0    0 -0.16487209037E+03  0.77416908236E+02 -0.12575866379E+02  0.18257693249E+03  0.00000000000E+00 0. -1.
        -11    1    3    3    0    0 -0.37977210013E+03  0.14968906064E+03 -0.16521495716E+03  0.44037443725E+03  0.00000000000E+00 0.  1.
          4    1    6    6  502    0  0.86893684703E+01  0.72665337481E+01 -0.40443722445E+01  0.12027659123E+02  0.00000000000E+00 0. -1.
          1    1    5    5  503    0 -0.54758865926E+02 -0.50274240583E+02  0.34315138580E+02  0.81875279539E+02  0.00000000000E+00 0. -1.
         -2    1    5    5    0  503 -0.18052619756E+03 -0.45647491452E+02  0.15158551560E+01  0.18621412218E+03  0.00000000000E+00 0.  1.
         -3    1    6    6    0  502  0.77123988552E+03 -0.13845077059E+03 -0.24987980052E+03  0.82244725764E+03  0.00000000000E+00 0.  1.
<mgrwt>
<rscale>  0 0.16794881E+04</rscale>
<asrwt>0</asrwt>
<pdfrwt beam="1">  1        2 0.10227936E+00 0.16794881E+04</pdfrwt>
<pdfrwt beam="2">  1       -2 0.16318459E+00 0.16794881E+04</pdfrwt>
<totfact> 0.99377069E+00</totfact>
</mgrwt>
</event>
<event>
12    1  0.1397649E-007  0.2480135E+04  0.7818608E-02  0.8410097E-01
         -2   -1    0    0    0  501 -0.00000000000E+00  0.00000000000E+00  0.58337767884E+03  0.58337767884E+03  0.00000000000E+00 0.  1.
          2   -1    0    0  501    0  0.00000000000E+00 -0.00000000000E+00 -0.26359729508E+04  0.26359729508E+04  0.00000000000E+00 0. -1.
         23    2    1    2    0    0  0.78778042174E+03 -0.33164015498E+03 -0.49204612398E+02  0.86113245149E+03  0.92438194822E+02 0.  0.
        254    2    1    2    0    0 -0.78778042174E+03  0.33164015498E+03 -0.20033906596E+04  0.23582181781E+04  0.90390024653E+03 0.  0.
        -24    2    4    4    0    0  0.68352531949E+02 -0.13547944087E+03 -0.74378890122E+03  0.76333574554E+03  0.80204634023E+02 0.  0.
         24    2    4    4    0    0 -0.85613295369E+03  0.46711959584E+03 -0.12596017583E+04  0.15948824326E+04  0.76740035383E+02 0.  0.
         13    1    3    3    0    0  0.77908694072E+03 -0.31833843223E+03 -0.56780656832E+02  0.84352822218E+03  0.00000000000E+00 0.  1.
        -13    1    3    3    0    0  0.86934810232E+01 -0.13301722742E+02  0.75760444346E+01  0.17604229307E+02  0.00000000000E+00 0. -1.
          2    1    6    6  502    0 -0.29326570009E+03  0.18994134043E+03 -0.40912815173E+03  0.53802260937E+03  0.00000000000E+00 0. -1.
          1    1    5    5  503    0  0.14423569077E+02  0.92292806746E+01 -0.81654844363E+02  0.83431004876E+02  0.00000000000E+00 0. -1.
         -2    1    5    5    0  503  0.53928962871E+02 -0.14470872154E+03 -0.66213405686E+03  0.67990474067E+03  0.00000000000E+00 0.  1.
         -1    1    6    6    0  502 -0.56286725360E+03  0.27717825541E+03 -0.85047360660E+03  0.10568598232E+04  0.00000000000E+00 0.  1.
<mgrwt>
<rscale>  0 0.24801353E+04</rscale>
<asrwt>0</asrwt>
<pdfrwt beam="1">  1        2 0.40553430E+00 0.24801353E+04</pdfrwt>
<pdfrwt beam="2">  1       -2 0.89750412E-01 0.24801353E+04</pdfrwt>
<totfact> 0.27534973E+00</totfact>
</mgrwt>
</event>
<event>
12    1  0.1397649E-007  0.2056297E+04  0.7818608E-02  0.8580743E-01
         -2   -1    0    0    0  501 -0.00000000000E+00  0.00000000000E+00  0.49507294440E+03  0.49507294440E+03  0.00000000000E+00 0.  1.
          2   -1    0    0  501    0  0.00000000000E+00 -0.00000000000E+00 -0.21352192765E+04  0.21352192765E+04  0.00000000000E+00 0. -1.
         23    2    1    2    0    0  0.16959317840E+03  0.38456325602E+02  0.37182447900E+03  0.42024225836E+03  0.90052081527E+02 0.  0.
        254    2    1    2    0    0 -0.16959317840E+03 -0.38456325602E+02 -0.20119708111E+04  0.22100499625E+04  0.89780485468E+03 0.  0.
        -24    2    4    4    0    0 -0.42443458552E+03 -0.21217602938E+03 -0.63606520970E+03  0.79766100461E+03  0.80751114387E+02 0.  0.
         24    2    4    4    0    0  0.25484140711E+03  0.17371970377E+03 -0.13759056014E+04  0.14123889579E+04  0.81262945156E+02 0.  0.
         11    1    3    3    0    0  0.89296517271E+02  0.18253295454E+02  0.28939274701E+03  0.30340601974E+03  0.00000000000E+00 0.  1.
        -11    1    3    3    0    0  0.80296661131E+02  0.20203030148E+02  0.82431731988E+02  0.11683623862E+03  0.00000000000E+00 0. -1.
          4    1    6    6  502    0  0.21940070520E+03  0.10902544168E+03 -0.10772867207E+04  0.11047940509E+04  0.00000000000E+00 0. -1.
          3    1    5    5  503    0 -0.41412743572E+03 -0.20218092757E+03 -0.58557409416E+03  0.74516822278E+03  0.00000000000E+00 0. -1.
         -4    1    5    5    0  503 -0.10307149799E+02 -0.99951018101E+01 -0.50491115532E+02  0.52492781835E+02  0.00000000000E+00 0.  1.
         -3    1    6    6    0  502  0.35440701911E+02  0.64694262094E+02 -0.29861888065E+03  0.30759490695E+03  0.00000000000E+00 0.  1.
<mgrwt>
<rscale>  0 0.20562970E+04</rscale>
<asrwt>0</asrwt>
<pdfrwt beam="1">  1        2 0.32849527E+00 0.20562970E+04</pdfrwt>
<pdfrwt beam="2">  1       -2 0.76165069E-01 0.20562970E+04</pdfrwt>
<totfact> 0.80123752E+00</totfact>
</mgrwt>
</event>
<event>
12    1  0.1397649E-007  0.1860668E+04  0.7818608E-02  0.8674686E-01
         -2   -1    0    0    0  501 -0.00000000000E+00  0.00000000000E+00  0.98727889857E+03  0.98727889857E+03  0.00000000000E+00 0.  1.
          2   -1    0    0  501    0  0.00000000000E+00 -0.00000000000E+00 -0.87667372679E+03  0.87667372679E+03  0.00000000000E+00 0. -1.
         23    2    1    2    0    0 -0.10481770087E+03 -0.64008644383E+03 -0.26066356458E+03  0.70505874118E+03  0.92005046732E+02 0.  0.
        254    2    1    2    0    0  0.10481770087E+03  0.64008644383E+03  0.37126873637E+03  0.11588938842E+04  0.88571843957E+03 0.  0.
        -24    2    4    4    0    0 -0.42874465801E+02  0.83581251332E+03  0.29426374683E+03  0.89081145970E+03  0.80827760038E+02 0.  0.
         24    2    4    4    0    0  0.14769216667E+03 -0.19572606950E+03  0.77004989542E+02  0.26808242448E+03  0.76267604665E+02 0.  0.
         13    1    3    3    0    0 -0.87582512464E+02 -0.29896697608E+03 -0.96752964635E+02  0.32621018598E+03  0.00000000000E+00 0.  1.
        -13    1    3    3    0    0 -0.17235188406E+02 -0.34111946775E+03 -0.16391059995E+03  0.37884855520E+03  0.00000000000E+00 0. -1.
          4    1    6    6  502    0 -0.68115947624E+01 -0.15347948837E+02  0.15247603659E+02  0.22681419137E+02  0.00000000000E+00 0. -1.
          1    1    5    5  503    0  0.21654568352E+02  0.12666606521E+03  0.52465371925E+02  0.13880139646E+03  0.00000000000E+00 0. -1.
         -4    1    5    5    0  503 -0.64529034152E+02  0.70914644811E+03  0.24179837490E+03  0.75201006325E+03  0.00000000000E+00 0.  1.
         -3    1    6    6    0  502  0.15450376143E+03 -0.18037812066E+03  0.61757385883E+02  0.24540100534E+03  0.00000000000E+00 0.  1.
<mgrwt>
<rscale>  0 0.18606681E+04</rscale>
<asrwt>0</asrwt>
<pdfrwt beam="1">  1        2 0.13487288E+00 0.18606681E+04</pdfrwt>
<pdfrwt beam="2">  1       -2 0.15188906E+00 0.18606681E+04</pdfrwt>
<totfact> 0.82794229E+00</totfact>
</mgrwt>
</event>
<event>
12    1  0.1397649E-007  0.1453297E+04  0.7818608E-02  0.8916118E-01
         -2   -1    0    0    0  501 -0.00000000000E+00  0.00000000000E+00  0.96991312818E+02  0.96991312818E+02  0.00000000000E+00 0.  1.
          2   -1    0    0  501    0  0.00000000000E+00 -0.00000000000E+00 -0.54439690953E+04  0.54439690953E+04  0.00000000000E+00 0. -1.
         23    2    1    2    0    0 -0.81689563924E+02  0.61887687336E+02 -0.22489874839E+02  0.13827656009E+03  0.90062988523E+02 0.  0.
        254    2    1    2    0    0  0.81689563924E+02 -0.61887687336E+02 -0.53244879076E+04  0.54026838480E+04  0.91011977916E+03 0.  0.
        -24    2    4    4    0    0 -0.14896297446E+03  0.34497653552E+03 -0.14818530187E+04  0.15308637911E+04  0.80354215666E+02 0.  0.
         24    2    4    4    0    0  0.23065253838E+03 -0.40686422286E+03 -0.38426348889E+04  0.38718200569E+04  0.80053572192E+02 0.  0.
         11    1    3    3    0    0  0.75600810356E+01  0.11792547428E+02 -0.32549614525E+02  0.35435806832E+02  0.00000000000E+00 0. -1.
        -11    1    3    3    0    0 -0.89249644960E+02  0.50095139908E+02  0.10059739686E+02  0.10284075326E+03  0.00000000000E+00 0.  1.
          2    1    6    6  502    0  0.10771659587E+03 -0.11388652207E+03 -0.12837809996E+04  0.12933161484E+04  0.00000000000E+00 0. -1.
          3    1    5    5  503    0  0.62975660060E+01  0.17218018900E+01 -0.43701314325E+02  0.44186296667E+02  0.00000000000E+00 0. -1.
         -4    1    5    5    0  503 -0.15526054046E+03  0.34325473363E+03 -0.14381517044E+04  0.14866774945E+04  0.00000000000E+00 0.  1.
         -1    1    6    6    0  502  0.12293594251E+03 -0.29297770079E+03 -0.25588538893E+04  0.25785039085E+04  0.00000000000E+00 0.  1.
<mgrwt>
<rscale>  0 0.14532965E+04</rscale>
<asrwt>0</asrwt>
<pdfrwt beam="1">  1        2 0.83753362E+00 0.14532965E+04</pdfrwt>
<pdfrwt beam="2">  1       -2 0.14921742E-01 0.14532965E+04</pdfrwt>
<totfact> 0.28003415E-01</totfact>
</mgrwt>
</event>
<event>
12    1  0.1397649E-007  0.1260927E+04  0.7818608E-02  0.9061138E-01
          1   -1    0    0  501    0  0.00000000000E+00  0.00000000000E+00  0.39850711161E+03  0.39850711161E+03  0.00000000000E+00 0. -1.
         -1   -1    0    0    0  501 -0.00000000000E+00 -0.00000000000E+00 -0.99743294458E+03  0.99743294458E+03  0.00000000000E+00 0.  1.
         23    2    1    2    0    0  0.32026843133E+02  0.11904405507E+03 -0.45477465922E+03  0.47974471686E+03  0.90209738705E+02 0.  0.
        254    2    1    2    0    0 -0.32026843133E+02 -0.11904405507E+03 -0.14415117375E+03  0.91619533933E+03  0.89634654749E+03 0.  0.
        -24    2    4    4    0    0  0.20708925699E+03  0.23935783425E+03  0.17837349421E+03  0.37163467661E+03  0.78211867648E+02 0.  0.
         24    2    4    4    0    0 -0.23911610013E+03 -0.35840188932E+03 -0.32252466796E+03  0.54456066272E+03  0.83040534279E+02 0.  0.
         11    1    3    3    0    0  0.38331430547E+02  0.11053432108E+03 -0.45432290239E+03  0.46914436407E+03  0.00000000000E+00 0.  1.
        -11    1    3    3    0    0 -0.63045874138E+01  0.85097339890E+01 -0.45175683224E+00  0.10600352789E+02  0.00000000000E+00 0. -1.
          4    1    6    6  502    0 -0.10025761618E+02 -0.91869845687E+01  0.42679145151E+01  0.14252427014E+02  0.00000000000E+00 0. -1.
          3    1    5    5  503    0  0.17502977931E+03  0.19759923061E+03  0.11157285338E+03  0.28658224160E+03  0.00000000000E+00 0. -1.
         -4    1    5    5    0  503  0.32059477680E+02  0.41758603641E+02  0.66800640825E+02  0.85052435014E+02  0.00000000000E+00 0.  1.
         -3    1    6    6    0  502 -0.22909033851E+03 -0.34921490475E+03 -0.32679258248E+03  0.53030823571E+03  0.00000000000E+00 0.  1.
<mgrwt>
<rscale>  0 0.12609268E+04</rscale>
<asrwt>0</asrwt>
<pdfrwt beam="1">  1        1 0.61308787E-01 0.12609268E+04</pdfrwt>
<pdfrwt beam="2">  1       -1 0.15345122E+00 0.12609268E+04</pdfrwt>
<totfact> 0.19489347E+01</totfact>
</mgrwt>
</event>
<event>
12    1  0.1397649E-007  0.2382609E+04  0.7818608E-02  0.8446043E-01
          2   -1    0    0  501    0  0.00000000000E+00  0.00000000000E+00  0.36873741008E+04  0.36873741008E+04  0.00000000000E+00 0. -1.
         -2   -1    0    0    0  501 -0.00000000000E+00 -0.00000000000E+00 -0.38488255100E+03  0.38488255100E+03  0.00000000000E+00 0.  1.
         23    2    1    2    0    0 -0.20465417466E+02 -0.41121726911E+03 -0.17518374600E+03  0.45656078374E+03  0.90774052811E+02 0.  0.
        254    2    1    2    0    0  0.20465417466E+02  0.41121726911E+03  0.34776752958E+04  0.36156958681E+04  0.89972922122E+03 0.  0.
        -24    2    4    4    0    0  0.23979587663E+03  0.57439489301E+03  0.29492360741E+04  0.30152421826E+04  0.79122967066E+02 0.  0.
         24    2    4    4    0    0 -0.21933045916E+03 -0.16317762389E+03  0.52843922176E+03  0.60045368543E+03  0.81017467202E+02 0.  0.
         13    1    3    3    0    0 -0.35490656368E+02 -0.39622378782E+03 -0.17668343750E+03  0.43528141909E+03  0.00000000000E+00 0.  1.
        -13    1    3    3    0    0  0.15025238903E+02 -0.14993481295E+02  0.14996914975E+01  0.21279364653E+02  0.00000000000E+00 0. -1.
          4    1    6    6  502    0 -0.96905323071E+02 -0.71833853700E+02  0.15091700081E+03  0.19320115246E+03  0.00000000000E+00 0. -1.
          3    1    5    5  503    0  0.23523305448E+03  0.54545672598E+03  0.28683813144E+04  0.29292437582E+04  0.00000000000E+00 0. -1.
         -4    1    5    5    0  503  0.45628221465E+01  0.28938167027E+02  0.80854759632E+02  0.85998424474E+02  0.00000000000E+00 0.  1.
         -3    1    6    6    0  502 -0.12242513609E+03 -0.91343770195E+02  0.37752222095E+03  0.40725253297E+03  0.00000000000E+00 0.  1.
<mgrwt>
<rscale>  0 0.23826086E+04</rscale>
<asrwt>0</asrwt>
<pdfrwt beam="1">  1        2 0.56728830E+00 0.23826086E+04</pdfrwt>
<pdfrwt beam="2">  1       -2 0.59212703E-01 0.23826086E+04</pdfrwt>
<totfact> 0.14345046E+00</totfact>
</mgrwt>
</event>
<event>
12    1  0.1397649E-007  0.1351210E+04  0.7818608E-02  0.8989913E-01
          1   -1    0    0  501    0  0.00000000000E+00  0.00000000000E+00  0.13354923860E+04  0.13354923860E+04  0.00000000000E+00 0. -1.
         -1   -1    0    0    0  501 -0.00000000000E+00 -0.00000000000E+00 -0.34177818962E+03  0.34177818962E+03  0.00000000000E+00 0.  1.
         23    2    1    2    0    0  0.28486320978E+03 -0.21958659616E+03  0.43575236393E+03  0.57238239889E+03  0.91521398524E+02 0.  0.
        254    2    1    2    0    0 -0.28486320978E+03  0.21958659616E+03  0.55796183248E+03  0.11048881768E+04  0.88322769157E+03 0.  0.
        -24    2    4    4    0    0 -0.47141979156E+03  0.29796038667E+03  0.65728701059E+03  0.86576854048E+03  0.80696589131E+02 0.  0.
         24    2    4    4    0    0  0.18655658178E+03 -0.78373790508E+02 -0.99325178112E+02  0.23911963629E+03  0.79792858121E+02 0.  0.
         11    1    3    3    0    0  0.27238568796E+03 -0.18743296883E+03  0.35802657082E+03  0.48734803398E+03  0.00000000000E+00 0. -1.
        -11    1    3    3    0    0  0.12477521820E+02 -0.32153627325E+02  0.77725793102E+02  0.85034364902E+02  0.00000000000E+00 0.  1.
          2    1    6    6  502    0  0.35220962605E+01 -0.16763623783E+02  0.71794499515E+01  0.18573334273E+02  0.00000000000E+00 0. -1.
          3    1    5    5  503    0 -0.22169205524E+02  0.29373418194E+02  0.70007158553E+02  0.79090287764E+02  0.00000000000E+00 0. -1.
         -2    1    5    5    0  503 -0.44925058604E+03  0.26858696847E+03  0.58727985204E+03  0.78667825272E+03  0.00000000000E+00 0.  1.
         -1    1    6    6    0  502  0.18303448552E+03 -0.61610166725E+02 -0.10650462806E+03  0.22054630201E+03  0.00000000000E+00 0.  1.
<mgrwt>
<rscale>  0 0.13512101E+04</rscale>
<asrwt>0</asrwt>
<pdfrwt beam="1">  1        1 0.20546036E+00 0.13512101E+04</pdfrwt>
<pdfrwt beam="2">  1       -1 0.52581261E-01 0.13512101E+04</pdfrwt>
<totfact> 0.30436989E+01</totfact>
</mgrwt>
</event>
<event>
12    1  0.1397649E-007  0.1286763E+04  0.7818608E-02  0.9040129E-01
         -3   -1    0    0    0  501 -0.00000000000E+00  0.00000000000E+00  0.44021945314E+03  0.44021945314E+03  0.00000000000E+00 0.  1.
          3   -1    0    0  501    0  0.00000000000E+00 -0.00000000000E+00 -0.94030277311E+03  0.94030277311E+03  0.00000000000E+00 0. -1.
         23    2    1    2    0    0  0.48420940499E+01  0.71116573017E+02 -0.45859705500E+03  0.47283061126E+03  0.90424085615E+02 0.  0.
        254    2    1    2    0    0 -0.48420940499E+01 -0.71116573017E+02 -0.41486264966E+02  0.90769161499E+03  0.90393691423E+03 0.  0.
        -24    2    4    4    0    0 -0.21558556807E+03 -0.41976133831E+03 -0.98223492330E+02  0.48862189007E+03  0.80167192220E+02 0.  0.
         24    2    4    4    0    0  0.21074347402E+03  0.34864476530E+03  0.56737227364E+02  0.41906972492E+03  0.80214320204E+02 0.  0.
         13    1    3    3    0    0 -0.40854515077E+02  0.17414049190E+02 -0.19154120807E+03  0.19662241708E+03  0.00000000000E+00 0.  1.
        -13    1    3    3    0    0  0.45696609127E+02  0.53702523827E+02 -0.26705584693E+03  0.27620819417E+03  0.00000000000E+00 0. -1.
          4    1    6    6  502    0  0.17086813876E+02  0.58044066230E+01 -0.85006146839E+01  0.19947701489E+02  0.00000000000E+00 0. -1.
          1    1    5    5  503    0 -0.25537090117E+01 -0.27282102174E+02  0.99284478907E+01  0.29144615390E+02  0.00000000000E+00 0. -1.
         -2    1    5    5    0  503 -0.21303185906E+03 -0.39247923614E+03 -0.10815194022E+03  0.45947727468E+03  0.00000000000E+00 0.  1.
         -3    1    6    6    0  502  0.19365666014E+03  0.34284035867E+03  0.65237842048E+02  0.39912202343E+03  0.00000000000E+00 0.  1.
<mgrwt>
<rscale>  0 0.12867627E+04</rscale>
<asrwt>0</asrwt>
<pdfrwt beam="1">  1        3 0.14466197E+00 0.12867627E+04</pdfrwt>
<pdfrwt beam="2">  1       -3 0.67726070E-01 0.12867627E+04</pdfrwt>
<totfact> 0.19145510E+00</totfact>
</mgrwt>
</event>
<event>
12    1  0.1397649E-007  0.2360477E+04  0.7818608E-02  0.8454450E-01
          1   -1    0    0  501    0  0.00000000000E+00  0.00000000000E+00  0.24544587829E+04  0.24544587829E+04  0.00000000000E+00 0. -1.
         -1   -1    0    0    0  501 -0.00000000000E+00 -0.00000000000E+00 -0.56752358704E+03  0.56752358704E+03  0.00000000000E+00 0.  1.
         23    2    1    2    0    0 -0.20973553221E+02  0.35725420739E+03  0.19918121112E+04  0.20255909959E+04  0.87366685114E+02 0.  0.
        254    2    1    2    0    0  0.20973553221E+02 -0.35725420739E+03 -0.10487691533E+03  0.99639137406E+03  0.92397302141E+03 0.  0.
        -24    2    4    4    0    0 -0.36488973237E+03 -0.40991679324E+03 -0.19562842801E+03  0.58879371975E+03  0.85036864924E+02 0.  0.
         24    2    4    4    0    0  0.38586328559E+03  0.52662585844E+02  0.90751512684E+02  0.40759765431E+03  0.78969536082E+02 0.  0.
         11    1    3    3    0    0 -0.23773327817E+02  0.21320874092E+03  0.14088363373E+04  0.14250764764E+04  0.00000000000E+00 0.  1.
        -11    1    3    3    0    0  0.27997745960E+01  0.14404546648E+03  0.58297577384E+03  0.60051451942E+03  0.00000000000E+00 0. -1.
          4    1    6    6  502    0  0.17497404796E+03  0.41957574102E+02  0.59133796377E+01  0.18003145154E+03  0.00000000000E+00 0. -1.
          3    1    5    5  503    0 -0.30306873505E+03 -0.33889225744E+03 -0.12628518008E+03  0.47185439176E+03  0.00000000000E+00 0. -1.
         -4    1    5    5    0  503 -0.61820997325E+02 -0.71024535796E+02 -0.69343247935E+02  0.11693932798E+03  0.00000000000E+00 0.  1.
         -3    1    6    6    0  502  0.21088923763E+03  0.10705011742E+02  0.84838133047E+02  0.22756620277E+03  0.00000000000E+00 0.  1.
<mgrwt>
<rscale>  0 0.23604773E+04</rscale>
<asrwt>0</asrwt>
<pdfrwt beam="1">  1        1 0.37760904E+00 0.23604773E+04</pdfrwt>
<pdfrwt beam="2">  1       -1 0.87311323E-01 0.23604773E+04</pdfrwt>
<totfact> 0.16912544E+00</totfact>
</mgrwt>
</event>
<event>
12    1  0.1397649E-007  0.1230587E+04  0.7818608E-02  0.9086497E-01
         -2   -1    0    0    0  501 -0.00000000000E+00  0.00000000000E+00  0.11218328917E+03  0.11218328917E+03  0.00000000000E+00 0.  1.
          2   -1    0    0  501    0  0.00000000000E+00 -0.00000000000E+00 -0.33747106566E+04  0.33747106566E+04  0.00000000000E+00 0. -1.
         23    2    1    2    0    0  0.31465815636E+02  0.18227709612E+03 -0.15176610550E+04  0.15316146856E+04  0.91287621908E+02 0.  0.
        254    2    1    2    0    0 -0.31465815636E+02 -0.18227709612E+03 -0.17448663125E+04  0.19552792602E+04  0.86275344087E+03 0.  0.
        -24    2    4    4    0    0  0.13837226320E+03  0.22060198300E+03 -0.12934989710E+04  0.13217481319E+04  0.77887214290E+02 0.  0.
         24    2    4    4    0    0 -0.16983807884E+03 -0.40287907913E+03 -0.45136734152E+03  0.63353112834E+03  0.80453018362E+02 0.  0.
         13    1    3    3    0    0  0.60046686381E+02  0.13554906577E+03 -0.12178902578E+04  0.12268805295E+04  0.00000000000E+00 0. -1.
        -13    1    3    3    0    0 -0.28580870745E+02  0.46728030354E+02 -0.29977079723E+03  0.30473415605E+03  0.00000000000E+00 0.  1.
          4    1    6    6  502    0 -0.90207033946E+02 -0.29079115849E+03 -0.27825339005E+03  0.41245818685E+03  0.00000000000E+00 0. -1.
          1    1    5    5  503    0  0.62199445791E+02  0.97726620734E+02 -0.76953465936E+03  0.77820489295E+03  0.00000000000E+00 0. -1.
         -2    1    5    5    0  503  0.76172817413E+02  0.12287536227E+03 -0.52396431161E+03  0.54354323895E+03  0.00000000000E+00 0.  1.
         -3    1    6    6    0  502 -0.79631044894E+02 -0.11208792064E+03 -0.17311395148E+03  0.22107294149E+03  0.00000000000E+00 0.  1.
<mgrwt>
<rscale>  0 0.12305871E+04</rscale>
<asrwt>0</asrwt>
<pdfrwt beam="1">  1        2 0.51918616E+00 0.12305871E+04</pdfrwt>
<pdfrwt beam="2">  1       -2 0.17258971E-01 0.12305871E+04</pdfrwt>
<totfact> 0.27568113E+01</totfact>
</mgrwt>
</event>
<event>
12    1  0.1588649E-007  0.1504574E+04  0.7818608E-02  0.8881417E-01
          2   -1    0    0  501    0  0.00000000000E+00  0.00000000000E+00  0.17042902227E+04  0.17042902227E+04  0.00000000000E+00 0. -1.
         -2   -1    0    0    0  501 -0.00000000000E+00 -0.00000000000E+00 -0.33206517540E+03  0.33206517540E+03  0.00000000000E+00 0.  1.
         23    2    1    2    0    0 -0.13576863900E+03 -0.16011887011E+03 -0.13729093123E+03  0.26621359871E+03  0.89161115078E+02 0.  0.
        254    2    1    2    0    0  0.13576863900E+03  0.16011887011E+03  0.15095159786E+04  0.17701417994E+04  0.90038454266E+03 0.  0.
        -24    2    4    4    0    0  0.97739750067E+01 -0.14121338614E+02  0.15358411835E+04  0.15384100142E+04  0.87191101510E+02 0.  0.
         24    2    4    4    0    0  0.12599466399E+03  0.17424020872E+03 -0.26325204896E+02  0.23173178523E+03  0.82293974170E+02 0.  0.
         13    1    3    3    0    0 -0.18514215752E+01 -0.12947865303E+02 -0.45017961285E+02  0.46879545817E+02  0.00000000000E+00 0. -1.
        -13    1    3    3    0    0 -0.13391721742E+03 -0.14717100480E+03 -0.92272969942E+02  0.21933405289E+03  0.00000000000E+00 0.  1.
          2    1    6    6  502    0  0.13096978040E+03  0.14058548833E+03 -0.37812475582E+02  0.19582427382E+03  0.00000000000E+00 0. -1.
          3    1    5    5  503    0 -0.19951212465E+02 -0.32094520232E+02  0.12336909750E+04  0.12342696346E+04  0.00000000000E+00 0. -1.
         -4    1    5    5    0  503  0.29725187472E+02  0.17973181618E+02  0.30215020845E+03  0.30414037959E+03  0.00000000000E+00 0.  1.
         -1    1    6    6    0  502 -0.49751164127E+01  0.33654720392E+02  0.11487270686E+02  0.35907511412E+02  0.00000000000E+00 0.  1.
<mgrwt>
<rscale>  0 0.15045736E+04</rscale>
<asrwt>0</asrwt>
<pdfrwt beam="1">  1        2 0.26219849E+00 0.15045736E+04</pdfrwt>
<pdfrwt beam="2">  1       -2 0.51086951E-01 0.15045736E+04</pdfrwt>
<totfact> 0.34108514E+01</totfact>
</mgrwt>
</event>
<event>
12    1  0.1397649E-007  0.1076035E+04  0.7818608E-02  0.9228869E-01
         -2   -1    0    0    0  501 -0.00000000000E+00  0.00000000000E+00  0.83964208834E+02  0.83964208834E+02  0.00000000000E+00 0. -1.
          2   -1    0    0  501    0  0.00000000000E+00 -0.00000000000E+00 -0.34474578239E+04  0.34474578239E+04  0.00000000000E+00 0.  1.
         23    2    1    2    0    0  0.10460249521E+03  0.84327443811E+02 -0.53854733068E+03  0.56266732909E+03  0.92241509421E+02 0.  0.
        254    2    1    2    0    0 -0.10460249521E+03 -0.84327443811E+02 -0.28249462844E+04  0.29687547036E+04  0.90284560194E+03 0.  0.
        -24    2    4    4    0    0  0.11272706358E+03 -0.35106838645E+03 -0.55193923340E+03  0.66867896196E+03  0.80859346853E+02 0.  0.
         24    2    4    4    0    0 -0.21732955879E+03  0.26674094264E+03 -0.22730070510E+04  0.23000757417E+04  0.73515277506E+02 0.  0.
         13    1    3    3    0    0  0.53403313009E+02  0.18785591771E+02 -0.88911468718E+02  0.10540427680E+03  0.00000000000E+00 0.  1.
        -13    1    3    3    0    0  0.51199182204E+02  0.65541852040E+02 -0.44963586196E+03  0.45726305229E+03  0.00000000000E+00 0. -1.
          4    1    6    6  502    0 -0.21089428152E+03  0.26445876234E+03 -0.21112615770E+04  0.21381862130E+04  0.00000000000E+00 0. -1.
          1    1    5    5  503    0  0.41855546264E+02 -0.25134798826E+03 -0.35952075093E+03  0.44066185257E+03  0.00000000000E+00 0. -1.
         -2    1    5    5    0  503  0.70871517312E+02 -0.99720398194E+02 -0.19241848246E+03  0.22801710939E+03  0.00000000000E+00 0.  1.
         -3    1    6    6    0  502 -0.64352772636E+01  0.22821803032E+01 -0.16174547398E+03  0.16188952867E+03  0.00000000000E+00 0.  1.
<mgrwt>
<rscale>  0 0.10760354E+04</rscale>
<asrwt>0</asrwt>
<pdfrwt beam="1">  1        2 0.53037800E+00 0.10760354E+04</pdfrwt>
<pdfrwt beam="2">  1       -2 0.12917574E-01 0.10760354E+04</pdfrwt>
<totfact> 0.40980034E+01</totfact>
</mgrwt>
</event>
<event>
12    1  0.1397649E-007  0.1762867E+04  0.7818608E-02  0.8726299E-01
          1   -1    0    0  501    0  0.00000000000E+00  0.00000000000E+00  0.83903342564E+03  0.83903342564E+03  0.00000000000E+00 0. -1.
         -1   -1    0    0    0  501 -0.00000000000E+00 -0.00000000000E+00 -0.92597658739E+03  0.92597658739E+03  0.00000000000E+00 0.  1.
         23    2    1    2    0    0  0.73620353296E+01  0.48741623471E+03 -0.45893679369E+03  0.67549903010E+03  0.89706040163E+02 0.  0.
        254    2    1    2    0    0 -0.73620353296E+01 -0.48741623471E+03  0.37199363194E+03  0.10895109829E+04  0.90056989418E+03 0.  0.
        -24    2    4    4    0    0  0.25498754849E+03  0.72012980997E+02 -0.11438914599E+03  0.29886906404E+03  0.77674457850E+02 0.  0.
         24    2    4    4    0    0 -0.26234958382E+03 -0.55942921570E+03  0.48638277793E+03  0.79064191889E+03  0.82207577029E+02 0.  0.
         13    1    3    3    0    0 -0.27766459730E+02  0.64598415817E+02 -0.81475399906E+02  0.10762050177E+03  0.00000000000E+00 0. -1.
        -13    1    3    3    0    0  0.35128495060E+02  0.42281781889E+03 -0.37746139378E+03  0.56787852832E+03  0.00000000000E+00 0.  1.
          2    1    6    6  502    0 -0.25291458971E+03 -0.55914680937E+03  0.48137247097E+03  0.77995538330E+03  0.00000000000E+00 0. -1.
          1    1    5    5  503    0  0.19374587276E+03  0.21162888218E+02 -0.66282538360E+02  0.20586088978E+03  0.00000000000E+00 0. -1.
         -2    1    5    5    0  503  0.61241675737E+02  0.50850092779E+02 -0.48106607629E+02  0.93008174266E+02  0.00000000000E+00 0.  1.
         -1    1    6    6    0  502 -0.94349941073E+01 -0.28240633166E+00  0.50103069538E+01  0.10686535590E+02  0.00000000000E+00 0.  1.
<mgrwt>
<rscale>  0 0.17628673E+04</rscale>
<asrwt>0</asrwt>
<pdfrwt beam="1">  1        1 0.12908207E+00 0.17628673E+04</pdfrwt>
<pdfrwt beam="2">  1       -1 0.14245793E+00 0.17628673E+04</pdfrwt>
<totfact> 0.77562852E+00</totfact>
</mgrwt>
</event>
<event>
12    1  0.1397649E-007  0.2323590E+04  0.7818608E-02  0.8468678E-01
          1   -1    0    0  501    0  0.00000000000E+00  0.00000000000E+00  0.67220845260E+03  0.67220845260E+03  0.00000000000E+00 0. -1.
         -1   -1    0    0    0  501 -0.00000000000E+00 -0.00000000000E+00 -0.20079600231E+04  0.20079600231E+04  0.00000000000E+00 0.  1.
         23    2    1    2    0    0 -0.44683024142E+02  0.45419291047E+03  0.43666161928E+03  0.63841091893E+03  0.92775854040E+02 0.  0.
        254    2    1    2    0    0  0.44683024142E+02 -0.45419291047E+03 -0.17724131897E+04  0.20417575567E+04  0.90500697940E+03 0.  0.
        -24    2    4    4    0    0 -0.29970383118E+03 -0.54804257015E+03 -0.12981228415E+04  0.14427226141E+04  0.78438412535E+02 0.  0.
         24    2    4    4    0    0  0.34438685532E+03  0.93849659685E+02 -0.47429034823E+03  0.59903494260E+03  0.80507535642E+02 0.  0.
         11    1    3    3    0    0 -0.32796084079E+02  0.43384758883E+03  0.38237989525E+03  0.57923544242E+03  0.00000000000E+00 0. -1.
        -11    1    3    3    0    0 -0.11886940063E+02  0.20345321639E+02  0.54281724033E+02  0.59175476514E+02  0.00000000000E+00 0.  1.
          2    1    6    6  502    0 -0.39645244716E+01 -0.41690990885E+00 -0.11495221555E+02  0.12166814980E+02  0.00000000000E+00 0. -1.
          1    1    5    5  503    0 -0.66000608693E+02 -0.90404510932E+02 -0.29768076568E+03  0.31802970648E+03  0.00000000000E+00 0. -1.
         -2    1    5    5    0  503 -0.23370322249E+03 -0.45763805922E+03 -0.10004420758E+04  0.11246929077E+04  0.00000000000E+00 0.  1.
         -1    1    6    6    0  502  0.34835137979E+03  0.94266569593E+02 -0.46279512667E+03  0.58686812762E+03  0.00000000000E+00 0.  1.
<mgrwt>
<rscale>  0 0.23235901E+04</rscale>
<asrwt>0</asrwt>
<pdfrwt beam="1">  1        1 0.10341668E+00 0.23235901E+04</pdfrwt>
<pdfrwt beam="2">  1       -1 0.30891693E+00 0.23235901E+04</pdfrwt>
<totfact> 0.75539928E-01</totfact>
</mgrwt>
</event>
<event>
12    1  0.1397649E-007  0.4249950E+04  0.7818608E-02  0.7955938E-01
          2   -1    0    0  501    0  0.00000000000E+00  0.00000000000E+00  0.43498237923E+04  0.43498237923E+04  0.00000000000E+00 0. -1.
         -2   -1    0    0    0  501 -0.00000000000E+00 -0.00000000000E+00 -0.10380921838E+04  0.10380921838E+04  0.00000000000E+00 0.  1.
         23    2    1    2    0    0 -0.25340984538E+03  0.13219222639E+04 -0.34118459161E+03  0.13915018523E+04  0.90418238173E+02 0.  0.
        254    2    1    2    0    0  0.25340984538E+03 -0.13219222639E+04  0.36529162001E+04  0.39964141239E+04  0.90323533073E+03 0.  0.
        -24    2    4    4    0    0 -0.27080420069E+03 -0.15896573390E+03  0.10104007039E+04  0.10610094958E+04  0.78908479288E+02 0.  0.
         24    2    4    4    0    0  0.52421404607E+03 -0.11629565300E+04  0.26425154963E+04  0.29354046281E+04  0.80274066515E+02 0.  0.
         11    1    3    3    0    0 -0.77397501912E+02  0.47065846430E+03 -0.78404461097E+02  0.48338082589E+03  0.00000000000E+00 0. -1.
        -11    1    3    3    0    0 -0.17601234347E+03  0.85126379960E+03 -0.26278013051E+03  0.90812102638E+03  0.00000000000E+00 0.  1.
          4    1    6    6  502    0  0.49443797400E+03 -0.10389690948E+04  0.23723100473E+04  0.26366229633E+04  0.00000000000E+00 0. -1.
          1    1    5    5  503    0 -0.20050333581E+03 -0.76070331100E+02  0.70132100141E+03  0.73337536771E+03  0.00000000000E+00 0. -1.
         -2    1    5    5    0  503 -0.70300864881E+02 -0.82895402799E+02  0.30907970246E+03  0.32763412807E+03  0.00000000000E+00 0.  1.
         -3    1    6    6    0  502  0.29776072075E+02 -0.12398743516E+03  0.27020544904E+03  0.29878166483E+03  0.00000000000E+00 0.  1.
<mgrwt>
<rscale>  0 0.42499497E+04</rscale>
<asrwt>0</asrwt>
<pdfrwt beam="1">  1        2 0.66920365E+00 0.42499497E+04</pdfrwt>
<pdfrwt beam="2">  1       -2 0.15970649E+00 0.42499497E+04</pdfrwt>
<totfact> 0.33226084E-02</totfact>
</mgrwt>
</event>
<event>
12    1  0.1397649E-007  0.1752142E+04  0.7818608E-02  0.8732172E-01
          1   -1    0    0  501    0  0.00000000000E+00  0.00000000000E+00  0.18287748592E+04  0.18287748592E+04  0.00000000000E+00 0. -1.
         -1   -1    0    0    0  501 -0.00000000000E+00 -0.00000000000E+00 -0.41968008279E+03  0.41968008279E+03  0.00000000000E+00 0.  1.
         23    2    1    2    0    0  0.28144722053E+03 -0.47726898831E+03  0.92252695976E+03  0.10805801129E+04  0.97975321961E+02 0.  0.
        254    2    1    2    0    0 -0.28144722053E+03  0.47726898831E+03  0.48656781664E+03  0.11678748291E+04  0.90564074065E+03 0.  0.
        -24    2    4    4    0    0 -0.84772079708E+02  0.65539549962E+03  0.73534922881E+02  0.66993528668E+03  0.81708855279E+02 0.  0.
         24    2    4    4    0    0 -0.19667514082E+03 -0.17812651131E+03  0.41303289376E+03  0.49793954242E+03  0.83291365304E+02 0.  0.
         13    1    3    3    0    0  0.51367512442E+02 -0.12555905279E+03  0.15886830509E+03  0.20890867726E+03  0.00000000000E+00 0.  1.
        -13    1    3    3    0    0  0.23007970809E+03 -0.35170993551E+03  0.76365865467E+03  0.87167143561E+03  0.00000000000E+00 0. -1.
          2    1    6    6  502    0 -0.18450150757E+03 -0.16538942065E+03  0.41138749570E+03  0.48024383222E+03  0.00000000000E+00 0. -1.
          1    1    5    5  503    0 -0.74430517203E+02  0.41757135289E+03  0.13195492630E+02  0.42435817144E+03  0.00000000000E+00 0. -1.
         -2    1    5    5    0  503 -0.10341562505E+02  0.23782414673E+03  0.60339430252E+02  0.24557711523E+03  0.00000000000E+00 0.  1.
         -3    1    6    6    0  502 -0.12173633250E+02 -0.12737090661E+02  0.16453980528E+01  0.17695710208E+02  0.00000000000E+00 0.  1.
<mgrwt>
<rscale>  0 0.17521420E+04</rscale>
<asrwt>0</asrwt>
<pdfrwt beam="1">  1        1 0.28134997E+00 0.17521420E+04</pdfrwt>
<pdfrwt beam="2">  1       -1 0.64566167E-01 0.17521420E+04</pdfrwt>
<totfact> 0.89752900E+00</totfact>
</mgrwt>
</event>
<event>
12    1  0.1397649E-007  0.1405067E+04  0.7818608E-02  0.8950159E-01
          2   -1    0    0  501    0  0.00000000000E+00  0.00000000000E+00  0.10168290880E+04  0.10168290880E+04  0.00000000000E+00 0. -1.
         -2   -1    0    0    0  501 -0.00000000000E+00 -0.00000000000E+00 -0.48538485894E+03  0.48538485894E+03  0.00000000000E+00 0.  1.
         23    2    1    2    0    0 -0.19987729488E+03 -0.78698920913E+02 -0.20878160489E+03  0.31813040639E+03  0.10711089473E+03 0.  0.
        254    2    1    2    0    0  0.19987729488E+03  0.78698920913E+02  0.74022583390E+03  0.11840835405E+04  0.89887434747E+03 0.  0.
        -24    2    4    4    0    0  0.31774870978E+03  0.33202990609E+03  0.94141663885E+02  0.47570019561E+03  0.78866482873E+02 0.  0.
         24    2    4    4    0    0 -0.11787141490E+03 -0.25333098518E+03  0.64608417002E+03  0.70838334489E+03  0.79447781990E+02 0.  0.
         11    1    3    3    0    0 -0.18461911292E+03 -0.65623426463E+02 -0.12601661972E+03  0.23296102551E+03  0.00000000000E+00 0.  1.
        -11    1    3    3    0    0 -0.15258181955E+02 -0.13075494450E+02 -0.82764985162E+02  0.85169380886E+02  0.00000000000E+00 0. -1.
          4    1    6    6  502    0 -0.71910710332E+02 -0.12681992202E+03  0.24255227320E+03  0.28299478461E+03  0.00000000000E+00 0. -1.
          3    1    5    5  503    0  0.15391423643E+02  0.19031285866E+02  0.25120935257E+02  0.35073453661E+02  0.00000000000E+00 0. -1.
         -4    1    5    5    0  503  0.30235728613E+03  0.31299862022E+03  0.69020728628E+02  0.44062674195E+03  0.00000000000E+00 0.  1.
         -3    1    6    6    0  502 -0.45960704568E+02 -0.12651106316E+03  0.40353189681E+03  0.42538856027E+03  0.00000000000E+00 0.  1.
<mgrwt>
<rscale>  0 0.14050672E+04</rscale>
<asrwt>0</asrwt>
<pdfrwt beam="1">  1        2 0.15643524E+00 0.14050672E+04</pdfrwt>
<pdfrwt beam="2">  1       -2 0.74674594E-01 0.14050672E+04</pdfrwt>
<totfact> 0.38552172E+01</totfact>
</mgrwt>
</event>
<event>
12    1  0.1501983E-007  0.2330770E+04  0.7818608E-02  0.8465887E-01
          2   -1    0    0  501    0  0.00000000000E+00  0.00000000000E+00  0.95626009552E+03  0.95626009552E+03  0.00000000000E+00 0.  1.
         -2   -1    0    0    0  501 -0.00000000000E+00 -0.00000000000E+00 -0.14202441047E+04  0.14202441047E+04  0.00000000000E+00 0. -1.
         23    2    1    2    0    0  0.57267140864E+03 -0.46286797978E+03 -0.88575467904E+03  0.11554914434E+04  0.91650507227E+02 0.  0.
        254    2    1    2    0    0 -0.57267140864E+03  0.46286797978E+03  0.42177066983E+03  0.12210127568E+04  0.87794210819E+03 0.  0.
        -24    2    4    4    0    0 -0.72570210592E+03  0.11582419709E+03  0.37940446659E+03  0.83083524731E+03  0.79250663901E+02 0.  0.
         24    2    4    4    0    0  0.15303069729E+03  0.34704378268E+03  0.42366203240E+02  0.39017750948E+03  0.81153017903E+02 0.  0.
         13    1    3    3    0    0  0.50277936734E+03 -0.36994653474E+03 -0.71835403079E+03  0.95167223577E+03  0.00000000000E+00 0. -1.
        -13    1    3    3    0    0  0.69892041299E+02 -0.92921445034E+02 -0.16740064825E+03  0.20381920768E+03  0.00000000000E+00 0.  1.
          2    1    6    6  502    0  0.39367125516E+01  0.91786433548E+01 -0.13378077912E+02  0.16694854542E+02  0.00000000000E+00 0. -1.
          1    1    5    5  503    0 -0.17014258538E+02  0.86750868393E+01 -0.15156308519E+01  0.19158268767E+02  0.00000000000E+00 0. -1.
         -2    1    5    5    0  503 -0.70868784738E+03  0.10714911025E+03  0.38092009745E+03  0.81167697854E+03  0.00000000000E+00 0.  1.
         -1    1    6    6    0  502  0.14909398473E+03  0.33786513933E+03  0.55744281151E+02  0.37348265494E+03  0.00000000000E+00 0.  1.
<mgrwt>
<rscale>  0 0.23307705E+04</rscale>
<asrwt>0</asrwt>
<pdfrwt beam="1">  1        2 0.14711694E+00 0.23307705E+04</pdfrwt>
<pdfrwt beam="2">  1       -2 0.21849909E+00 0.23307705E+04</pdfrwt>
<totfact> 0.24564567E+00</totfact>
</mgrwt>
</event>
<event>
12    1  0.1397649E-007  0.1072779E+04  0.7818608E-02  0.9232137E-01
         -2   -1    0    0    0  501 -0.00000000000E+00  0.00000000000E+00  0.10119272620E+03  0.10119272620E+03  0.00000000000E+00 0.  1.
          2   -1    0    0  501    0  0.00000000000E+00 -0.00000000000E+00 -0.28432252552E+04  0.28432252552E+04  0.00000000000E+00 0. -1.
         23    2    1    2    0    0  0.56651885341E+02 -0.11401993849E+03 -0.33064494751E+03  0.36640489320E+03  0.93362101322E+02 0.  0.
        254    2    1    2    0    0 -0.56651885341E+02  0.11401993849E+03 -0.24113875815E+04  0.25780130882E+04  0.90285737092E+03 0.  0.
        -24    2    4    4    0    0 -0.24762724666E+03  0.19253591816E+03 -0.23122912508E+04  0.23348985767E+04  0.81677424593E+02 0.  0.
         24    2    4    4    0    0  0.19097536132E+03 -0.78515979670E+02 -0.99096330679E+02  0.24311451152E+03  0.81536711132E+02 0.  0.
         11    1    3    3    0    0 -0.14575608579E+01 -0.97058325895E+02 -0.19294799959E+03  0.21598929060E+03  0.00000000000E+00 0. -1.
        -11    1    3    3    0    0  0.58109446199E+02 -0.16961612598E+02 -0.13769694792E+03  0.15041560260E+03  0.00000000000E+00 0.  1.
          2    1    6    6  502    0  0.14591148974E+03 -0.78070743519E+02 -0.42664468232E+02  0.17089605227E+03  0.00000000000E+00 0. -1.
          3    1    5    5  503    0 -0.20335933214E+03  0.15137772279E+03 -0.20562554098E+04  0.20718244480E+04  0.00000000000E+00 0. -1.
         -4    1    5    5    0  503 -0.44267914525E+02  0.41158195371E+02 -0.25603584099E+03  0.26307412866E+03  0.00000000000E+00 0.  1.
         -3    1    6    6    0  502  0.45063871575E+02 -0.44523615069E+00 -0.56431862447E+02  0.72218459246E+02  0.00000000000E+00 0.  1.
<mgrwt>
<rscale>  0 0.10727790E+04</rscale>
<asrwt>0</asrwt>
<pdfrwt beam="1">  1        2 0.43741931E+00 0.10727790E+04</pdfrwt>
<pdfrwt beam="2">  1       -2 0.15568110E-01 0.10727790E+04</pdfrwt>
<totfact> 0.72544781E+01</totfact>
</mgrwt>
</event>
<event>
12    1  0.1397649E-007  0.1278895E+04  0.7818608E-02  0.9046471E-01
         -2   -1    0    0    0  501 -0.00000000000E+00  0.00000000000E+00  0.33037181626E+03  0.33037181626E+03  0.00000000000E+00 0.  1.
          2   -1    0    0  501    0  0.00000000000E+00 -0.00000000000E+00 -0.12376747923E+04  0.12376747923E+04  0.00000000000E+00 0. -1.
         23    2    1    2    0    0 -0.46112646507E+02 -0.19225457774E+03  0.67462595142E+02  0.22725892298E+03  0.89483057059E+02 0.  0.
        254    2    1    2    0    0  0.46112646507E+02  0.19225457774E+03 -0.97476557119E+03  0.13407876856E+04  0.89914153514E+03 0.  0.
        -24    2    4    4    0    0  0.40829353065E+03  0.44636604158E+02 -0.18979732572E+03  0.46031733272E+03  0.84693496500E+02 0.  0.
         24    2    4    4    0    0 -0.36218088414E+03  0.14761797359E+03 -0.78496824547E+03  0.88047035287E+03  0.78018183317E+02 0.  0.
         11    1    3    3    0    0 -0.56908941592E+02 -0.10625843294E+03  0.72113640874E+02  0.14046301792E+03  0.00000000000E+00 0.  1.
        -11    1    3    3    0    0  0.10796295085E+02 -0.85996144804E+02 -0.46510457319E+01  0.86795905060E+02  0.00000000000E+00 0. -1.
          2    1    6    6  502    0 -0.28208336154E+03  0.78277071970E+02 -0.58616325102E+03  0.65519896192E+03  0.00000000000E+00 0. -1.
          1    1    5    5  503    0  0.40607290401E+03  0.53849081205E+02 -0.18783217277E+03  0.45063938138E+03  0.00000000000E+00 0. -1.
         -2    1    5    5    0  503  0.22206266320E+01 -0.92124770467E+01 -0.19651529501E+01  0.96779513375E+01  0.00000000000E+00 0.  1.
         -1    1    6    6    0  502 -0.80097522605E+02  0.69340901616E+02 -0.19880499445E+03  0.22527139095E+03  0.00000000000E+00 0.  1.
<mgrwt>
<rscale>  0 0.12788946E+04</rscale>
<asrwt>0</asrwt>
<pdfrwt beam="1">  1        2 0.19041150E+00 0.12788946E+04</pdfrwt>
<pdfrwt beam="2">  1       -2 0.50826434E-01 0.12788946E+04</pdfrwt>
<totfact> 0.64594818E+01</totfact>
</mgrwt>
</event>
<event>
12    1  0.1397649E-007  0.1309409E+04  0.7818608E-02  0.9022137E-01
         -2   -1    0    0    0  501 -0.00000000000E+00  0.00000000000E+00  0.35374470698E+03  0.35374470698E+03  0.00000000000E+00 0.  1.
          2   -1    0    0  501    0  0.00000000000E+00 -0.00000000000E+00 -0.12117161978E+04  0.12117161978E+04  0.00000000000E+00 0. -1.
         23    2    1    2    0    0 -0.22268043351E+03 -0.17814597884E+03  0.12539306358E+02  0.29683421331E+03  0.81429421836E+02 0.  0.
        254    2    1    2    0    0  0.22268043351E+03  0.17814597884E+03 -0.87051079717E+03  0.12686266915E+04  0.87766854169E+03 0.  0.
        -24    2    4    4    0    0  0.20464346279E+03 -0.26037337133E+03 -0.72241905917E+03  0.79855895294E+03  0.78318994517E+02 0.  0.
         24    2    4    4    0    0  0.18036970721E+02  0.43851935017E+03 -0.14809173799E+03  0.47006773853E+03  0.80049754286E+02 0.  0.
         11    1    3    3    0    0 -0.15859503003E+03 -0.98261118440E+02  0.39989661382E+02  0.19080567068E+03  0.00000000000E+00 0.  1.
        -11    1    3    3    0    0 -0.64085403486E+02 -0.79884860398E+02 -0.27450355024E+02  0.10602854263E+03  0.00000000000E+00 0. -1.
          2    1    6    6  502    0 -0.72114257831E+01  0.24857758595E+03 -0.45813607785E+02  0.25286697601E+03  0.00000000000E+00 0. -1.
          3    1    5    5  503    0  0.12779677984E+03 -0.13270198853E+03 -0.47827139448E+03  0.51252840065E+03  0.00000000000E+00 0. -1.
         -4    1    5    5    0  503  0.76846682954E+02 -0.12767138280E+03 -0.24414766469E+03  0.28603055228E+03  0.00000000000E+00 0.  1.
         -1    1    6    6    0  502  0.25248396504E+02  0.18994176421E+03 -0.10227813021E+03  0.21720076252E+03  0.00000000000E+00 0.  1.
<mgrwt>
<rscale>  0 0.13094093E+04</rscale>
<asrwt>0</asrwt>
<pdfrwt beam="1">  1        2 0.18641788E+00 0.13094093E+04</pdfrwt>
<pdfrwt beam="2">  1       -2 0.54422263E-01 0.13094093E+04</pdfrwt>
<totfact> 0.58011954E+01</totfact>
</mgrwt>
</event>
<event>
12    1  0.1397649E-007  0.1662261E+04  0.7818608E-02  0.8783186E-01
         -2   -1    0    0    0  501 -0.00000000000E+00  0.00000000000E+00  0.67989592743E+03  0.67989592743E+03  0.00000000000E+00 0. -1.
          2   -1    0    0  501    0  0.00000000000E+00 -0.00000000000E+00 -0.10160050321E+04  0.10160050321E+04  0.00000000000E+00 0.  1.
         23    2    1    2    0    0 -0.20784565280E+03 -0.30751096102E+03 -0.59535092602E+03  0.70707321513E+03  0.88017043244E+02 0.  0.
        254    2    1    2    0    0  0.20784565280E+03  0.30751096102E+03  0.25924182134E+03  0.98882774441E+03  0.87909679765E+03 0.  0.
        -24    2    4    4    0    0 -0.36413181600E+02  0.20496056661E+03 -0.29449775480E+03  0.37003591855E+03  0.82842620538E+02 0.  0.
         24    2    4    4    0    0  0.24425883440E+03  0.10255039441E+03  0.55373957614E+03  0.61879182585E+03  0.78082289852E+02 0.  0.
         13    1    3    3    0    0 -0.68469500870E+02 -0.16910070091E+03 -0.24569305842E+03  0.30601993163E+03  0.00000000000E+00 0.  1.
        -13    1    3    3    0    0 -0.13937615193E+03 -0.13841026011E+03 -0.34965786760E+03  0.40105328350E+03  0.00000000000E+00 0. -1.
          2    1    6    6  502    0  0.97212192507E+02  0.37486650723E+02  0.30775837743E+03  0.32491641731E+03  0.00000000000E+00 0. -1.
          3    1    5    5  503    0  0.42696582203E+01  0.65957958580E+02 -0.40129403023E+02  0.77324325205E+02  0.00000000000E+00 0. -1.
         -4    1    5    5    0  503 -0.40682839820E+02  0.13900260803E+03 -0.25436835178E+03  0.29271159335E+03  0.00000000000E+00 0.  1.
         -1    1    6    6    0  502  0.14704664189E+03  0.65063743685E+02  0.24598119870E+03  0.29387540855E+03  0.00000000000E+00 0.  1.
<mgrwt>
<rscale>  0 0.16622607E+04</rscale>
<asrwt>0</asrwt>
<pdfrwt beam="1">  1        2 0.15630847E+00 0.16622607E+04</pdfrwt>
<pdfrwt beam="2">  1       -2 0.10459937E+00 0.16622607E+04</pdfrwt>
<totfact> 0.17419742E+01</totfact>
</mgrwt>
</event>
<event>
12    1  0.1397649E-007  0.1765694E+04  0.7818608E-02  0.8724759E-01
          2   -1    0    0  501    0  0.00000000000E+00  0.00000000000E+00  0.63691188509E+03  0.63691188509E+03  0.00000000000E+00 0. -1.
         -2   -1    0    0    0  501 -0.00000000000E+00 -0.00000000000E+00 -0.12237466004E+04  0.12237466004E+04  0.00000000000E+00 0.  1.
         23    2    1    2    0    0 -0.58954791162E+03 -0.26472730436E+03 -0.19020385667E+03  0.68015371770E+03  0.93724526368E+02 0.  0.
        254    2    1    2    0    0  0.58954791162E+03  0.26472730436E+03 -0.39663085867E+03  0.11805047678E+04  0.90478073752E+03 0.  0.
        -24    2    4    4    0    0  0.65497049989E+03 -0.15676641326E+03 -0.24251181616E+03  0.72010612645E+03  0.78605269015E+02 0.  0.
         24    2    4    4    0    0 -0.65422588267E+02  0.42149371763E+03 -0.15411904251E+03  0.46039864136E+03  0.79228534298E+02 0.  0.
         13    1    3    3    0    0 -0.44114604058E+03 -0.24000149021E+03 -0.15586687406E+03  0.52583745288E+03  0.00000000000E+00 0.  1.
        -13    1    3    3    0    0 -0.14840187105E+03 -0.24725814149E+02 -0.34336982611E+02  0.15431626483E+03  0.00000000000E+00 0. -1.
          4    1    6    6  502    0 -0.85966193603E+01  0.46515458905E+02 -0.46110985665E+02  0.66059161216E+02  0.00000000000E+00 0. -1.
          1    1    5    5  503    0  0.50289493034E+03 -0.12231156493E+03 -0.22074289263E+03  0.56266406898E+03  0.00000000000E+00 0. -1.
         -2    1    5    5    0  503  0.15207556954E+03 -0.34454848336E+02 -0.21768923532E+02  0.15744205746E+03  0.00000000000E+00 0.  1.
         -3    1    6    6    0  502 -0.56825968907E+02  0.37497825872E+03 -0.10800805685E+03  0.39433948014E+03  0.00000000000E+00 0.  1.
<mgrwt>
<rscale>  0 0.17656939E+04</rscale>
<asrwt>0</asrwt>
<pdfrwt beam="1">  1        2 0.97986445E-01 0.17656939E+04</pdfrwt>
<pdfrwt beam="2">  1       -2 0.18826871E+00 0.17656939E+04</pdfrwt>
<totfact> 0.69434968E+00</totfact>
</mgrwt>
</event>
<event>
12    1  0.1397649E-007  0.1426097E+04  0.7818608E-02  0.8935142E-01
          2   -1    0    0  501    0  0.00000000000E+00  0.00000000000E+00  0.41472065720E+03  0.41472065720E+03  0.00000000000E+00 0.  1.
         -2   -1    0    0    0  501 -0.00000000000E+00 -0.00000000000E+00 -0.12259769433E+04  0.12259769433E+04  0.00000000000E+00 0. -1.
         23    2    1    2    0    0 -0.30456420569E+03  0.20920412327E+03 -0.45386788483E+03  0.59264640679E+03  0.93316590265E+02 0.  0.
        254    2    1    2    0    0  0.30456420569E+03 -0.20920412327E+03 -0.35738840122E+03  0.10480511937E+04  0.91332311623E+03 0.  0.
        -24    2    4    4    0    0 -0.30124959591E+03 -0.31030153077E+02 -0.25433899375E+03  0.40314076487E+03  0.78230193153E+02 0.  0.
         24    2    4    4    0    0  0.60581380160E+03 -0.17817397019E+03 -0.10304940748E+03  0.64491042880E+03  0.80832882770E+02 0.  0.
         11    1    3    3    0    0 -0.14734791037E+03  0.85005324430E+02 -0.27870656852E+03  0.32651900895E+03  0.00000000000E+00 0. -1.
        -11    1    3    3    0    0 -0.15721629531E+03  0.12419879884E+03 -0.17516131631E+03  0.26612739783E+03  0.00000000000E+00 0.  1.
          4    1    6    6  502    0  0.43969462243E+03 -0.94859433727E+02 -0.56644559023E+02  0.45336329718E+03  0.00000000000E+00 0. -1.
          3    1    5    5  503    0 -0.15897375547E+03 -0.48750219347E+02 -0.16475216046E+03  0.23407800664E+03  0.00000000000E+00 0. -1.
         -4    1    5    5    0  503 -0.14227584044E+03  0.17720066270E+02 -0.89586833283E+02  0.16906275823E+03  0.00000000000E+00 0.  1.
         -3    1    6    6    0  502  0.16611917917E+03 -0.83314536466E+02 -0.46404848454E+02  0.19154713163E+03  0.00000000000E+00 0.  1.
<mgrwt>
<rscale>  0 0.14260967E+04</rscale>
<asrwt>0</asrwt>
<pdfrwt beam="1">  1        2 0.63803178E-01 0.14260967E+04</pdfrwt>
<pdfrwt beam="2">  1       -2 0.18861184E+00 0.14260967E+04</pdfrwt>
<totfact> 0.11730466E+01</totfact>
</mgrwt>
</event>
<event>
12    1  0.1397649E-007  0.2184053E+04  0.7818608E-02  0.8525095E-01
         -2   -1    0    0    0  501 -0.00000000000E+00  0.00000000000E+00  0.71581134789E+03  0.71581134789E+03  0.00000000000E+00 0.  1.
          2   -1    0    0  501    0  0.00000000000E+00 -0.00000000000E+00 -0.16659716348E+04  0.16659716348E+04  0.00000000000E+00 0. -1.
         23    2    1    2    0    0 -0.26034414713E+03  0.84532100748E+03 -0.61357235019E+03  0.10801663248E+04  0.89115541414E+02 0.  0.
        254    2    1    2    0    0  0.26034414713E+03 -0.84532100748E+03 -0.33658793668E+03  0.13016166578E+04  0.89362621057E+03 0.  0.
        -24    2    4    4    0    0  0.15281068008E+03 -0.26023547008E+03  0.29522468698E+03  0.42954085304E+03  0.79209373130E+02 0.  0.
         24    2    4    4    0    0  0.10753346704E+03 -0.58508553740E+03 -0.63181262365E+03  0.87207580480E+03  0.86258247728E+02 0.  0.
         13    1    3    3    0    0 -0.13278302883E+03  0.32078933637E+03 -0.20530954193E+03  0.40334741734E+03  0.00000000000E+00 0. -1.
        -13    1    3    3    0    0 -0.12756111830E+03  0.52453167111E+03 -0.40826280827E+03  0.67681890748E+03  0.00000000000E+00 0.  1.
          4    1    6    6  502    0  0.20811322683E+02 -0.20702250310E+03 -0.27660931826E+03  0.34612735068E+03  0.00000000000E+00 0. -1.
          1    1    5    5  503    0  0.19762745743E+02 -0.81341798383E+02  0.47420838389E+02  0.96207017400E+02  0.00000000000E+00 0. -1.
         -2    1    5    5    0  503  0.13304793434E+03 -0.17889367170E+03  0.24780384859E+03  0.33333383564E+03  0.00000000000E+00 0.  1.
         -3    1    6    6    0  502  0.86722144362E+02 -0.37806303430E+03 -0.35520330539E+03  0.52594845412E+03  0.00000000000E+00 0.  1.
<mgrwt>
<rscale>  0 0.21840526E+04</rscale>
<asrwt>0</asrwt>
<pdfrwt beam="1">  1        2 0.25630333E+00 0.21840526E+04</pdfrwt>
<pdfrwt beam="2">  1       -2 0.11012482E+00 0.21840526E+04</pdfrwt>
<totfact> 0.61439639E+00</totfact>
</mgrwt>
</event>
<event>
12    1  0.1397649E-007  0.2079824E+04  0.7818608E-02  0.8570184E-01
          1   -1    0    0  501    0  0.00000000000E+00  0.00000000000E+00  0.98039172636E+03  0.98039172636E+03  0.00000000000E+00 0.  1.
         -1   -1    0    0    0  501 -0.00000000000E+00 -0.00000000000E+00 -0.11030453817E+04  0.11030453817E+04  0.00000000000E+00 0. -1.
         23    2    1    2    0    0 -0.62708467671E+03 -0.89275274188E+02  0.50270251138E+03  0.81376508872E+03  0.91096313441E+02 0.  0.
        254    2    1    2    0    0  0.62708467671E+03  0.89275274188E+02 -0.62535616675E+03  0.12696720194E+04  0.90542334581E+03 0.  0.
        -24    2    4    4    0    0  0.69502904618E+03 -0.20588758877E+03 -0.22883064941E+03  0.76429534403E+03  0.79553960007E+02 0.  0.
         24    2    4    4    0    0 -0.67944369463E+02  0.29516286296E+03 -0.39652551734E+03  0.50537667535E+03  0.80221849096E+02 0.  0.
         13    1    3    3    0    0 -0.36282582261E+02 -0.21073713687E+01  0.60858398934E+02  0.70884494147E+02  0.00000000000E+00 0. -1.
        -13    1    3    3    0    0 -0.59080209445E+03 -0.87167902819E+02  0.44184411245E+03  0.74288059458E+03  0.00000000000E+00 0.  1.
          4    1    6    6  502    0 -0.43816132997E+02  0.17131139323E+03 -0.16578191823E+03  0.24238624420E+03  0.00000000000E+00 0. -1.
          3    1    5    5  503    0  0.55984806471E+03 -0.15536344567E+03 -0.15089171977E+03  0.60027990713E+03  0.00000000000E+00 0. -1.
         -4    1    5    5    0  503  0.13518098147E+03 -0.50524143102E+02 -0.77938929646E+02  0.16401543690E+03  0.00000000000E+00 0.  1.
         -3    1    6    6    0  502 -0.24128236466E+02  0.12385146972E+03 -0.23074359911E+03  0.26299043115E+03  0.00000000000E+00 0.  1.
<mgrwt>
<rscale>  0 0.20798236E+04</rscale>
<asrwt>0</asrwt>
<pdfrwt beam="1">  1        1 0.15082950E+00 0.20798236E+04</pdfrwt>
<pdfrwt beam="2">  1       -1 0.16969929E+00 0.20798236E+04</pdfrwt>
<totfact> 0.35723231E+00</totfact>
</mgrwt>
</event>
<event>
12    1  0.1397649E-007  0.1420995E+04  0.7818608E-02  0.8938760E-01
         -2   -1    0    0    0  501 -0.00000000000E+00  0.00000000000E+00  0.16215398781E+03  0.16215398781E+03  0.00000000000E+00 0.  1.
          2   -1    0    0  501    0  0.00000000000E+00 -0.00000000000E+00 -0.31131301514E+04  0.31131301514E+04  0.00000000000E+00 0. -1.
         23    2    1    2    0    0 -0.39058823416E+03  0.13755010064E+03 -0.90386989132E+03  0.99852600581E+03  0.92704935054E+02 0.  0.
        254    2    1    2    0    0  0.39058823416E+03 -0.13755010064E+03 -0.20471062723E+04  0.22767581334E+04  0.90636874903E+03 0.  0.
        -24    2    4    4    0    0 -0.17288137863E+03 -0.30576489968E+02 -0.13784611749E+04  0.13918137179E+04  0.78532299156E+02 0.  0.
         24    2    4    4    0    0  0.56346961279E+03 -0.10697361067E+03 -0.66864509744E+03  0.88494441550E+03  0.84255529654E+02 0.  0.
         11    1    3    3    0    0 -0.32798940678E+03  0.11411858964E+03 -0.66159703763E+03  0.74720194303E+03  0.00000000000E+00 0.  1.
        -11    1    3    3    0    0 -0.62598827386E+02  0.23431511003E+02 -0.24227285369E+03  0.25132406278E+03  0.00000000000E+00 0. -1.
          4    1    6    6  502    0  0.42029800024E+03 -0.76326240678E+02 -0.43851494367E+03  0.61218580500E+03  0.00000000000E+00 0. -1.
          1    1    5    5  503    0 -0.14421402901E+03  0.77155999506E+01 -0.10519199309E+04  0.10617875294E+04  0.00000000000E+00 0. -1.
         -2    1    5    5    0  503 -0.28667349618E+02 -0.38292089918E+02 -0.32654124398E+03  0.33002618851E+03  0.00000000000E+00 0.  1.
         -3    1    6    6    0  502  0.14317161255E+03 -0.30647369995E+02 -0.23013015377E+03  0.27275861050E+03  0.00000000000E+00 0.  1.
<mgrwt>
<rscale>  0 0.14209947E+04</rscale>
<asrwt>0</asrwt>
<pdfrwt beam="1">  1        2 0.47894304E+00 0.14209947E+04</pdfrwt>
<pdfrwt beam="2">  1       -2 0.24946771E-01 0.14209947E+04</pdfrwt>
<totfact> 0.20871477E+01</totfact>
</mgrwt>
</event>
<event>
12    1  0.1397649E-007  0.1417759E+04  0.7818608E-02  0.8941063E-01
         -2   -1    0    0    0  501 -0.00000000000E+00  0.00000000000E+00  0.10277580685E+04  0.10277580685E+04  0.00000000000E+00 0.  1.
          2   -1    0    0  501    0  0.00000000000E+00 -0.00000000000E+00 -0.48893810681E+03  0.48893810681E+03  0.00000000000E+00 0. -1.
         23    2    1    2    0    0  0.35915484053E+03  0.69070974545E+02  0.18580434901E+03  0.42023301043E+03  0.91156612182E+02 0.  0.
        254    2    1    2    0    0 -0.35915484053E+03 -0.69070974545E+02  0.35301561268E+03  0.10964631649E+04  0.97151863087E+03 0.  0.
        -24    2    4    4    0    0 -0.16317148218E+03 -0.24487395278E+03 -0.27491668420E+03  0.41048606372E+03  0.79570345698E+02 0.  0.
         24    2    4    4    0    0 -0.19598335835E+03  0.17580297823E+03  0.62793229687E+03  0.68597710115E+03  0.83363360847E+02 0.  0.
         11    1    3    3    0    0  0.18875458915E+03  0.29943603587E+02  0.46509587520E+02  0.19669279613E+03  0.00000000000E+00 0.  1.
        -11    1    3    3    0    0  0.17040025138E+03  0.39127370958E+02  0.13929476149E+03  0.22354021430E+03  0.00000000000E+00 0. -1.
          4    1    6    6  502    0 -0.82294451615E+02  0.54496203530E+02  0.14651077284E+03  0.17665678454E+03  0.00000000000E+00 0. -1.
          1    1    5    5  503    0 -0.64373285500E+02 -0.36782553417E+02 -0.75315360735E+02  0.10568481293E+03  0.00000000000E+00 0. -1.
         -2    1    5    5    0  503 -0.98798196681E+02 -0.20809139936E+03 -0.19960132346E+03  0.30480125079E+03  0.00000000000E+00 0.  1.
         -3    1    6    6    0  502 -0.11368890674E+03  0.12130677470E+03  0.48142152403E+03  0.50932031660E+03  0.00000000000E+00 0.  1.
<mgrwt>
<rscale>  0 0.14177589E+04</rscale>
<asrwt>0</asrwt>
<pdfrwt beam="1">  1        2 0.75221248E-01 0.14177589E+04</pdfrwt>
<pdfrwt beam="2">  1       -2 0.15811663E+00 0.14177589E+04</pdfrwt>
<totfact> 0.15965884E+01</totfact>
</mgrwt>
</event>
<event>
12    1  0.1397649E-007  0.1918637E+04  0.7818608E-02  0.8645635E-01
          2   -1    0    0  501    0  0.00000000000E+00  0.00000000000E+00  0.19693669055E+04  0.19693669055E+04  0.00000000000E+00 0. -1.
         -2   -1    0    0    0  501 -0.00000000000E+00 -0.00000000000E+00 -0.46730347025E+03  0.46730347025E+03  0.00000000000E+00 0.  1.
         23    2    1    2    0    0 -0.68938593704E+03  0.22858636084E+03  0.37141018841E+03  0.82080284353E+03  0.90923513666E+02 0.  0.
        254    2    1    2    0    0  0.68938593704E+03 -0.22858636084E+03  0.11306532468E+04  0.16158675322E+04  0.89729951666E+03 0.  0.
        -24    2    4    4    0    0 -0.17252548392E+03 -0.20509709002E+02  0.19399507433E+02  0.19200754062E+03  0.79403173728E+02 0.  0.
         24    2    4    4    0    0  0.86191142096E+03 -0.20807665184E+03  0.11112537394E+04  0.14238599916E+04  0.79405363565E+02 0.  0.
         11    1    3    3    0    0 -0.18785971320E+03  0.83246600372E+02  0.14599829370E+03  0.25206501161E+03  0.00000000000E+00 0. -1.
        -11    1    3    3    0    0 -0.50152622384E+03  0.14533976047E+03  0.22541189471E+03  0.56873783191E+03  0.00000000000E+00 0.  1.
          4    1    6    6  502    0  0.79019635617E+03 -0.21054951892E+03  0.10055145222E+04  0.12960713081E+04  0.00000000000E+00 0. -1.
          3    1    5    5  503    0 -0.12198622721E+03 -0.16414564999E+02  0.49922489426E+02  0.13282444250E+03  0.00000000000E+00 0. -1.
         -4    1    5    5    0  503 -0.50539256709E+02 -0.40951440025E+01 -0.30522981993E+02  0.59183098119E+02  0.00000000000E+00 0.  1.
         -3    1    6    6    0  502  0.71715064787E+02  0.24728670864E+01  0.10573921722E+03  0.12778868357E+03  0.00000000000E+00 0.  1.
<mgrwt>
<rscale>  0 0.19186370E+04</rscale>
<asrwt>0</asrwt>
<pdfrwt beam="1">  1        2 0.30297952E+00 0.19186370E+04</pdfrwt>
<pdfrwt beam="2">  1       -2 0.71892843E-01 0.19186370E+04</pdfrwt>
<totfact> 0.11392076E+01</totfact>
</mgrwt>
</event>
<event>
12    1  0.1397649E-007  0.2951148E+04  0.7818608E-02  0.8257820E-01
         -2   -1    0    0    0  501 -0.00000000000E+00  0.00000000000E+00  0.15273449642E+04  0.15273449642E+04  0.00000000000E+00 0.  1.
          2   -1    0    0  501    0  0.00000000000E+00 -0.00000000000E+00 -0.14255582553E+04  0.14255582553E+04  0.00000000000E+00 0. -1.
         23    2    1    2    0    0  0.84744432580E+03  0.34779450704E+03  0.10215925783E+04  0.13752327784E+04  0.92146048506E+02 0.  0.
        254    2    1    2    0    0 -0.84744432580E+03 -0.34779450704E+03 -0.91980586941E+03  0.15776704412E+04  0.89659259371E+03 0.  0.
        -24    2    4    4    0    0 -0.33137933049E+03 -0.25999389283E+03  0.89592244659E+02  0.43781314612E+03  0.79022121128E+02 0.  0.
         24    2    4    4    0    0 -0.51606499531E+03 -0.87800614207E+02 -0.10093981141E+04  0.11398572951E+04  0.79737526717E+02 0.  0.
         13    1    3    3    0    0  0.21461502320E+02  0.22940475993E+02  0.21400731054E+02  0.38011219532E+02  0.00000000000E+00 0. -1.
        -13    1    3    3    0    0  0.82598282348E+03  0.32485403104E+03  0.10001918472E+04  0.13372215588E+04  0.00000000000E+00 0.  1.
          2    1    6    6  502    0 -0.39479280250E+03 -0.97710852484E+02 -0.74431721294E+03  0.84818446171E+03  0.00000000000E+00 0. -1.
          3    1    5    5  503    0 -0.12403441856E+03 -0.91465571344E+02  0.71824059659E+02  0.17002700749E+03  0.00000000000E+00 0. -1.
         -4    1    5    5    0  503 -0.20734491193E+03 -0.16852832149E+03  0.17768185000E+02  0.26778613863E+03  0.00000000000E+00 0.  1.
         -1    1    6    6    0  502 -0.12127219281E+03  0.99102382770E+01 -0.26508090113E+03  0.29167283335E+03  0.00000000000E+00 0.  1.
<mgrwt>
<rscale>  0 0.29511484E+04</rscale>
<asrwt>0</asrwt>
<pdfrwt beam="1">  1        2 0.21931666E+00 0.29511484E+04</pdfrwt>
<pdfrwt beam="2">  1       -2 0.23497615E+00 0.29511484E+04</pdfrwt>
<totfact> 0.95717275E-01</totfact>
</mgrwt>
</event>
<event>
12    1  0.1397649E-007  0.1981670E+04  0.7818608E-02  0.8615239E-01
         -2   -1    0    0    0  501 -0.00000000000E+00  0.00000000000E+00  0.34658384472E+03  0.34658384472E+03  0.00000000000E+00 0.  1.
          2   -1    0    0  501    0  0.00000000000E+00 -0.00000000000E+00 -0.28326582033E+04  0.28326582033E+04  0.00000000000E+00 0. -1.
         23    2    1    2    0    0 -0.76550762437E+02 -0.29837601690E+03  0.16276691102E+03  0.36014590043E+03  0.91234508738E+02 0.  0.
        254    2    1    2    0    0  0.76550762437E+02  0.29837601690E+03 -0.26488412696E+04  0.28190961476E+04  0.91436029614E+03 0.  0.
        -24    2    4    4    0    0  0.47770432920E+03  0.17422561520E+03 -0.17480529264E+04  0.18222679575E+04  0.80096717556E+02 0.  0.
         24    2    4    4    0    0 -0.40115356676E+03  0.12415040170E+03 -0.90078834319E+03  0.99682819012E+03  0.76871939199E+02 0.  0.
         13    1    3    3    0    0 -0.59277199481E+02 -0.12410548335E+03  0.30999427646E+02  0.14098553788E+03  0.00000000000E+00 0.  1.
        -13    1    3    3    0    0 -0.17273562955E+02 -0.17427053355E+03  0.13176748338E+03  0.21916036256E+03  0.00000000000E+00 0. -1.
          4    1    6    6  502    0 -0.23374490202E+03  0.88668152890E+02 -0.61280050620E+03  0.66183319723E+03  0.00000000000E+00 0. -1.
          1    1    5    5  503    0  0.36443789168E+03  0.12409374017E+03 -0.11937406881E+04  0.12542850807E+04  0.00000000000E+00 0. -1.
         -2    1    5    5    0  503  0.11326643752E+03  0.50131875028E+02 -0.55431223834E+03  0.56798287680E+03  0.00000000000E+00 0.  1.
         -3    1    6    6    0  502 -0.16740866474E+03  0.35482248807E+02 -0.28798783698E+03  0.33499499289E+03  0.00000000000E+00 0.  1.
<mgrwt>
<rscale>  0 0.19816696E+04</rscale>
<asrwt>0</asrwt>
<pdfrwt beam="1">  1        2 0.43579358E+00 0.19816696E+04</pdfrwt>
<pdfrwt beam="2">  1       -2 0.53320590E-01 0.19816696E+04</pdfrwt>
<totfact> 0.68271348E+00</totfact>
</mgrwt>
</event>
<event>
12    1  0.1397649E-007  0.1346719E+04  0.7818608E-02  0.8993316E-01
         -2   -1    0    0    0  501 -0.00000000000E+00  0.00000000000E+00  0.15767104134E+03  0.15767104134E+03  0.00000000000E+00 0.  1.
          2   -1    0    0  501    0  0.00000000000E+00 -0.00000000000E+00 -0.28756892266E+04  0.28756892266E+04  0.00000000000E+00 0. -1.
         23    2    1    2    0    0 -0.25397881848E+03  0.41630300600E+02 -0.13617550075E+04  0.13888585646E+04  0.91176148792E+02 0.  0.
        254    2    1    2    0    0  0.25397881848E+03 -0.41630300600E+02 -0.13562631778E+04  0.16445017033E+04  0.89369889924E+03 0.  0.
        -24    2    4    4    0    0 -0.22670918174E+03  0.23510212917E+03 -0.31398754650E+03  0.46111955385E+03  0.85866171263E+02 0.  0.
         24    2    4    4    0    0  0.48068800022E+03 -0.27673242977E+03 -0.10422756313E+04  0.11833821495E+04  0.80081388278E+02 0.  0.
         13    1    3    3    0    0 -0.10281769499E+03  0.59681720391E+02 -0.51666105666E+03  0.53016227103E+03  0.00000000000E+00 0.  1.
        -13    1    3    3    0    0 -0.15116112349E+03 -0.18051419791E+02 -0.84509395079E+03  0.85869629362E+03  0.00000000000E+00 0. -1.
          2    1    6    6  502    0  0.46565863346E+03 -0.28207691383E+03 -0.10143644485E+04  0.11512343735E+04  0.00000000000E+00 0. -1.
          1    1    5    5  503    0 -0.16434643721E+03  0.20638477055E+03 -0.21337183202E+03  0.33931101314E+03  0.00000000000E+00 0. -1.
         -2    1    5    5    0  503 -0.62362744536E+02  0.28717358615E+02 -0.10061571447E+03  0.12180854071E+03  0.00000000000E+00 0.  1.
         -1    1    6    6    0  502  0.15029366760E+02  0.53444840678E+01 -0.27911182836E+02  0.32147776012E+02  0.00000000000E+00 0.  1.
<mgrwt>
<rscale>  0 0.13467188E+04</rscale>
<asrwt>0</asrwt>
<pdfrwt beam="1">  1        2 0.44241369E+00 0.13467188E+04</pdfrwt>
<pdfrwt beam="2">  1       -2 0.24257085E-01 0.13467188E+04</pdfrwt>
<totfact> 0.31046473E+01</totfact>
</mgrwt>
</event>
<event>
12    1  0.1397649E-007  0.1918247E+04  0.7818608E-02  0.8645827E-01
          1   -1    0    0  501    0  0.00000000000E+00  0.00000000000E+00  0.31557782292E+04  0.31557782292E+04  0.00000000000E+00 0. -1.
         -1   -1    0    0    0  501 -0.00000000000E+00 -0.00000000000E+00 -0.29150257843E+03  0.29150257843E+03  0.00000000000E+00 0.  1.
         23    2    1    2    0    0  0.34848085474E+03  0.24825424280E+03  0.66009394831E+02  0.44281716524E+03  0.93063023967E+02 0.  0.
        254    2    1    2    0    0 -0.34848085474E+03 -0.24825424280E+03  0.27982662560E+04  0.30044636424E+04  0.10066969078E+04 0.  0.
        -24    2    4    4    0    0 -0.38947173693E+03 -0.22128317879E+03  0.40322598792E+03  0.60762334080E+03  0.77203936858E+02 0.  0.
         24    2    4    4    0    0  0.40990882186E+02 -0.26971064012E+02  0.23950402681E+04  0.23968403016E+04  0.78853377692E+02 0.  0.
         11    1    3    3    0    0  0.14170097468E+03  0.80530998556E+02 -0.17142249440E+02  0.16388491288E+03  0.00000000000E+00 0. -1.
        -11    1    3    3    0    0  0.20677988006E+03  0.16772324425E+03  0.83151644271E+02  0.27893225235E+03  0.00000000000E+00 0.  1.
          4    1    6    6  502    0  0.36730895443E+02 -0.31389942720E+02  0.65147745390E+03  0.65326668377E+03  0.00000000000E+00 0. -1.
          3    1    5    5  503    0 -0.24409630417E+03 -0.95871636084E+02  0.22175013200E+03  0.34343485170E+03  0.00000000000E+00 0. -1.
         -4    1    5    5    0  503 -0.14537543276E+03 -0.12541154271E+03  0.18147585592E+03  0.26418848910E+03  0.00000000000E+00 0.  1.
         -3    1    6    6    0  502  0.42599867432E+01  0.44188787079E+01  0.17435628142E+04  0.17435736179E+04  0.00000000000E+00 0.  1.
<mgrwt>
<rscale>  0 0.19182466E+04</rscale>
<asrwt>0</asrwt>
<pdfrwt beam="1">  1        1 0.48550432E+00 0.19182466E+04</pdfrwt>
<pdfrwt beam="2">  1       -1 0.44846553E-01 0.19182466E+04</pdfrwt>
<totfact> 0.21187220E+00</totfact>
</mgrwt>
</event>
<event>
12    1  0.1397649E-007  0.1233663E+04  0.7818608E-02  0.9083891E-01
          2   -1    0    0  501    0  0.00000000000E+00  0.00000000000E+00  0.31109195593E+04  0.31109195593E+04  0.00000000000E+00 0. -1.
         -2   -1    0    0    0  501 -0.00000000000E+00 -0.00000000000E+00 -0.12230506534E+03  0.12230506534E+03  0.00000000000E+00 0.  1.
         23    2    1    2    0    0 -0.20274863814E+02  0.21082550780E+03  0.28747458048E+03  0.36806176383E+03  0.89271287253E+02 0.  0.
        254    2    1    2    0    0  0.20274863814E+02 -0.21082550780E+03  0.27011399135E+04  0.28651628608E+04  0.93174187519E+03 0.  0.
        -24    2    4    4    0    0  0.13319797539E+03  0.31133396329E+03  0.16210102969E+04  0.16575724147E+04  0.72120661048E+02 0.  0.
         24    2    4    4    0    0 -0.11292311158E+03 -0.52215947109E+03  0.10801296166E+04  0.12075904462E+04  0.78692787006E+02 0.  0.
         11    1    3    3    0    0  0.29227396506E+01  0.48444759279E+02  0.13746737686E+03  0.14578311565E+03  0.00000000000E+00 0. -1.
        -11    1    3    3    0    0 -0.23197603464E+02  0.16238074852E+03  0.15000720362E+03  0.22227864818E+03  0.00000000000E+00 0.  1.
          2    1    6    6  502    0 -0.10362194407E+03 -0.50913165425E+03  0.10674041046E+04  0.11871411336E+04  0.00000000000E+00 0. -1.
          1    1    5    5  503    0  0.11004544227E+03  0.27867022941E+03  0.15130106737E+04  0.15423904807E+04  0.00000000000E+00 0. -1.
         -2    1    5    5    0  503  0.23152533121E+02  0.32663733881E+02  0.10799962323E+03  0.11518193399E+03  0.00000000000E+00 0.  1.
         -1    1    6    6    0  502 -0.93011675115E+01 -0.13027816839E+02  0.12725511986E+02  0.20449312555E+02  0.00000000000E+00 0.  1.
<mgrwt>
<rscale>  0 0.12336632E+04</rscale>
<asrwt>0</asrwt>
<pdfrwt beam="1">  1        2 0.47860295E+00 0.12336632E+04</pdfrwt>
<pdfrwt beam="2">  1       -2 0.18816166E-01 0.12336632E+04</pdfrwt>
<totfact> 0.35219838E+01</totfact>
</mgrwt>
</event>
<event>
12    1  0.1397649E-007  0.1331942E+04  0.7818608E-02  0.9004611E-01
          3   -1    0    0  501    0  0.00000000000E+00  0.00000000000E+00  0.33096223573E+03  0.33096223573E+03  0.00000000000E+00 0. -1.
         -3   -1    0    0    0  501 -0.00000000000E+00 -0.00000000000E+00 -0.13400849439E+04  0.13400849439E+04  0.00000000000E+00 0.  1.
         23    2    1    2    0    0  0.30146767924E+03 -0.34809038675E+02 -0.51515883298E+03  0.60495795485E+03  0.92147019199E+02 0.  0.
        254    2    1    2    0    0 -0.30146767924E+03  0.34809038675E+02 -0.49396387519E+03  0.10660892248E+04  0.89467954843E+03 0.  0.
        -24    2    4    4    0    0  0.29408048047E+03  0.71034674561E+02 -0.46815903924E+02  0.31628021045E+03  0.79449283716E+02 0.  0.
         24    2    4    4    0    0 -0.59554815971E+03 -0.36225635887E+02 -0.44714797127E+03  0.74980901432E+03  0.79261229583E+02 0.  0.
         13    1    3    3    0    0  0.18877244106E+03 -0.15977532064E+02 -0.40071581095E+03  0.44324200746E+03  0.00000000000E+00 0.  1.
        -13    1    3    3    0    0  0.11269523818E+03 -0.18831506611E+02 -0.11444302203E+03  0.16171594739E+03  0.00000000000E+00 0. -1.
          2    1    6    6  502    0 -0.19466968138E+03 -0.19071048784E+02 -0.19334491959E+03  0.27503135764E+03  0.00000000000E+00 0. -1.
          1    1    5    5  503    0  0.10039946897E+03  0.35282677054E+01  0.16090699563E+02  0.10174189233E+03  0.00000000000E+00 0. -1.
         -2    1    5    5    0  503  0.19368101150E+03  0.67506406856E+02 -0.62906603488E+02  0.21453831812E+03  0.00000000000E+00 0.  1.
         -1    1    6    6    0  502 -0.40087847832E+03 -0.17154587103E+02 -0.25380305167E+03  0.47477765668E+03  0.00000000000E+00 0.  1.
<mgrwt>
<rscale>  0 0.13319422E+04</rscale>
<asrwt>0</asrwt>
<pdfrwt beam="1">  1        3 0.50917267E-01 0.13319422E+04</pdfrwt>
<pdfrwt beam="2">  1       -3 0.20616692E+00 0.13319422E+04</pdfrwt>
<totfact> 0.13130051E+00</totfact>
</mgrwt>
</event>
<event>
12    1  0.1397649E-007  0.2131353E+04  0.7818608E-02  0.8547556E-01
         -2   -1    0    0    0  501 -0.00000000000E+00  0.00000000000E+00  0.39004989515E+03  0.39004989515E+03  0.00000000000E+00 0.  1.
          2   -1    0    0  501    0  0.00000000000E+00 -0.00000000000E+00 -0.29115935638E+04  0.29115935638E+04  0.00000000000E+00 0. -1.
         23    2    1    2    0    0 -0.21912912570E+03  0.33977765878E+03 -0.22414843405E+04  0.22794719832E+04  0.90961763370E+02 0.  0.
        254    2    1    2    0    0  0.21912912570E+03 -0.33977765878E+03 -0.28005932814E+03  0.10221714757E+04  0.89606632979E+03 0.  0.
        -24    2    4    4    0    0 -0.11799729148E+02 -0.60694658212E+03 -0.24215201192E+03  0.65835226359E+03  0.79162610737E+02 0.  0.
         24    2    4    4    0    0  0.23092885485E+03  0.26716892335E+03 -0.37907316212E+02  0.36381921214E+03  0.78867514805E+02 0.  0.
         11    1    3    3    0    0 -0.17622716375E+03  0.29143013082E+03 -0.20286524242E+04  0.20570411257E+04  0.00000000000E+00 0. -1.
        -11    1    3    3    0    0 -0.42901961958E+02  0.48347527960E+02 -0.21283191626E+03  0.22243085752E+03  0.00000000000E+00 0.  1.
          4    1    6    6  502    0  0.20136125539E+03  0.25887443748E+03 -0.20703940484E+02  0.32861981484E+03  0.00000000000E+00 0. -1.
          1    1    5    5  503    0 -0.19786267015E+02 -0.41940284926E+03 -0.12930214892E+03  0.43932822814E+03  0.00000000000E+00 0. -1.
         -2    1    5    5    0  503  0.79865378669E+01 -0.18754373287E+03 -0.11284986301E+03  0.21902403545E+03  0.00000000000E+00 0.  1.
         -3    1    6    6    0  502  0.29567599460E+02  0.82944858675E+01 -0.17203375728E+02  0.35199397297E+02  0.00000000000E+00 0.  1.
<mgrwt>
<rscale>  0 0.21313533E+04</rscale>
<asrwt>0</asrwt>
<pdfrwt beam="1">  1        2 0.44793746E+00 0.21313533E+04</pdfrwt>
<pdfrwt beam="2">  1       -2 0.60007677E-01 0.21313533E+04</pdfrwt>
<totfact> 0.47095725E+00</totfact>
</mgrwt>
</event>
<event>
12    1  0.1397649E-007  0.1259695E+04  0.7818608E-02  0.9062152E-01
          1   -1    0    0  501    0  0.00000000000E+00  0.00000000000E+00  0.10851822654E+04  0.10851822654E+04  0.00000000000E+00 0. -1.
         -1   -1    0    0    0  501 -0.00000000000E+00 -0.00000000000E+00 -0.36556799450E+03  0.36556799450E+03  0.00000000000E+00 0.  1.
         23    2    1    2    0    0  0.98704513315E+02  0.95338387782E+02 -0.12187666192E+03  0.20527615841E+03  0.91936887892E+02 0.  0.
        254    2    1    2    0    0 -0.98704513315E+02 -0.95338387782E+02  0.84149093284E+03  0.12454741015E+04  0.90789138026E+03 0.  0.
        -24    2    4    4    0    0 -0.35518346254E+03 -0.27003938176E+03  0.13962345590E+03  0.47428100302E+03  0.79819800913E+02 0.  0.
         24    2    4    4    0    0  0.25647894923E+03  0.17470099398E+03  0.70186747693E+03  0.77119309849E+03  0.76282050894E+02 0.  0.
         13    1    3    3    0    0  0.90772541696E+02  0.11310051256E+03 -0.10091093147E+03  0.17667596429E+03  0.00000000000E+00 0.  1.
        -13    1    3    3    0    0  0.79319716187E+01 -0.17762124775E+02 -0.20965730448E+02  0.28600194116E+02  0.00000000000E+00 0. -1.
          2    1    6    6  502    0  0.42350674285E+02  0.67595956715E+02  0.19199944828E+03  0.20791003130E+03  0.00000000000E+00 0. -1.
          3    1    5    5  503    0 -0.19903521406E+03 -0.19573763527E+03  0.69491024794E+02  0.28767558260E+03  0.00000000000E+00 0. -1.
         -4    1    5    5    0  503 -0.15614824849E+03 -0.74301746494E+02  0.70132431106E+02  0.18660542042E+03  0.00000000000E+00 0.  1.
         -1    1    6    6    0  502  0.21412827494E+03  0.10710503726E+03  0.50986802865E+03  0.56328306719E+03  0.00000000000E+00 0.  1.
<mgrwt>
<rscale>  0 0.12596950E+04</rscale>
<asrwt>0</asrwt>
<pdfrwt beam="1">  1        1 0.16695112E+00 0.12596950E+04</pdfrwt>
<pdfrwt beam="2">  1       -1 0.56241231E-01 0.12596950E+04</pdfrwt>
<totfact> 0.41008665E+01</totfact>
</mgrwt>
</event>
<event>
12    1  0.1397649E-007  0.1527619E+04  0.7818608E-02  0.8866291E-01
          2   -1    0    0  501    0  0.00000000000E+00  0.00000000000E+00  0.92221865991E+03  0.92221865991E+03  0.00000000000E+00 0. -1.
         -2   -1    0    0    0  501 -0.00000000000E+00 -0.00000000000E+00 -0.63261030126E+03  0.63261030126E+03  0.00000000000E+00 0.  1.
         23    2    1    2    0    0  0.39074016645E+03  0.42503848433E+02 -0.21743085134E+03  0.45837478617E+03  0.91360903426E+02 0.  0.
        254    2    1    2    0    0 -0.39074016645E+03 -0.42503848433E+02  0.50703920999E+03  0.10964541750E+04  0.88917857746E+03 0.  0.
        -24    2    4    4    0    0 -0.53590286453E+03 -0.23933013453E+03  0.79642517388E+02  0.59743381687E+03  0.78188499518E+02 0.  0.
         24    2    4    4    0    0  0.14516269808E+03  0.19682628610E+03  0.42739669260E+03  0.49902035814E+03  0.80873909131E+02 0.  0.
         13    1    3    3    0    0  0.15981195756E+03  0.16768376478E+02 -0.38848007674E+02  0.16531850449E+03  0.00000000000E+00 0.  1.
        -13    1    3    3    0    0  0.23092820889E+03  0.25735471955E+02 -0.17858284366E+03  0.29305628167E+03  0.00000000000E+00 0. -1.
          4    1    6    6  502    0  0.14108478890E+03  0.13493327082E+03  0.33504586502E+03  0.38777266136E+03  0.00000000000E+00 0. -1.
          3    1    5    5  503    0 -0.27580501811E+03 -0.81639310319E+02  0.48228046481E+02  0.29164932619E+03  0.00000000000E+00 0. -1.
         -4    1    5    5    0  503 -0.26009784642E+03 -0.15769082421E+03  0.31414470907E+02  0.30578449067E+03  0.00000000000E+00 0.  1.
         -3    1    6    6    0  502  0.40779091835E+01  0.61893015277E+02  0.92350827580E+02  0.11124769678E+03  0.00000000000E+00 0.  1.
<mgrwt>
<rscale>  0 0.15276191E+04</rscale>
<asrwt>0</asrwt>
<pdfrwt beam="1">  1        2 0.14187979E+00 0.15276191E+04</pdfrwt>
<pdfrwt beam="2">  1       -2 0.97324662E-01 0.15276191E+04</pdfrwt>
<totfact> 0.24058812E+01</totfact>
</mgrwt>
</event>
<event>
12    1  0.1780408E-007  0.2806835E+04  0.7818608E-02  0.8301150E-01
          1   -1    0    0  501    0  0.00000000000E+00  0.00000000000E+00  0.23536118924E+04  0.23536118924E+04  0.00000000000E+00 0. -1.
         -1   -1    0    0    0  501 -0.00000000000E+00 -0.00000000000E+00 -0.83683296122E+03  0.83683296122E+03  0.00000000000E+00 0.  1.
         23    2    1    2    0    0 -0.75545963685E+03  0.80425653024E+03 -0.82534730447E+01  0.11073258927E+04  0.92491531885E+02 0.  0.
        254    2    1    2    0    0  0.75545963685E+03 -0.80425653024E+03  0.15250324042E+04  0.20831189609E+04  0.89225161364E+03 0.  0.
        -24    2    4    4    0    0 -0.82932674398E+02  0.87716857617E+02  0.37394162597E+03  0.40087164137E+03  0.79332576074E+02 0.  0.
         24    2    4    4    0    0  0.83839231124E+03 -0.89197338786E+03  0.11510907782E+04  0.16822473195E+04  0.80174011581E+02 0.  0.
         11    1    3    3    0    0 -0.60195696447E+03  0.62700656553E+03 -0.43173099171E+02  0.87026049938E+03  0.00000000000E+00 0. -1.
        -11    1    3    3    0    0 -0.15350267237E+03  0.17724996472E+03  0.34919626126E+02  0.23706539331E+03  0.00000000000E+00 0.  1.
          4    1    6    6  502    0  0.30906154249E+03 -0.30666552491E+03  0.36151960922E+03  0.56591448918E+03  0.00000000000E+00 0. -1.
          3    1    5    5  503    0 -0.47424106380E+01  0.54489365975E+01  0.14655659917E+03  0.14673451580E+03  0.00000000000E+00 0. -1.
         -4    1    5    5    0  503 -0.78190263760E+02  0.82267921020E+02  0.22738502681E+03  0.25413712557E+03  0.00000000000E+00 0.  1.
         -3    1    6    6    0  502  0.52933076875E+03 -0.58530786295E+03  0.78957116901E+03  0.11163328303E+04  0.00000000000E+00 0.  1.
<mgrwt>
<rscale>  0 0.28068345E+04</rscale>
<asrwt>0</asrwt>
<pdfrwt beam="1">  1        1 0.36209413E+00 0.28068345E+04</pdfrwt>
<pdfrwt beam="2">  1       -1 0.12874353E+00 0.28068345E+04</pdfrwt>
<totfact> 0.76866965E-01</totfact>
</mgrwt>
</event>
<event>
12    1  0.1397649E-007  0.1318992E+04  0.7818608E-02  0.9014638E-01
          2   -1    0    0  501    0  0.00000000000E+00  0.00000000000E+00  0.19785877015E+04  0.19785877015E+04  0.00000000000E+00 0. -1.
         -2   -1    0    0    0  501 -0.00000000000E+00 -0.00000000000E+00 -0.21982103963E+03  0.21982103963E+03  0.00000000000E+00 0.  1.
         23    2    1    2    0    0 -0.17008121606E+03 -0.26578344826E+03  0.70764204104E+03  0.78031204106E+03  0.92526546153E+02 0.  0.
        254    2    1    2    0    0  0.17008121606E+03  0.26578344826E+03  0.10511246208E+04  0.14180967000E+04  0.89809065289E+03 0.  0.
        -24    2    4    4    0    0  0.18117153996E+03  0.58757611169E+03  0.69675806583E+03  0.93288724888E+03  0.82085339169E+02 0.  0.
         24    2    4    4    0    0 -0.11090323896E+02 -0.32179266344E+03  0.35436655496E+03  0.48520945115E+03  0.78606887048E+02 0.  0.
         13    1    3    3    0    0 -0.17888226942E+02 -0.94534149885E+02  0.16032206832E+03  0.18697555922E+03  0.00000000000E+00 0.  1.
        -13    1    3    3    0    0 -0.15219298912E+03 -0.17124929837E+03  0.54731997273E+03  0.59333648183E+03  0.00000000000E+00 0. -1.
          4    1    6    6  502    0  0.10191157377E+00 -0.95390830051E+00  0.25883932799E+02  0.25901704657E+02  0.00000000000E+00 0. -1.
          3    1    5    5  503    0  0.80171039632E+01  0.51755938449E+01  0.26781710149E+02  0.28430981800E+02  0.00000000000E+00 0. -1.
         -4    1    5    5    0  503  0.17315443599E+03  0.58240051785E+03  0.66997635568E+03  0.90445626708E+03  0.00000000000E+00 0.  1.
         -3    1    6    6    0  502 -0.11192235470E+02 -0.32083875513E+03  0.32848262216E+03  0.45930774649E+03  0.00000000000E+00 0.  1.
<mgrwt>
<rscale>  0 0.13189924E+04</rscale>
<asrwt>0</asrwt>
<pdfrwt beam="1">  1        2 0.30439810E+00 0.13189924E+04</pdfrwt>
<pdfrwt beam="2">  1       -2 0.33818623E-01 0.13189924E+04</pdfrwt>
<totfact> 0.55027955E+01</totfact>
</mgrwt>
</event>
<event>
12    1  0.1397649E-007  0.1130962E+04  0.7818608E-02  0.9175529E-01
          2   -1    0    0  501    0  0.00000000000E+00  0.00000000000E+00  0.19858378494E+04  0.19858378494E+04  0.00000000000E+00 0. -1.
         -2   -1    0    0    0  501 -0.00000000000E+00 -0.00000000000E+00 -0.16102463408E+03  0.16102463408E+03  0.00000000000E+00 0.  1.
         23    2    1    2    0    0 -0.15190785047E+03  0.22667685517E+02  0.54873863694E+03  0.57713855955E+03  0.91569679742E+02 0.  0.
        254    2    1    2    0    0  0.15190785047E+03 -0.22667685517E+02  0.12760745784E+04  0.15697239239E+04  0.90115317718E+03 0.  0.
        -24    2    4    4    0    0 -0.10309886898E+03 -0.17639455755E+01  0.12950379079E+04  0.13016031866E+04  0.80094844876E+02 0.  0.
         24    2    4    4    0    0  0.25500671945E+03 -0.20903739941E+02 -0.18963329531E+02  0.26812073732E+03  0.77869946743E+02 0.  0.
         11    1    3    3    0    0 -0.36877777843E+02  0.43240179050E+02  0.24955099913E+03  0.25594019760E+03  0.00000000000E+00 0.  1.
        -11    1    3    3    0    0 -0.11503007262E+03 -0.20572493534E+02  0.29918763781E+03  0.32119836195E+03  0.00000000000E+00 0. -1.
          2    1    6    6  502    0  0.63489912283E+02  0.24284474242E+02  0.11684441889E+02  0.68972681790E+02  0.00000000000E+00 0. -1.
          3    1    5    5  503    0 -0.21595512812E+02 -0.29926900958E+02  0.21644613438E+03  0.21956984006E+03  0.00000000000E+00 0. -1.
         -4    1    5    5    0  503 -0.81503356167E+02  0.28162955382E+02  0.10785917735E+04  0.10820333465E+04  0.00000000000E+00 0.  1.
         -1    1    6    6    0  502  0.19151680716E+03 -0.45188214184E+02 -0.30647771420E+02  0.19914805553E+03  0.00000000000E+00 0.  1.
<mgrwt>
<rscale>  0 0.11309621E+04</rscale>
<asrwt>0</asrwt>
<pdfrwt beam="1">  1        2 0.30551350E+00 0.11309621E+04</pdfrwt>
<pdfrwt beam="2">  1       -2 0.24773022E-01 0.11309621E+04</pdfrwt>
<totfact> 0.98516037E+01</totfact>
</mgrwt>
</event>
<event>
12    1  0.1397649E-007  0.4199963E+04  0.7818608E-02  0.7965379E-01
          2   -1    0    0  501    0  0.00000000000E+00  0.00000000000E+00  0.28820026255E+04  0.28820026255E+04  0.00000000000E+00 0. -1.
         -2   -1    0    0    0  501 -0.00000000000E+00 -0.00000000000E+00 -0.15301589031E+04  0.15301589031E+04  0.00000000000E+00 0.  1.
         23    2    1    2    0    0 -0.19936751463E+04 -0.15154555046E+03  0.76370194630E+03  0.21418022929E+04  0.79810754105E+02 0.  0.
        254    2    1    2    0    0  0.19936751463E+04  0.15154555046E+03  0.58814177614E+03  0.22703592356E+04  0.90050744986E+03 0.  0.
        -24    2    4    4    0    0  0.16430389193E+04 -0.23372546973E+03  0.50681863073E+03  0.17370442044E+04  0.79075647052E+02 0.  0.
         24    2    4    4    0    0  0.35063622697E+03  0.38527102019E+03  0.81323145406E+02  0.53331503126E+03  0.80199413484E+02 0.  0.
         13    1    3    3    0    0 -0.14592565938E+04 -0.11847497028E+03  0.59588888902E+03  0.15806801363E+04  0.00000000000E+00 0. -1.
        -13    1    3    3    0    0 -0.53441855246E+03 -0.33070580186E+02  0.16781305728E+03  0.56112215665E+03  0.00000000000E+00 0.  1.
          2    1    6    6  502    0  0.69545286094E+02  0.11063832243E+03  0.46844721116E+02  0.13882295597E+03  0.00000000000E+00 0. -1.
          3    1    5    5  503    0  0.14371876096E+02  0.17177154895E+01  0.11595527535E+02  0.18546094679E+02  0.00000000000E+00 0. -1.
         -4    1    5    5    0  503  0.16286670432E+04 -0.23544318522E+03  0.49522310320E+03  0.17184981097E+04  0.00000000000E+00 0.  1.
         -1    1    6    6    0  502  0.28109094088E+03  0.27463269776E+03  0.34478424289E+02  0.39449207529E+03  0.00000000000E+00 0.  1.
<mgrwt>
<rscale>  0 0.41999628E+04</rscale>
<asrwt>0</asrwt>
<pdfrwt beam="1">  1        2 0.44338502E+00 0.41999628E+04</pdfrwt>
<pdfrwt beam="2">  1       -2 0.23540906E+00 0.41999628E+04</pdfrwt>
<totfact> 0.12650273E-01</totfact>
</mgrwt>
</event>
<event>
12    1  0.1397649E-007  0.1363166E+04  0.7818608E-02  0.8980921E-01
         -2   -1    0    0    0  501 -0.00000000000E+00  0.00000000000E+00  0.19507379239E+03  0.19507379239E+03  0.00000000000E+00 0.  1.
          2   -1    0    0  501    0  0.00000000000E+00 -0.00000000000E+00 -0.23814341430E+04  0.23814341430E+04  0.00000000000E+00 0. -1.
         23    2    1    2    0    0 -0.16978801571E+03  0.33028936561E+03 -0.75826729137E+03  0.84930892970E+03  0.91854981273E+02 0.  0.
        254    2    1    2    0    0  0.16978801571E+03 -0.33028936561E+03 -0.14280930592E+04  0.17271990057E+04  0.89769013813E+03 0.  0.
        -24    2    4    4    0    0  0.42042528840E+03 -0.92769535631E+02 -0.26648846328E+03  0.51238015464E+03  0.78445598623E+02 0.  0.
         24    2    4    4    0    0 -0.25063727268E+03 -0.23751982998E+03 -0.11616045959E+04  0.12148188510E+04  0.84999361346E+02 0.  0.
         11    1    3    3    0    0 -0.37611063618E+02  0.10503194732E+03 -0.32269841968E+03  0.34143897277E+03  0.00000000000E+00 0. -1.
        -11    1    3    3    0    0 -0.13217695209E+03  0.22525741829E+03 -0.43556887169E+03  0.50786995693E+03  0.00000000000E+00 0.  1.
          4    1    6    6  502    0 -0.14677681370E+03 -0.11746652131E+03 -0.49299988713E+03  0.52762743046E+03  0.00000000000E+00 0. -1.
          3    1    5    5  503    0  0.78497973504E+02 -0.40183536352E+02 -0.29279473544E+02  0.92918975506E+02  0.00000000000E+00 0. -1.
         -4    1    5    5    0  503  0.34192731489E+03 -0.52585999279E+02 -0.23720898973E+03  0.41946117913E+03  0.00000000000E+00 0.  1.
         -3    1    6    6    0  502 -0.10386045898E+03 -0.12005330867E+03 -0.66860470881E+03  0.68719142057E+03  0.00000000000E+00 0.  1.
<mgrwt>
<rscale>  0 0.13631660E+04</rscale>
<asrwt>0</asrwt>
<pdfrwt beam="1">  1        2 0.36637448E+00 0.13631660E+04</pdfrwt>
<pdfrwt beam="2">  1       -2 0.30011353E-01 0.13631660E+04</pdfrwt>
<totfact> 0.40863918E+01</totfact>
</mgrwt>
</event>
<event>
12    1  0.1397649E-007  0.1362076E+04  0.7818608E-02  0.8981737E-01
          2   -1    0    0  501    0  0.00000000000E+00  0.00000000000E+00  0.20634635854E+04  0.20634635854E+04  0.00000000000E+00 0. -1.
         -2   -1    0    0    0  501 -0.00000000000E+00 -0.00000000000E+00 -0.22477385654E+03  0.22477385654E+03  0.00000000000E+00 0.  1.
         23    2    1    2    0    0  0.30259348771E+03 -0.38336044665E+02  0.47030539628E+03  0.56714063461E+03  0.86190849469E+02 0.  0.
        254    2    1    2    0    0 -0.30259348771E+03  0.38336044665E+02  0.13683843326E+04  0.17210968074E+04  0.99833164203E+03 0.  0.
        -24    2    4    4    0    0  0.30253877650E+03  0.28890721525E+02  0.12983811668E+03  0.34026831393E+03  0.80995085315E+02 0.  0.
         24    2    4    4    0    0 -0.60513226421E+03  0.94453231405E+01  0.12385462159E+04  0.13808284934E+04  0.80101984929E+02 0.  0.
         13    1    3    3    0    0  0.11050323983E+02 -0.34569362254E+01  0.68572397220E+02  0.69543035084E+02  0.00000000000E+00 0. -1.
        -13    1    3    3    0    0  0.29154316373E+03 -0.34879108440E+02  0.40173299906E+03  0.49759759952E+03  0.00000000000E+00 0.  1.
          4    1    6    6  502    0 -0.13815635250E+03  0.33654647747E+02  0.26189701469E+03  0.29800983097E+03  0.00000000000E+00 0. -1.
          1    1    5    5  503    0  0.99629937928E+02 -0.28472588873E+02  0.45423963859E+02  0.11313774499E+03  0.00000000000E+00 0. -1.
         -2    1    5    5    0  503  0.20290883857E+03  0.57363310398E+02  0.84414152819E+02  0.22713056894E+03  0.00000000000E+00 0.  1.
         -3    1    6    6    0  502 -0.46697591171E+03 -0.24209324607E+02  0.97664920125E+03  0.10828186625E+04  0.00000000000E+00 0.  1.
<mgrwt>
<rscale>  0 0.13620759E+04</rscale>
<asrwt>0</asrwt>
<pdfrwt beam="1">  1        2 0.31745592E+00 0.13620759E+04</pdfrwt>
<pdfrwt beam="2">  1       -2 0.34580595E-01 0.13620759E+04</pdfrwt>
<totfact> 0.47166672E+01</totfact>
</mgrwt>
</event>
<event>
12    1  0.1397649E-007  0.1541485E+04  0.7818608E-02  0.8857325E-01
          1   -1    0    0  501    0  0.00000000000E+00  0.00000000000E+00  0.23008298903E+03  0.23008298903E+03  0.00000000000E+00 0. -1.
         -1   -1    0    0    0  501 -0.00000000000E+00 -0.00000000000E+00 -0.25818697736E+04  0.25818697736E+04  0.00000000000E+00 0.  1.
         23    2    1    2    0    0  0.13930637362E+03  0.57821672829E+02  0.99513806725E+02  0.20266337500E+03  0.91759654863E+02 0.  0.
        254    2    1    2    0    0 -0.13930637362E+03 -0.57821672829E+02 -0.24513005913E+04  0.26092893876E+04  0.88134380799E+03 0.  0.
        -24    2    4    4    0    0 -0.34158912359E+03  0.30761595111E+03 -0.13685798605E+04  0.14459808628E+04  0.80864814280E+02 0.  0.
         24    2    4    4    0    0  0.20228274997E+03 -0.36543762394E+03 -0.10827207307E+04  0.11633085248E+04  0.80867639858E+02 0.  0.
         13    1    3    3    0    0  0.91601583662E+02  0.56203223525E+02  0.19104912873E+02  0.10915424939E+03  0.00000000000E+00 0.  1.
        -13    1    3    3    0    0  0.47704789953E+02  0.16184493048E+01  0.80408893852E+02  0.93509125614E+02  0.00000000000E+00 0. -1.
          2    1    6    6  502    0  0.16182829264E+03 -0.33866520235E+03 -0.92352733351E+03  0.99688778271E+03  0.00000000000E+00 0. -1.
          3    1    5    5  503    0 -0.31489957982E+03  0.29953009368E+03 -0.13229131934E+04  0.13924723838E+04  0.00000000000E+00 0. -1.
         -4    1    5    5    0  503 -0.26689543768E+02  0.80858574275E+01 -0.45666667136E+02  0.53508478993E+02  0.00000000000E+00 0.  1.
         -1    1    6    6    0  502  0.40454457331E+02 -0.26772421586E+02 -0.15919339723E+03  0.16642074209E+03  0.00000000000E+00 0.  1.
<mgrwt>
<rscale>  0 0.15414854E+04</rscale>
<asrwt>0</asrwt>
<pdfrwt beam="1">  1        1 0.35397382E-01 0.15414854E+04</pdfrwt>
<pdfrwt beam="2">  1       -1 0.39721074E+00 0.15414854E+04</pdfrwt>
<totfact> 0.89847152E-01</totfact>
</mgrwt>
</event>
