<LesHouchesEvents version="3.0">
  <!--
  <scalesfunctionalform>
    muR  H_T/2 := sum_i mT(i)/2, i=final state
    muF1 H_T/2 := sum_i mT(i)/2, i=final state
    muF2 H_T/2 := sum_i mT(i)/2, i=final state
    QES  H_T/2 := sum_i mT(i)/2, i=final state
  </scalesfunctionalform>
HERWIG6   
  -->
  <header>
      986
  </header>
  <init>
   2212   2212 0.65000000D+04 0.65000000D+04 -1 -1   244800   244800 -4   1
 0.48797513D-03 0.19925104D-05 0.53686478D-06     66
  </init>
  <event>
  8     66 0.53686478E-06 0.12129214E+03 0.75467711E-02 0.10187777E+00
       -2 -1    0    0    0  501 0.00000000E+00 0.00000000E+00 0.32381206E+03 0.32381222E+03 0.32000000E+00 0.0000E+00 0.9000E+01
        2 -1    0    0  501    0 0.00000000E+00 0.00000000E+00 -.43656295E+03 0.43656306E+03 0.32000000E+00 0.0000E+00 0.9000E+01
       25  2    1    2    0    0 -.11437441E+03 -.42450526E+02 0.22206266E+03 0.39272694E+03 0.30006512E+03 0.0000E+00 0.0000E+00
       23  2    1    2    0    0 0.11437441E+03 0.42450526E+02 -.33481354E+03 0.36764834E+03 0.90452420E+02 0.0000E+00 0.0000E+00
       23  1    3    3    0    0 0.26337025E+02 -.10770944E+03 0.10861216E+03 0.18001893E+03 0.91188000E+02 0.0000E+00 0.9000E+01
      -13  1    4    4    0    0 0.17703298E+02 0.51088934E+02 -.13771566E+03 0.14794966E+03 0.10565837E+00 0.0000E+00 0.9000E+01
       13  1    4    4    0    0 0.96671109E+02 -.86384075E+01 -.19709788E+03 0.21969868E+03 0.10565837E+00 0.0000E+00 0.9000E+01
       23  1    3    3    0    0 -.14071143E+03 0.65258911E+02 0.11345050E+03 0.21270802E+03 0.91188000E+02 0.0000E+00 0.9000E+01
#aMCatNLO 1  0  0  2  1 0.67301765D+02 0.00000000D+00  -5  7  0 0.00000000D+00 0.00000000D+00 0.00000000D+00 0.00000000D+00 0.00000000D+00
  <mgrwgt>
 0.1565257681D-03    9    2    0
 0.375984643942417D+03 0.000000000000000D+00 0.000000000000000D+00 0.375984643942417D+03
 0.375984643942417D+03 0.000000000000000D+00 0.000000000000000D+00 -.375984643942417D+03
 0.198316689268502D+03 0.263370252904843D+02 -.107709437669460D+03 0.136818478409156D+03
 0.128954247160892D+03 0.177031898634315D+02 0.510890151578660D+02 -.117071377627886D+03
 0.192601687842042D+03 0.966712166331624D+02 -.863848887712110D+01 -.166359437797161D+03
 0.232096663613398D+03 -.140711431787078D+03 0.652589113887152D+02 0.146612337015891D+03
 0.000000000000000D+00 -.000000000000000D+00 -.000000000000000D+00 -.000000000000000D+00
 0.391737525813563D+03 0.000000000000000D+00 0.000000000000000D+00 0.391737525813563D+03
 0.456952942541786D+03 0.000000000000000D+00 0.000000000000000D+00 -.456952942541786D+03
 0.191827826760980D+03 0.348003883589523D+02 -.924786500318310D+02 0.136818478409156D+03
 0.134236188156988D+03 0.234125516991751D+02 0.613636633046026D+02 -.117071377627886D+03
 0.196898272781813D+03 0.105120597430468D+03 0.656713606796598D+01 -.166359437797161D+03
 0.232012769875422D+03 -.130643555711075D+03 0.833772032822616D+02 0.146612337015891D+03
 0.937154107801459D+02 -.326899817775204D+02 -.588293526229992D+02 -.652154167282223D+02
0.393469844860D-05 0.000000000000D+00 0.000000000000D+00 0.636392107991D-06 0.000000000000D+00  7 -2 2 23 -13 13 23 21 0 0.49817261D-01 0.67163551D-01 0.56314894D+05 0.56314894D+05 0.56314894D+05 0.11427795D+01  1  2  2  2  7  2        2 0.134534174690D-03 0.100000000000D+01
-.162308802748D-06 0.000000000000D+00 -.151102780725D-07 0.636392107991D-06 0.000000000000D+00  7 -2 2 23 -13 13 23 21 2 0.49817261D-01 0.67163551D-01 0.56314894D+05 0.56314894D+05 0.56314894D+05 0.11427795D+01  1  2  3  2  7  2        2 -.724749852752D-05 0.100000000000D+01
0.246722065814D-06 0.000000000000D+00 0.000000000000D+00 0.636392107991D-06 0.000000000000D+00  7 -2 2 23 -13 13 23 21 2 0.49817261D-01 0.67163551D-01 0.56314894D+05 0.56314894D+05 0.56314894D+05 0.11427795D+01  1  2 15  2  7  2        2 0.110167642076D-04 0.100000000000D+01
0.773381190625D-05 0.000000000000D+00 0.000000000000D+00 0.636392107991D-06 0.000000000000D+00  7 -2 2 23 -13 13 23 21 2 0.49817261D-01 0.82820736D-01 0.76336458D+05 0.76336458D+05 0.76336458D+05 0.11314742D+01  1  2 12  2  7  2        2 0.267503731508D-03 0.100000000000D+01
-.829989012501D-05 0.000000000000D+00 0.000000000000D+00 0.636392107991D-06 0.000000000000D+00  7 -2 2 23 -13 13 23 21 2 0.49817261D-01 0.67163551D-01 0.56314894D+05 0.56314894D+05 0.56314894D+05 0.11427795D+01  1  2  4  2  7  2        2 -.370611084805D-03 0.100000000000D+01
-.113270232961D-04 0.000000000000D+00 -.266718202677D-05 0.636392107991D-06 0.000000000000D+00  7 -2 2 23 -13 13 23 21 2 0.49817261D-01 0.83966519D-01 0.56314894D+05 0.56314894D+05 0.56314894D+05 0.11427795D+01  1  2  5  2  7  2        2 -.395422401794D-03 0.100000000000D+01
0.116949543595D-04 0.000000000000D+00 0.260204660293D-05 0.636392107991D-06 0.000000000000D+00  7 -2 2 23 -13 13 23 21 2 0.49817261D-01 0.67163551D-01 0.56314894D+05 0.56314894D+05 0.56314894D+05 0.11427795D+01  1  2  6  2  7  2        2 0.522209289114D-03 0.100000000000D+01
0.229340514807D-06 0.000000000000D+00 0.000000000000D+00 0.636392107991D-06 0.000000000000D+00  7 -2 21 23 -13 13 23 -2 2 0.49817261D-01 0.82820736D-01 0.76336458D+05 0.76336458D+05 0.76336458D+05 0.11314742D+01  1  2 12  4  7  2        2 0.143103297352D-04 0.100000000000D+01
-.315364395916D-06 0.000000000000D+00 -.829830495992D-07 0.636392107991D-06 0.000000000000D+00  7 -2 21 23 -13 13 23 -2 2 0.49817261D-01 0.83966519D-01 0.56314894D+05 0.56314894D+05 0.56314894D+05 0.11427795D+01  1  2  5  4  7  2        2 -.197675359902D-04 0.100000000000D+01
  </mgrwgt>
  </event>
  <event>
  8     66 0.53686478E-06 0.44731460E+03 0.75467711E-02 0.95797750E-01
       -2 -1    0    0    0  501 0.00000000E+00 0.00000000E+00 0.11535849E+03 0.11535894E+03 0.32000000E+00 0.0000E+00 0.9000E+01
        2 -1    0    0  501    0 0.00000000E+00 0.00000000E+00 -.18033955E+04 0.18033955E+04 0.32000000E+00 0.0000E+00 0.9000E+01
       25  2    1    2    0    0 -.30041744E+03 -.25364250E+03 -.11080650E+04 0.12123613E+04 0.29567996E+03 0.0000E+00 0.0000E+00
       23  2    1    2    0    0 0.30041744E+03 0.25364250E+03 -.57997197E+03 0.70639316E+03 0.89658569E+02 0.0000E+00 0.0000E+00
       23  1    3    3    0    0 -.60711963E+02 0.25912076E+02 -.25335350E+03 0.27723749E+03 0.91188000E+02 0.0000E+00 0.9000E+01
      -13  1    4    4    0    0 -.59426227E+01 0.21596217E+01 -.14748742E+02 0.16047283E+02 0.10565837E+00 0.0000E+00 0.9000E+01
       13  1    4    4    0    0 0.30636006E+03 0.25148288E+03 -.56522323E+03 0.69034588E+03 0.10565837E+00 0.0000E+00 0.9000E+01
       23  1    3    3    0    0 -.23970547E+03 -.27955458E+03 -.85471151E+03 0.93512378E+03 0.91188000E+02 0.0000E+00 0.9000E+01
#aMCatNLO 1  0  0  2  1 0.83125088D+01 0.00000000D+00  -5  7  0 0.00000000D+00 0.00000000D+00 0.00000000D+00 0.00000000D+00 0.00000000D+00
  <mgrwgt>
 0.3934785402D-03    6    2    0
 0.456111210057299D+03 0.000000000000000D+00 0.000000000000000D+00 0.456111210057299D+03
 0.456111210057299D+03 0.000000000000000D+00 0.000000000000000D+00 -.456111210057299D+03
 0.114314867691968D+03 -.607119628969303D+02 0.259120757873543D+02 -.198811348022279D+02
 0.646099748531985D+01 -.594305637388646D+01 0.215927541071196D+01 -.132744082459910D+01
 0.406136713672089D+03 0.306360492474569D+03 0.251483228591624D+03 0.885802719584739D+02
 0.385309841265220D+03 -.239705473203752D+03 -.279554579789690D+03 -.673716963316469D+02
 0.000000000000000D+00 -.000000000000000D+00 0.000000000000000D+00 0.000000000000000D+00
 0.461914588901896D+03 0.000000000000000D+00 0.000000000000000D+00 0.461914588901896D+03
 0.459116510231969D+03 0.000000000000000D+00 0.000000000000000D+00 -.459116510231969D+03
 0.113909947289109D+03 -.603595050373793D+02 0.249338199645733D+02 -.198811348022279D+02
 0.642439779735667D+01 -.592315687767621D+01 0.210404384895055D+01 -.132744082459910D+01
 0.404943902721233D+03 0.307613080796312D+03 0.248006637600424D+03 0.885802719584739D+02
 0.386982044850989D+03 -.238512788064970D+03 -.282864907961245D+03 -.673716963316469D+02
 0.877080647517656D+01 -.281763081628644D+01 0.782040654729738D+01 0.279807866992696D+01
0.195532305884D-04 0.000000000000D+00 0.000000000000D+00 0.782503483424D-08 0.000000000000D+00  7 -2 2 23 -13 13 23 21 0 0.17747497D-01 0.27744549D+00 0.20009035D+06 0.20009035D+06 0.20009035D+06 0.10978103D+01  1  2  2  2  7  2        2 0.533638198072D-03 0.100000000000D+01
-.108578967721D-05 0.000000000000D+00 -.750895539432D-07 0.782503483424D-08 0.000000000000D+00  7 -2 2 23 -13 13 23 21 2 0.17747497D-01 0.27744549D+00 0.20009035D+06 0.20009035D+06 0.20009035D+06 0.10978103D+01  1  2  3  2  7  2        2 -.357131956049D-04 0.100000000000D+01
0.124391470000D-05 0.000000000000D+00 0.000000000000D+00 0.782503483424D-08 0.000000000000D+00  7 -2 2 23 -13 13 23 21 2 0.17747497D-01 0.27744549D+00 0.20009035D+06 0.20009035D+06 0.20009035D+06 0.10978103D+01  1  2 15  2  7  2        2 0.409141567000D-04 0.100000000000D+01
-.459647449384D-05 0.000000000000D+00 0.000000000000D+00 0.782503483424D-08 0.000000000000D+00  7 -2 2 23 -13 13 23 21 2 0.17747497D-01 0.27744549D+00 0.20009035D+06 0.20009035D+06 0.20009035D+06 0.10978103D+01  1  2  4  2  7  2        2 -.151184705598D-03 0.100000000000D+01
0.183585695051D-06 0.000000000000D+00 0.000000000000D+00 0.782503483424D-08 0.727165280791D-09  7 -2 2 23 -13 13 23 21 2 0.17973309D-01 0.27927357D+00 0.20383826D+06 0.20383826D+06 0.20383826D+06 0.10971919D+01  1  2 11  2  7  2        2 0.581759215861D-05 0.100000000000D+01
0.827844005897D-09 0.000000000000D+00 0.000000000000D+00 0.782503483424D-08 0.893150920117D-12  7 -2 21 23 -13 13 23 -2 2 0.17973309D-01 0.27927357D+00 0.20383826D+06 0.20383826D+06 0.20383826D+06 0.10971919D+01  1  2 11  4  7  2        2 0.649447069452D-08 0.100000000000D+01
  </mgrwgt>
  </event>
  <event>
  9     66 0.53686478E-06 0.18840806E+03 0.75467711E-02 0.10471524E+00
       -2 -1    0    0    0  502 0.00000000E+00 0.00000000E+00 0.37158048E+02 0.37159426E+02 0.32000000E+00 0.0000E+00 0.9000E+01
        2 -1    0    0  501    0 0.00000000E+00 0.00000000E+00 -.17065705E+04 0.17065706E+04 0.32000000E+00 0.0000E+00 0.9000E+01
       25  2    1    2    0    0 0.59077305E+01 0.32857677E+02 -.76892805E+03 0.82284711E+03 0.29105410E+03 0.0000E+00 0.0000E+00
       23  2    1    2    0    0 -.56602195E+01 -.94287036E+02 -.64092981E+03 0.65415682E+03 0.90598195E+02 0.0000E+00 0.0000E+00
       23  1    3    3    0    0 0.10566259E+03 0.59448628E+02 -.33909436E+03 0.37148211E+03 0.91188000E+02 0.0000E+00 0.9000E+01
      -13  1    4    4    0    0 0.83915665E+01 -.54736238E+02 -.12739974E+03 0.13891429E+03 0.10565837E+00 0.0000E+00 0.9000E+01
       13  1    4    4    0    0 -.14051786E+02 -.39550799E+02 -.51353007E+03 0.51524253E+03 0.10565837E+00 0.0000E+00 0.9000E+01
       23  1    3    3    0    0 -.99754858E+02 -.26590951E+02 -.42983369E+03 0.45136500E+03 0.91188000E+02 0.0000E+00 0.9000E+01
       21  1    1    2  501  502 -.24751103E+00 0.61429359E+02 -.25955462E+03 0.26672606E+03 0.75000000E+00 0.0000E+00 0.9000E+01
#aMCatNLO 2  0  0  1  2 0.61429857D+02 0.00000000D+00  -5  7  0 0.00000000D+00 0.00000000D+00 0.00000000D+00 0.00000000D+00 0.00000000D+00
  <mgrwgt>
 0.2221981782D-03    1    2    0
 0.217983817746114D+03 0.000000000000000D+00 0.000000000000000D+00 0.217983817746114D+03
 0.217983817746114D+03 0.000000000000000D+00 0.000000000000000D+00 -.217983817746114D+03
 0.170268210380235D+03 0.105569194959029D+03 0.826280176461255D+02 0.519977681988571D+02
 0.509141271173383D+02 0.836080980953354D+01 -.470967205678625D+02 0.174425947382255D+02
 0.793286972144516D+02 -.140979654992450D+02 -.280961363822609D+02 -.728347217397968D+02
 0.135456600780204D+03 -.998320392693177D+02 -.743516069600213D+01 0.339435880271420D+01
 0.000000000000000D+00 -.000000000000000D+00 0.000000000000000D+00 -.000000000000000D+00
 0.243646394552795D+03 0.000000000000000D+00 0.000000000000000D+00 0.243646394552795D+03
 0.260266254969766D+03 0.000000000000000D+00 0.000000000000000D+00 -.260266254969766D+03
 0.160367524242469D+03 0.105662589254084D+03 0.594486402041242D+02 0.519977681988571D+02
 0.580579091400996D+02 0.839159101507556D+01 -.547362576612047D+02 0.174425947382255D+02
 0.840631669605097D+02 -.140518123876047D+02 -.395508017256347D+02 -.728347217397968D+02
 0.137785639850794D+03 -.997548568483913D+02 -.265909395954349D+02 0.339435880271420D+01
 0.636384093286895D+02 -.247511033163575D+00 0.614293587781501D+02 -.166198604169716D+02
0.926972424141D-06 0.000000000000D+00 0.000000000000D+00 0.900764449957D-09 0.170408048066D-11  7 -2 2 23 -13 13 23 21 2 0.57166805D-02 0.26254710D+00 0.50226609D+05 0.50226609D+05 0.50226609D+05 0.11471227D+01  1  2  1  1  7  1       -2 0.222198178246D-03 0.100000000000D+01
  </mgrwgt>
  </event>
  <event>
  8     66 0.53686478E-06 0.17873791E+03 0.75467711E-02 0.95422512E-01
       -2 -1    0    0    0  501 0.00000000E+00 0.00000000E+00 0.10367930E+03 0.10367979E+03 0.32000000E+00 0.0000E+00 0.9000E+01
        2 -1    0    0  501    0 0.00000000E+00 0.00000000E+00 -.19336848E+04 0.19336848E+04 0.32000000E+00 0.0000E+00 0.9000E+01
       25  2    1    2    0    0 -.16497711E+03 -.13140931E+03 -.25752906E+03 0.44828999E+03 0.30026130E+03 0.0000E+00 0.0000E+00
       23  2    1    2    0    0 0.16497711E+03 0.13140931E+03 -.15724764E+04 0.15890746E+04 0.89387624E+02 0.0000E+00 0.0000E+00
       23  1    3    3    0    0 -.14057850E+03 0.36780408E+02 -.14749195E+03 0.22623934E+03 0.91188000E+02 0.0000E+00 0.9000E+01
      -13  1    4    4    0    0 0.10089288E+03 0.12250154E+03 -.12611537E+04 0.12710998E+04 0.10565837E+00 0.0000E+00 0.9000E+01
       13  1    4    4    0    0 0.64084228E+02 0.89077724E+01 -.31132273E+03 0.31797483E+03 0.10565837E+00 0.0000E+00 0.9000E+01
       23  1    3    3    0    0 -.24398611E+02 -.16818972E+03 -.11003711E+03 0.22205065E+03 0.91188000E+02 0.0000E+00 0.9000E+01
#aMCatNLO 1  0  0  2  1 0.28223773D+03 0.00000000D+00  -5  7  0 0.00000000D+00 0.00000000D+00 0.00000000D+00 0.00000000D+00 0.00000000D+00
  <mgrwgt>
 0.1577457034D-03    9    2    0
 0.447753961989388D+03 0.000000000000000D+00 0.000000000000000D+00 0.447753961989388D+03
 0.447753961989388D+03 0.000000000000000D+00 0.000000000000000D+00 -.447753961989388D+03
 0.213310175453711D+03 -.140578501788350D+03 0.367804075304832D+02 0.126770919634306D+03
 0.314654731512532D+03 0.100892935835442D+03 0.122501699982720D+03 -.271701212847997D+03
 0.872220829419859D+02 0.640841767674282D+02 0.890761377023479D+01 -.584941403706389D+02
 0.280320934070548D+03 -.243986108145207D+02 -.168189721283438D+03 0.203424433584330D+03
 0.000000000000000D+00 -.000000000000000D+00 -.000000000000000D+00 -.000000000000000D+00
 0.545709935909352D+03 0.000000000000000D+00 0.000000000000000D+00 0.545709935909352D+03
 0.730660139724957D+03 0.000000000000000D+00 0.000000000000000D+00 -.730660139724957D+03
 0.232627040252573D+03 -.136554154220369D+03 0.105271959290708D+03 0.126770919634306D+03
 0.370320136039065D+03 0.107074471812413D+03 0.227707074064491D+03 -.271701212847997D+03
 0.954388105808603D+02 0.657325947435989D+02 0.369625228530620D+02 -.584941403706389D+02
 0.240545628552961D+03 -.196980655119355D+02 -.881897619223524D+02 0.203424433584330D+03
 0.337438460208850D+03 -.165548468237075D+02 -.281751794285909D+03 -.184950203815606D+03
0.584362865143D-05 0.000000000000D+00 0.000000000000D+00 0.350518116996D-06 0.000000000000D+00  7 -2 2 23 -13 13 23 21 0 0.15950701D-01 0.29749001D+00 0.86383942D+05 0.86383942D+05 0.86383942D+05 0.11269761D+01  1  2  2  2  7  2        2 0.165489202344D-03 0.100000000000D+01
-.254696586526D-06 0.000000000000D+00 -.224410726843D-07 0.350518116996D-06 0.000000000000D+00  7 -2 2 23 -13 13 23 21 2 0.15950701D-01 0.29749001D+00 0.86383942D+05 0.86383942D+05 0.86383942D+05 0.11269761D+01  1  2  3  2  7  2        2 -.916093011879D-05 0.100000000000D+01
0.365689868713D-06 0.000000000000D+00 0.000000000000D+00 0.350518116996D-06 0.000000000000D+00  7 -2 2 23 -13 13 23 21 2 0.15950701D-01 0.29749001D+00 0.86383942D+05 0.86383942D+05 0.86383942D+05 0.11269761D+01  1  2 15  2  7  2        2 0.131531379283D-04 0.100000000000D+01
0.627603098617D-08 0.000000000000D+00 0.000000000000D+00 0.350518116996D-06 0.000000000000D+00  7 -2 2 23 -13 13 23 21 2 0.15950701D-01 0.50118604D+00 0.21748357D+06 0.21748357D+06 0.21748357D+06 0.10950409D+01  1  2 12  2  7  2        2 0.341606376195D-07 0.100000000000D+01
-.275692664134D-05 0.000000000000D+00 0.000000000000D+00 0.350518116996D-06 0.000000000000D+00  7 -2 2 23 -13 13 23 21 2 0.15950701D-01 0.29749001D+00 0.86383942D+05 0.86383942D+05 0.86383942D+05 0.11269761D+01  1  2  4  2  7  2        2 -.991611730979D-04 0.100000000000D+01
-.207896114358D-05 0.000000000000D+00 -.159720807959D-05 0.350518116996D-06 0.000000000000D+00  7 -2 2 23 -13 13 23 21 2 0.15950701D-01 0.51302171D+00 0.86383942D+05 0.86383942D+05 0.86383942D+05 0.11269761D+01  1  2  5  2  7  2        2 -.112526167607D-04 0.100000000000D+01
0.274287414322D-05 0.000000000000D+00 0.138623753182D-05 0.350518116996D-06 0.000000000000D+00  7 -2 2 23 -13 13 23 21 2 0.15950701D-01 0.29749001D+00 0.86383942D+05 0.86383942D+05 0.86383942D+05 0.11269761D+01  1  2  6  2  7  2        2 0.986557326638D-04 0.100000000000D+01
0.366047929516D-09 0.000000000000D+00 0.000000000000D+00 0.350518116996D-06 0.000000000000D+00  7 -2 21 23 -13 13 23 -2 2 0.15950701D-01 0.50118604D+00 0.21748357D+06 0.21748357D+06 0.21748357D+06 0.10950409D+01  1  2 12  4  7  2        2 0.985128463872D-10 0.100000000000D+01
-.466845978832D-07 0.000000000000D+00 -.965589803570D-07 0.350518116996D-06 0.000000000000D+00  7 -2 21 23 -13 13 23 -2 2 0.15950701D-01 0.51302171D+00 0.86383942D+05 0.86383942D+05 0.86383942D+05 0.11269761D+01  1  2  5  4  7  2        2 -.119086618519D-07 0.100000000000D+01
  </mgrwgt>
  </event>
  <event>
  9     66 0.53686478E-06 0.17231144E+03 0.75467711E-02 0.99226410E-01
       -2 -1    0    0    0  502 0.00000000E+00 0.00000000E+00 0.20737510E+03 0.20737534E+03 0.32000000E+00 0.0000E+00 0.9000E+01
        2 -1    0    0  501    0 0.00000000E+00 0.00000000E+00 -.10758300E+04 0.10758300E+04 0.32000000E+00 0.0000E+00 0.9000E+01
       25  2    1    2    0    0 -.20392029E+02 -.83277642E+02 -.25474002E+03 0.40280110E+03 0.30000875E+03 0.0000E+00 0.0000E+00
       23  2    1    2    0    0 -.12326558E+03 -.99567835E+02 -.62184422E+03 0.64773145E+03 0.88077440E+02 0.0000E+00 0.0000E+00
       23  1    3    3    0    0 0.17418329E+02 0.57806990E+02 -.18924929E+03 0.21857628E+03 0.91188000E+02 0.0000E+00 0.9000E+01
      -13  1    4    4    0    0 -.39773227E+02 -.62235264E+02 -.41568706E+03 0.42219768E+03 0.10565837E+00 0.0000E+00 0.9000E+01
       13  1    4    4    0    0 -.83492355E+02 -.37332571E+02 -.20615716E+03 0.22553377E+03 0.10565837E+00 0.0000E+00 0.9000E+01
       23  1    3    3    0    0 -.37810358E+02 -.14108463E+03 -.65490734E+02 0.18422482E+03 0.91188000E+02 0.0000E+00 0.9000E+01
       21  1    1    2  501  502 0.14365761E+03 0.18284548E+03 0.81293899E+01 0.23267279E+03 0.75000000E+00 0.0000E+00 0.9000E+01
#aMCatNLO 2  0  0  1  2 0.23252952D+03 0.00000000D+00  -5  7  0 0.00000000D+00 0.00000000D+00 0.00000000D+00 0.00000000D+00 0.00000000D+00
  <mgrwgt>
 0.4060136362D-04    1    2    0
 0.265117296548538D+03 0.000000000000000D+00 0.000000000000000D+00 0.265117296548538D+03
 0.265117296548538D+03 0.000000000000000D+00 0.000000000000000D+00 -.265117296548538D+03
 0.144842635805970D+03 0.504328169201181D+02 0.998273861164302D+02 -.124563944174778D+02
 0.117032255231316D+03 -.691135123570670D+01 -.204092244226822D+02 -.115031498065048D+03
 0.705272834798748D+02 -.617831200912790D+02 -.970123330094502D+01 -.326010714437095D+02
 0.197832418579915D+03 0.182616544068677D+02 -.697169283928030D+02 0.160088963926236D+03
 0.000000000000000D+00 0.000000000000000D+00 0.000000000000000D+00 0.000000000000000D+00
 0.690240480703055D+03 0.000000000000000D+00 0.000000000000000D+00 0.690240480703055D+03
 0.323220854075599D+03 0.000000000000000D+00 0.000000000000000D+00 -.323220854075599D+03
 0.110070247586700D+03 0.174183293573014D+02 0.578069900644746D+02 -.124563944174778D+02
 0.136701802729287D+03 -.397731657870706D+02 -.622353003176010D+02 -.115031498065048D+03
 0.970954777209465D+02 -.834924173667130D+02 -.373325350980021D+02 -.326010714437095D+02
 0.235113215582015D+03 -.378103575847626D+02 -.141084631642330D+03 0.160088963926236D+03
 0.434480591159706D+03 0.143657611381245D+03 0.182845476993459D+03 0.367019626627456D+03
0.126401811094D-05 0.000000000000D+00 0.000000000000D+00 0.428383951698D-07 0.779538698448D-11  7 -2 2 23 -13 13 23 21 2 0.31903854D-01 0.16551217D+00 0.11539654D+06 0.11539654D+06 0.11539654D+06 0.11166539D+01  1  2  1  1  7  1       -2 0.406013636203D-04 0.100000000000D+01
  </mgrwgt>
  </event>
  <event>
  8     66 0.53686478E-06 0.42375407E+03 0.75467711E-02 0.89009720E-01
       -2 -1    0    0    0  501 0.00000000E+00 0.00000000E+00 0.54460100E+03 0.54460109E+03 0.32000000E+00 0.0000E+00 0.9000E+01
        2 -1    0    0  501    0 0.00000000E+00 0.00000000E+00 -.11704979E+04 0.11704979E+04 0.32000000E+00 0.0000E+00 0.9000E+01
       25  2    1    2    0    0 -.41800214E+03 -.53676884E+03 0.58309311E+02 0.74592859E+03 0.30027139E+03 0.0000E+00 0.0000E+00
       23  2    1    2    0    0 0.41800214E+03 0.53676884E+03 -.68420617E+03 0.96917040E+03 0.91140549E+02 0.0000E+00 0.0000E+00
       23  1    3    3    0    0 -.25143729E+03 -.45036319E+03 0.99791729E+02 0.53321793E+03 0.91188000E+02 0.0000E+00 0.9000E+01
      -11  1    4    4    0    0 0.37208037E+03 0.50733182E+03 -.60382367E+03 0.87202776E+03 0.51099893E-03 0.0000E+00 0.9000E+01
       11  1    4    4    0    0 0.45921766E+02 0.29437019E+02 -.80382497E+02 0.97142640E+02 0.51099893E-03 0.0000E+00 0.9000E+01
       23  1    3    3    0    0 -.16656485E+03 -.86405651E+02 -.41482418E+02 0.21271067E+03 0.91188000E+02 0.0000E+00 0.9000E+01
#aMCatNLO 1  0  0  2  1 0.25866215D+03 0.00000000D+00  -5  7  0 0.00000000D+00 0.00000000D+00 0.00000000D+00 0.00000000D+00 0.00000000D+00
  <mgrwgt>
 0.3534611291D-03    9    2    0
 0.798407424520195D+03 0.000000000000000D+00 0.000000000000000D+00 0.798407424520195D+03
 0.798407424520195D+03 0.000000000000000D+00 0.000000000000000D+00 -.798407424520195D+03
 0.611831017087060D+03 -.251437288947019D+03 -.450363192230870D+03 0.316187012599158D+03
 0.699945009444490D+03 0.372080371374924D+03 0.507331824339772D+03 -.306746855722801D+03
 0.728312937021773D+02 0.459217657957025D+02 0.294370185592564D+02 -.482602393993178D+02
 0.212207528806663D+03 -.166564848223608D+03 -.864056506681587D+02 0.388200825229608D+02
 0.000000000000000D+00 -.000000000000000D+00 -.000000000000000D+00 -.000000000000000D+00
 0.834179328288750D+03 0.000000000000000D+00 0.000000000000000D+00 0.834179328288750D+03
 0.146825306982366D+04 0.000000000000000D+00 0.000000000000000D+00 -.146825306982366D+04
 0.539700648068616D+03 -.185131800256633D+03 -.385633929755983D+03 0.316187012599158D+03
 0.809604342334218D+03 0.459000610305924D+03 0.592185779438671D+03 -.306746855722801D+03
 0.824344413787697D+02 0.548620066531022D+02 0.381647303743303D+02 -.482602393993178D+02
 0.185889625730858D+03 -.143642311938603D+03 -.640280331120828D+02 0.388200825229608D+02
 0.684803340599944D+03 -.185088504763790D+03 -.180688546944936D+03 -.634073741534906D+03
0.117081512255D-03 0.000000000000D+00 0.000000000000D+00 0.379275819755D-05 0.000000000000D+00  7 -2 2 23 -11 11 23 21 0 0.83784779D-01 0.18007660D+00 0.50134875D+06 0.50134875D+06 0.50134875D+06 0.10684277D+01  1  2  2  2  7  2        2 0.362769776627D-03 0.100000000000D+01
-.639047357085D-05 0.000000000000D+00 -.449623835329D-06 0.379275819755D-05 0.000000000000D+00  7 -2 2 23 -11 11 23 21 2 0.83784779D-01 0.18007660D+00 0.50134875D+06 0.50134875D+06 0.50134875D+06 0.10684277D+01  1  2  3  2  7  2        2 -.226030014394D-04 0.100000000000D+01
0.742598976304D-05 0.000000000000D+00 0.000000000000D+00 0.379275819755D-05 0.000000000000D+00  7 -2 2 23 -11 11 23 21 2 0.83784779D-01 0.18007660D+00 0.50134875D+06 0.50134875D+06 0.50134875D+06 0.10684277D+01  1  2 15  2  7  2        2 0.262656054269D-04 0.100000000000D+01
0.239375802712D-03 0.000000000000D+00 0.000000000000D+00 0.379275819755D-05 0.000000000000D+00  7 -2 2 23 -11 11 23 21 2 0.83784779D-01 0.33207401D+00 0.71733188D+06 0.71733188D+06 0.71733188D+06 0.10576054D+01  1  2 12  2  7  2        2 0.227613056691D-03 0.100000000000D+01
-.243504657565D-03 0.000000000000D+00 0.000000000000D+00 0.379275819755D-05 0.000000000000D+00  7 -2 2 23 -11 11 23 21 2 0.83784779D-01 0.18007660D+00 0.50134875D+06 0.50134875D+06 0.50134875D+06 0.10684277D+01  1  2  4  2  7  2        2 -.861272026935D-03 0.100000000000D+01
-.271991212537D-03 0.000000000000D+00 -.352964907826D-04 0.379275819755D-05 0.000000000000D+00  7 -2 2 23 -11 11 23 21 2 0.83784779D-01 0.33516434D+00 0.50134875D+06 0.50134875D+06 0.50134875D+06 0.10684277D+01  1  2  5  2  7  2        2 -.263360566403D-03 0.100000000000D+01
0.249974500432D-03 0.000000000000D+00 0.294320077648D-04 0.379275819755D-05 0.000000000000D+00  7 -2 2 23 -11 11 23 21 2 0.83784779D-01 0.18007660D+00 0.50134875D+06 0.50134875D+06 0.50134875D+06 0.10684277D+01  1  2  6  2  7  2        2 0.884155756288D-03 0.100000000000D+01
0.159889706689D-04 0.000000000000D+00 0.000000000000D+00 0.379275819755D-05 0.000000000000D+00  7 -2 21 23 -11 11 23 -2 2 0.83784779D-01 0.33207401D+00 0.71733188D+06 0.71733188D+06 0.71733188D+06 0.10576054D+01  1  2 12  4  7  2        2 0.243495020759D-05 0.100000000000D+01
-.164476243014D-04 0.000000000000D+00 -.238956471326D-05 0.379275819755D-05 0.000000000000D+00  7 -2 21 23 -11 11 23 -2 2 0.83784779D-01 0.33516434D+00 0.50134875D+06 0.50134875D+06 0.50134875D+06 0.10684277D+01  1  2  5  4  7  2        2 -.254242138265D-05 0.100000000000D+01
  </mgrwgt>
  </event>
  <event>
  8     66 0.53686478E-06 0.19900087E+03 0.75467711E-02 0.10535557E+00
       -2 -1    0    0    0  501 0.00000000E+00 0.00000000E+00 0.32381346E+02 0.32382927E+02 0.32000000E+00 0.0000E+00 0.9000E+01
        2 -1    0    0  501    0 0.00000000E+00 0.00000000E+00 -.26946701E+04 0.26946701E+04 0.32000000E+00 0.0000E+00 0.9000E+01
       25  2    1    2    0    0 0.96789670E+02 0.86572421E+02 -.90077632E+03 0.95835298E+03 0.30029891E+03 0.0000E+00 0.0000E+00
       23  2    1    2    0    0 -.96789670E+02 -.86572421E+02 -.17615125E+04 0.17687001E+04 0.92254200E+02 0.0000E+00 0.0000E+00
       23  1    3    3    0    0 -.17393422E+02 -.71064932E+01 -.91025059E+02 0.13020694E+03 0.91188000E+02 0.0000E+00 0.9000E+01
      -11  1    4    4    0    0 -.34710430E+01 -.10074350E+02 -.17296703E+02 0.20315427E+02 0.51099893E-03 0.0000E+00 0.9000E+01
       11  1    4    4    0    0 -.93318627E+02 -.76498071E+02 -.17442158E+04 0.17483847E+04 0.51099893E-03 0.0000E+00 0.9000E+01
       23  1    3    3    0    0 0.11418309E+03 0.93678914E+02 -.80975126E+03 0.82814605E+03 0.91188000E+02 0.0000E+00 0.9000E+01
#aMCatNLO 1  0  0  1  1 0.35783513D+02 0.00000000D+00  -5  7  0 0.00000000D+00 0.00000000D+00 0.00000000D+00 0.00000000D+00 0.00000000D+00
  <mgrwgt>
 0.5602106831D-03    4    2    0
 0.295396727543687D+03 0.000000000000000D+00 0.000000000000000D+00 0.295396727543687D+03
 0.295396727543687D+03 0.000000000000000D+00 0.000000000000000D+00 -.295396727543687D+03
 0.190838657969113D+03 -.173934222797231D+02 -.710649319016098D+01 0.166586640062730D+03
 0.158302883348946D+02 -.347104301818894D+01 -.100743496112326D+02 0.117071503382523D+02
 0.210448716061579D+03 -.933186271206181D+02 -.764980709534741D+02 -.172419085558088D+03
 0.173675792721788D+03 0.114183092418530D+03 0.936789137548677D+02 -.587470484289442D+01
 0.000000000000000D+00 -.000000000000000D+00 -.000000000000000D+00 -.000000000000000D+00
 0.298345385088841D+03 0.000000000000000D+00 0.000000000000000D+00 0.298345385088841D+03
 0.428914021032123D+03 0.000000000000000D+00 0.000000000000000D+00 -.428914021032123D+03
 0.190112443936891D+03 -.872581821557310D+01 0.491370264333355D+00 0.166586640062730D+03
 0.152989809501826D+02 -.276277316513066D+01 -.945349319086038D+01 0.117071503382523D+02
 0.203529800321238D+03 -.838995655845897D+02 -.682414936005442D+02 -.172419085558088D+03
 0.182934915841017D+03 0.122296890781085D+03 0.100791321243688D+03 -.587470484289442D+01
 0.135383265071635D+03 -.269087338157915D+02 -.235877047166169D+02 -.130568635943282D+03
0.868171962962D-05 0.000000000000D+00 0.000000000000D+00 0.392172345247D-06 0.000000000000D+00  7 -2 2 23 -11 11 23 21 0 0.49818686D-02 0.41456476D+00 0.39601344D+05 0.39601344D+05 0.39601344D+05 0.11563101D+01  1  2  2  1  7  1       -2 0.564491814061D-03 0.100000000000D+01
-.390815629795D-06 0.000000000000D+00 -.333400893270D-07 0.392172345247D-06 0.000000000000D+00  7 -2 2 23 -11 11 23 21 2 0.49818686D-02 0.41456476D+00 0.39601344D+05 0.39601344D+05 0.39601344D+05 0.11563101D+01  1  2  3  1  7  1       -2 -.339760182644D-04 0.100000000000D+01
0.518951684654D-06 0.000000000000D+00 0.000000000000D+00 0.392172345247D-06 0.000000000000D+00  7 -2 2 23 -11 11 23 21 2 0.49818686D-02 0.41456476D+00 0.39601344D+05 0.39601344D+05 0.39601344D+05 0.11563101D+01  1  2 15  1  7  1       -2 0.451156775010D-04 0.100000000000D+01
-.177380580631D-06 0.000000000000D+00 0.000000000000D+00 0.392172345247D-06 0.000000000000D+00  7 -2 2 23 -11 11 23 21 2 0.49818686D-02 0.41456476D+00 0.39601344D+05 0.39601344D+05 0.39601344D+05 0.11563101D+01  1  2  4  1  7  1       -2 -.154207902341D-04 0.100000000000D+01
  </mgrwgt>
  </event>
  <event>
  8     66 0.53686478E-06 0.13914557E+03 0.75467711E-02 0.10784973E+00
       -2 -1    0    0    0  501 0.00000000E+00 0.00000000E+00 0.38072064E+02 0.38073409E+02 0.32000000E+00 0.0000E+00 0.9000E+01
        2 -1    0    0  501    0 0.00000000E+00 0.00000000E+00 -.10797350E+04 0.10797351E+04 0.32000000E+00 0.0000E+00 0.9000E+01
       25  2    1    2    0    0 -.33526096E+02 0.13154283E+02 -.86010076E+03 0.91174061E+03 0.30033415E+03 0.0000E+00 0.0000E+00
       23  2    1    2    0    0 0.33526096E+02 -.13154283E+02 -.18156220E+03 0.20606787E+03 0.90565431E+02 0.0000E+00 0.0000E+00
       23  1    3    3    0    0 -.61509735E+02 0.44313721E+02 -.76281485E+03 0.77197726E+03 0.91188000E+02 0.0000E+00 0.9000E+01
      -11  1    4    4    0    0 0.11012982E+02 -.29533169E+02 -.11207210E+02 0.33452884E+02 0.51099893E-03 0.0000E+00 0.9000E+01
       11  1    4    4    0    0 0.22513114E+02 0.16378887E+02 -.17035499E+03 0.17261498E+03 0.51099893E-03 0.0000E+00 0.9000E+01
       23  1    3    3    0    0 0.27983639E+02 -.31159438E+02 -.97285907E+02 0.13976335E+03 0.91188000E+02 0.0000E+00 0.9000E+01
#aMCatNLO 1  0  0  1  2 0.71890503D+02 0.00000000D+00  -5  7  0 0.00000000D+00 0.00000000D+00 0.00000000D+00 0.00000000D+00 0.00000000D+00
  <mgrwgt>
 0.2940439047D-03    4    2    0
 0.202752359573289D+03 0.000000000000000D+00 0.000000000000000D+00 0.202752359573289D+03
 0.202752359573289D+03 0.000000000000000D+00 0.000000000000000D+00 -.202752359573289D+03
 0.168498067759691D+03 -.615097373623550D+02 0.443137216585222D+02 -.119704610509096D+03
 0.634265911341456D+02 0.110129849416970D+02 -.295331695115913D+02 0.550403354293162D+02
 0.382190459557476D+02 0.225131151821516D+02 0.163788853550798D+02 -.261837207647781D+02
 0.135361014296993D+03 0.279836372385064D+02 -.311594375020107D+02 0.908479958445580D+02
 0.000000000000000D+00 -.000000000000000D+00 0.000000000000000D+00 -.000000000000000D+00
 0.233948262592296D+03 0.000000000000000D+00 0.000000000000000D+00 0.233948262592296D+03
 0.252002674818218D+03 0.000000000000000D+00 0.000000000000000D+00 -.252002674818218D+03
 0.160567138608001D+03 -.535292118386209D+02 0.164919483252510D+02 -.119704610509096D+03
 0.699868573658221D+02 0.142485425465739D+02 -.408129968891131D+02 0.550403354293162D+02
 0.371243211264712D+02 0.243403507950588D+02 0.100087616210479D+02 -.261837207647781D+02
 0.144149707301020D+03 0.347623619553876D+02 -.547914830359579D+02 0.908479958445580D+02
 0.741229130091988D+02 -.198220434583994D+02 0.691037699787720D+02 -.180544122259223D+02
0.126943032821D-05 0.000000000000D+00 0.000000000000D+00 0.954216813030D-07 0.000000000000D+00  7 -2 2 23 -11 11 23 21 0 0.58573477D-02 0.16611319D+00 0.19361491D+05 0.19361491D+05 0.19361491D+05 0.11854037D+01  1  2  2  1  7  1       -2 0.482335956532D-03 0.100000000000D+01
-.583713892896D-07 0.000000000000D+00 -.487494670900D-08 0.954216813030D-07 0.000000000000D+00  7 -2 2 23 -11 11 23 21 2 0.58573477D-02 0.16611319D+00 0.19361491D+05 0.19361491D+05 0.19361491D+05 0.11854037D+01  1  2  3  1  7  1       -2 -.311654451836D-04 0.100000000000D+01
0.815300982235D-07 0.000000000000D+00 0.000000000000D+00 0.954216813030D-07 0.000000000000D+00  7 -2 2 23 -11 11 23 21 2 0.58573477D-02 0.16611319D+00 0.19361491D+05 0.19361491D+05 0.19361491D+05 0.11854037D+01  1  2 15  1  7  1       -2 0.435302609364D-04 0.100000000000D+01
-.375820722641D-06 0.000000000000D+00 0.000000000000D+00 0.954216813030D-07 0.000000000000D+00  7 -2 2 23 -11 11 23 21 2 0.58573477D-02 0.16611319D+00 0.19361491D+05 0.19361491D+05 0.19361491D+05 0.11854037D+01  1  2  4  1  7  1       -2 -.200656867566D-03 0.100000000000D+01
  </mgrwgt>
  </event>
  <event>
  8     66 0.53686478E-06 0.33972634E+03 0.75467711E-02 0.89816538E-01
       -2 -1    0    0    0  501 0.00000000E+00 0.00000000E+00 0.23009671E+03 0.23009693E+03 0.32000000E+00 0.0000E+00 0.9000E+01
        2 -1    0    0  501    0 0.00000000E+00 0.00000000E+00 -.10084681E+04 0.10084682E+04 0.32000000E+00 0.0000E+00 0.9000E+01
       25  2    1    2    0    0 -.25217995E+03 -.14947023E+03 -.82820319E+03 0.92826391E+03 0.29969531E+03 0.0000E+00 0.0000E+00
       23  2    1    2    0    0 0.25217995E+03 0.14947023E+03 0.49831777E+02 0.31030120E+03 0.88699218E+02 0.0000E+00 0.0000E+00
       23  1    3    3    0    0 -.21785511E+03 -.15124100E+03 -.75783841E+03 0.80806497E+03 0.91188000E+02 0.0000E+00 0.9000E+01
      -11  1    4    4    0    0 0.17904078E+03 0.14106401E+03 0.60707759E+02 0.23588151E+03 0.51099893E-03 0.0000E+00 0.9000E+01
       11  1    4    4    0    0 0.73139167E+02 0.84062164E+01 -.10875982E+02 0.74419682E+02 0.51099893E-03 0.0000E+00 0.9000E+01
       23  1    3    3    0    0 -.34324844E+02 0.17707764E+01 -.70364782E+02 0.12019894E+03 0.91188000E+02 0.0000E+00 0.9000E+01
#aMCatNLO 1  0  0  2  1 0.64064988D+03 0.00000000D+00  -5  7  0 0.00000000D+00 0.00000000D+00 0.00000000D+00 0.00000000D+00 0.00000000D+00
  <mgrwgt>
 0.2634873813D-03    5    2    0
 0.481710871762938D+03 0.000000000000000D+00 0.000000000000000D+00 0.481710871762938D+03
 0.481710871762938D+03 0.000000000000000D+00 0.000000000000000D+00 -.481710871762938D+03
 0.426564295425956D+03 -.217855105676576D+03 -.151241002283958D+03 -.321414310426642D+03
 0.352294100255637D+03 0.179040782934568D+03 0.141064009455500D+03 0.268619575529120D+03
 0.868862147596834D+02 0.731391665753219D+02 0.840621641674450D+01 0.461433868879172D+02
 0.976771330845992D+02 -.343248438333134D+02 0.177077641171306D+01 0.665134800960469D+01
 0.000000000000000D+00 -.000000000000000D+00 0.000000000000000D+00 -.000000000000000D+00
 0.686370721446807D+03 0.000000000000000D+00 0.000000000000000D+00 0.686370721446807D+03
 0.152963846726387D+04 0.000000000000000D+00 0.000000000000000D+00 -.152963846726387D+04
 0.428397826113248D+03 0.126424900151444D+02 -.267847819803971D+03 -.321414310426642D+03
 0.486966424148207D+03 0.405305231569780D+03 0.265987058409684D+02 0.268619575529120D+03
 0.145217583180092D+03 0.135714298301297D+03 -.232500225325787D+02 0.461433868879172D+02
 0.964029199016138D+02 0.179990948044670D+02 -.246994691730792D+02 0.665134800960469D+01
 0.105902443536752D+04 -.571661114690688D+03 0.289198605668660D+03 -.843267745817066D+03
0.110671722392D-04 0.000000000000D+00 0.000000000000D+00 0.290902591532D-06 0.000000000000D+00  7 -2 2 23 -11 11 23 21 0 0.35399514D-01 0.15514896D+00 0.11541399D+06 0.11541399D+06 0.11541399D+06 0.11166485D+01  1  2  2  2  7  2        2 0.259582518793D-03 0.100000000000D+01
-.523683120629D-06 0.000000000000D+00 -.425008554519D-07 0.290902591532D-06 0.000000000000D+00  7 -2 2 23 -11 11 23 21 2 0.35399514D-01 0.15514896D+00 0.11541399D+06 0.11541399D+06 0.11541399D+06 0.11166485D+01  1  2  3  2  7  2        2 -.153158236815D-04 0.100000000000D+01
0.664322614721D-06 0.000000000000D+00 0.000000000000D+00 0.290902591532D-06 0.000000000000D+00  7 -2 2 23 -11 11 23 21 2 0.35399514D-01 0.15514896D+00 0.11541399D+06 0.11541399D+06 0.11541399D+06 0.11166485D+01  1  2 15  2  7  2        2 0.194290165825D-04 0.100000000000D+01
-.202518838252D-06 0.000000000000D+00 -.349933815800D-05 0.290902591532D-06 0.000000000000D+00  7 -2 2 23 -11 11 23 21 2 0.35399514D-01 0.53755410D+00 0.11541399D+06 0.11541399D+06 0.11541399D+06 0.11166485D+01  1  2  5  2  7  2        2 -.211728904475D-06 0.100000000000D+01
0.872148873551D-07 0.000000000000D+00 -.507869452538D-06 0.290902591532D-06 0.000000000000D+00  7 -2 21 23 -11 11 23 -2 2 0.35399514D-01 0.53755410D+00 0.11541399D+06 0.11541399D+06 0.11541399D+06 0.11166485D+01  1  2  5  4  7  2        2 0.339847377985D-08 0.100000000000D+01
  </mgrwgt>
  </event>
  <event>
  8     66 0.53686478E-06 0.20552194E+03 0.75467711E-02 0.10294118E+00
       -2 -1    0    0    0  501 0.00000000E+00 0.00000000E+00 0.15939151E+03 0.15939183E+03 0.32000000E+00 0.0000E+00 0.9000E+01
        2 -1    0    0  501    0 0.00000000E+00 0.00000000E+00 -.86760585E+03 0.86760591E+03 0.32000000E+00 0.0000E+00 0.9000E+01
       25  2    1    2    0    0 0.12990014E+02 0.13039185E+03 -.77679945E+03 0.84673901E+03 0.31044936E+03 0.0000E+00 0.0000E+00
       23  2    1    2    0    0 -.12990014E+02 -.13039185E+03 0.68585105E+02 0.18025873E+03 0.10304620E+03 0.0000E+00 0.0000E+00
       23  1    3    3    0    0 -.64306164E+02 0.31326868E+02 -.60154036E+03 0.61260322E+03 0.91188000E+02 0.0000E+00 0.9000E+01
      -13  1    4    4    0    0 0.24276908E+01 -.12259059E+03 0.90467237E+02 0.15237677E+03 0.10565837E+00 0.0000E+00 0.9000E+01
       13  1    4    4    0    0 -.15417705E+02 -.78012549E+01 -.21882132E+02 0.27881967E+02 0.10565837E+00 0.0000E+00 0.9000E+01
       23  1    3    3    0    0 0.77296178E+02 0.99064979E+02 -.17525909E+03 0.23413579E+03 0.91188000E+02 0.0000E+00 0.9000E+01
#aMCatNLO 1  0  0  1  1 0.98206427D+02 0.00000000D+00  -5  7  0 0.00000000D+00 0.00000000D+00 0.00000000D+00 0.00000000D+00 0.00000000D+00
  <mgrwgt>
 0.1874064032D-03    4    2    0
 0.371872565519397D+03 0.000000000000000D+00 0.000000000000000D+00 0.371872565519397D+03
 0.371872565519397D+03 0.000000000000000D+00 0.000000000000000D+00 -.371872565519397D+03
 0.273107802629412D+03 -.643061010257371D+02 0.313269306832707D+02 -.247297329742759D+03
 0.296554631920555D+03 0.242769690858938D+01 -.122590749424363D+03 0.270019007028818D+03
 0.176636470040387D+02 -.154177145136543D+02 -.780113606789987D+01 -.366616703231738D+01
 0.156419049484790D+03 0.772961186308021D+02 0.990649548089918D+02 -.190555102537413D+02
 0.000000000000000D+00 -.000000000000000D+00 -.000000000000000D+00 -.000000000000000D+00
 0.406949410284530D+03 0.000000000000000D+00 0.000000000000000D+00 0.406949410284530D+03
 0.450805374131146D+03 0.000000000000000D+00 0.000000000000000D+00 -.450805374131146D+03
 0.267092130106146D+03 -.288062426853183D+02 0.322053676441387D+02 -.247297329742759D+03
 0.299048766911373D+03 0.415684575868324D+02 -.121622219056536D+03 0.270019007028818D+03
 0.157563062225154D+02 -.132214839453198D+02 -.774679077763665D+01 -.366616703231738D+01
 0.168303651333864D+03 0.986356434630339D+02 0.995929971228579D+02 -.190555102537413D+02
 0.107553929841777D+03 -.981763744192282D+02 -.242935493282430D+01 -.438559638466159D+02
0.509580645677D-05 0.000000000000D+00 0.000000000000D+00 0.678744887720D-10 0.000000000000D+00  7 -2 2 23 -13 13 23 21 0 0.24521800D-01 0.13347785D+00 0.42239266D+05 0.42239266D+05 0.42239266D+05 0.11537950D+01  1  2  2  1  7  1       -2 0.282378626879D-03 0.100000000000D+01
-.162060321284D-06 0.000000000000D+00 -.195692385506D-07 0.678744887720D-10 0.000000000000D+00  7 -2 2 23 -13 13 23 21 2 0.24521800D-01 0.13347785D+00 0.42239266D+05 0.42239266D+05 0.42239266D+05 0.11537950D+01  1  2  3  1  7  1       -2 -.119550919271D-04 0.100000000000D+01
0.306399266963D-06 0.000000000000D+00 0.000000000000D+00 0.678744887720D-10 0.000000000000D+00  7 -2 2 23 -13 13 23 21 2 0.24521800D-01 0.13347785D+00 0.42239266D+05 0.42239266D+05 0.42239266D+05 0.11537950D+01  1  2 15  1  7  1       -2 0.226028886893D-04 0.100000000000D+01
-.143175933330D-05 0.000000000000D+00 0.000000000000D+00 0.678744887720D-10 0.000000000000D+00  7 -2 2 23 -13 13 23 21 2 0.24521800D-01 0.13347785D+00 0.42239266D+05 0.42239266D+05 0.42239266D+05 0.11537950D+01  1  2  4  1  7  1       -2 -.105620020444D-03 0.100000000000D+01
  </mgrwgt>
  </event>
  <event>
  8     66 0.53686478E-06 0.91803305E+02 0.75467711E-02 0.10540652E+00
       -2 -1    0    0    0  501 0.00000000E+00 0.00000000E+00 0.65457943E+02 0.65458725E+02 0.32000000E+00 0.0000E+00 0.9000E+01
        2 -1    0    0  501    0 0.00000000E+00 0.00000000E+00 -.87276610E+03 0.87276616E+03 0.32000000E+00 0.0000E+00 0.9000E+01
       25  2    1    2    0    0 -.49508407E+02 -.54747142E+02 -.74496106E+03 0.80585651E+03 0.29831091E+03 0.0000E+00 0.0000E+00
       23  2    1    2    0    0 0.49508407E+02 0.54747142E+02 -.62347098E+02 0.13236838E+03 0.90475933E+02 0.0000E+00 0.0000E+00
       23  1    3    3    0    0 -.11504328E+03 0.12001334E+02 -.21905452E+03 0.26396803E+03 0.91188000E+02 0.0000E+00 0.9000E+01
      -13  1    4    4    0    0 0.64382291E+02 0.13163778E+02 -.58597920E+02 0.88045965E+02 0.10565837E+00 0.0000E+00 0.9000E+01
       13  1    4    4    0    0 -.14873884E+02 0.41583365E+02 -.37491778E+01 0.44322411E+02 0.10565837E+00 0.0000E+00 0.9000E+01
       23  1    3    3    0    0 0.65534875E+02 -.66748476E+02 -.52590654E+03 0.54188848E+03 0.91188000E+02 0.0000E+00 0.9000E+01
#aMCatNLO 1  0  0  2  1 0.37359637D+02 0.00000000D+00  -5  7  0 0.00000000D+00 0.00000000D+00 0.00000000D+00 0.00000000D+00 0.00000000D+00
  <mgrwgt>
 0.2516370721D-03    9    2    0
 0.239018551871105D+03 0.000000000000000D+00 0.000000000000000D+00 0.239018551871105D+03
 0.239018551871105D+03 0.000000000000000D+00 0.000000000000000D+00 -.239018551871105D+03
 0.148140960444941D+03 -.115043279284159D+03 0.120013307541570D+02 0.158589018921766D+02
 0.738443360720091D+02 0.643823997574520D+02 0.131637406967976D+02 0.336839502174989D+02
 0.806582853664807D+02 -.148739896699400D+02 0.415834048981416D+02 0.674932875672564D+02
 0.175393521858779D+03 0.655348691966474D+02 -.667484763490961D+02 -.117036139676932D+03
 0.000000000000000D+00 -.000000000000000D+00 0.000000000000000D+00 -.000000000000000D+00
 0.255196112282457D+03 0.000000000000000D+00 0.000000000000000D+00 0.255196112282457D+03
 0.262334050933206D+03 0.000000000000000D+00 0.000000000000000D+00 -.262334050933206D+03
 0.142024436090568D+03 -.107668688683477D+03 0.341142357359397D+01 0.158589018921766D+02
 0.765664943395279D+02 0.682051102165124D+02 0.871105582254035D+01 0.336839502174989D+02
 0.776812486991743D+02 -.108497701951893D+02 0.368960027582689D+02 0.674932875672564D+02
 0.183222570645605D+03 0.746491429750251D+02 -.773647627321345D+02 -.117036139676932D+03
 0.380354134407881D+02 -.243357943128708D+02 0.283462805777313D+02 -.713793865074932D+01
0.586527703714D-06 0.000000000000D+00 0.000000000000D+00 0.100674563916D-07 0.000000000000D+00  7 -2 2 23 -13 13 23 21 0 0.10070517D-01 0.13427177D+00 0.37597642D+05 0.37597642D+05 0.37597642D+05 0.11583475D+01  1  2  2  2  7  2        2 0.133235868135D-03 0.100000000000D+01
-.308511033999D-07 0.000000000000D+00 -.225242081855D-08 0.100674563916D-07 0.000000000000D+00  7 -2 2 23 -13 13 23 21 2 0.10070517D-01 0.13427177D+00 0.37597642D+05 0.37597642D+05 0.37597642D+05 0.11583475D+01  1  2  3  2  7  2        2 -.940331652567D-05 0.100000000000D+01
0.352138956793D-07 0.000000000000D+00 0.000000000000D+00 0.100674563916D-07 0.000000000000D+00  7 -2 2 23 -13 13 23 21 2 0.10070517D-01 0.13427177D+00 0.37597642D+05 0.37597642D+05 0.37597642D+05 0.11583475D+01  1  2 15  2  7  2        2 0.107330815006D-04 0.100000000000D+01
0.806470289031D-06 0.000000000000D+00 0.000000000000D+00 0.100674563916D-07 0.000000000000D+00  7 -2 2 23 -13 13 23 21 2 0.10070517D-01 0.15153899D+00 0.45515026D+05 0.45515026D+05 0.45515026D+05 0.11509029D+01  1  2 12  2  7  2        2 0.207034164781D-03 0.100000000000D+01
-.717793562435D-06 0.000000000000D+00 0.000000000000D+00 0.100674563916D-07 0.000000000000D+00  7 -2 2 23 -13 13 23 21 2 0.10070517D-01 0.13427177D+00 0.37597642D+05 0.37597642D+05 0.37597642D+05 0.11583475D+01  1  2  4  2  7  2        2 -.218781156063D-03 0.100000000000D+01
-.224946780475D-05 0.000000000000D+00 -.558546046394D-06 0.100674563916D-07 0.000000000000D+00  7 -2 2 23 -13 13 23 21 2 0.10070517D-01 0.15437573D+00 0.37597642D+05 0.37597642D+05 0.37597642D+05 0.11583475D+01  1  2  5  2  7  2        2 -.569724835101D-03 0.100000000000D+01
0.231026765607D-05 0.000000000000D+00 0.553153238305D-06 0.100674563916D-07 0.000000000000D+00  7 -2 2 23 -13 13 23 21 2 0.10070517D-01 0.13427177D+00 0.37597642D+05 0.37597642D+05 0.37597642D+05 0.11583475D+01  1  2  6  2  7  2        2 0.704162108805D-03 0.100000000000D+01
0.154063970666D-07 0.000000000000D+00 0.000000000000D+00 0.100674563916D-07 0.000000000000D+00  7 -2 21 23 -13 13 23 -2 2 0.10070517D-01 0.15153899D+00 0.45515026D+05 0.45515026D+05 0.45515026D+05 0.11509029D+01  1  2 12  4  7  2        2 0.307959720064D-05 0.100000000000D+01
-.449712160911D-07 0.000000000000D+00 -.120111180338D-07 0.100674563916D-07 0.000000000000D+00  7 -2 21 23 -13 13 23 -2 2 0.10070517D-01 0.15437573D+00 0.37597642D+05 0.37597642D+05 0.37597642D+05 0.11583475D+01  1  2  5  4  7  2        2 -.869844062124D-05 0.100000000000D+01
  </mgrwgt>
  </event>
  <event>
  8     66 0.53686478E-06 0.18451879E+03 0.75467711E-02 0.80399072E-01
       -2 -1    0    0    0  501 0.00000000E+00 0.00000000E+00 0.22679547E+03 0.22679569E+03 0.32000000E+00 0.0000E+00 0.9000E+01
        2 -1    0    0  501    0 0.00000000E+00 0.00000000E+00 -.26402308E+03 0.26402328E+03 0.32000000E+00 0.0000E+00 0.9000E+01
       25  2    1    2    0    0 -.68258043E+02 0.84220537E+02 -.10205440E+03 0.33552692E+03 0.30068415E+03 0.0000E+00 0.0000E+00
       23  2    1    2    0    0 0.68258043E+02 -.84220537E+02 0.64826780E+02 0.15529205E+03 0.90337417E+02 0.0000E+00 0.0000E+00
       23  1    3    3    0    0 -.22595411E+02 0.84846949E+02 -.17075555E+03 0.21256121E+03 0.91188000E+02 0.0000E+00 0.9000E+01
      -11  1    4    4    0    0 0.56528278E+02 -.10348053E+03 0.59701147E+02 0.13216616E+03 0.51099893E-03 0.0000E+00 0.9000E+01
       11  1    4    4    0    0 0.11729765E+02 0.19259991E+02 0.51256329E+01 0.23125889E+02 0.51099893E-03 0.0000E+00 0.9000E+01
       23  1    3    3    0    0 -.45662632E+02 -.62641291E+00 0.68701151E+02 0.12296572E+03 0.91188000E+02 0.0000E+00 0.9000E+01
#aMCatNLO 1  0  0  2  2 0.21843285D+04 0.00000000D+00  -5  7  0 0.00000000D+00 0.00000000D+00 0.00000000D+00 0.00000000D+00 0.00000000D+00
  <mgrwgt>
 0.3872276576D-03    3    2    0
 0.244702557132049D+03 0.000000000000000D+00 0.000000000000000D+00 0.244702557132049D+03
 0.244702557132049D+03 0.000000000000000D+00 0.000000000000000D+00 -.244702557132049D+03
 0.200186404046605D+03 -.225954107949022D+02 0.848469494470078D+02 -.155079939391455D+03
 0.137089266677939D+03 0.565282780806390D+02 -.103480527858573D+03 0.699271132654850D+02
 0.235825903895122D+02 0.117297648446338D+02 0.192599913158655D+02 0.689955945563849D+01
 0.128546853150041D+03 -.456626321303706D+02 -.626412904300018D+00 0.782532666703313D+02
 0.000000000000000D+00 -.000000000000000D+00 0.000000000000000D+00 0.000000000000000D+00
 0.288975484585247D+04 0.000000000000000D+00 0.000000000000000D+00 0.288975484585247D+04
 0.179295759222225D+04 0.000000000000000D+00 0.000000000000000D+00 -.179295759222225D+04
 0.776419988145768D+03 0.755276407807191D+03 0.452844967771297D+01 -.155079939391455D+03
 0.925431812428796D+03 0.902831569473604D+03 -.190864861741056D+03 0.699271132654850D+02
 0.151110914723853D+03 0.150874005151572D+03 0.489276992317446D+01 0.689955945563849D+01
 0.385520771060633D+03 0.363794771513620D+03 -.429045924110687D+02 0.782532666703313D+02
 0.244422895171567D+04 -.217277675394599D+04 0.224348234551237D+03 0.109679725363021D+04
0.333744555229D-05 0.000000000000D+00 0.000000000000D+00 0.703478885896D-07 0.000000000000D+00  7 -2 2 23 -11 11 23 21 0 0.34891642D-01 0.40618968D-01 0.34047182D+05 0.34047182D+05 0.34047182D+05 0.11622707D+01  1  2  2  2  7  2        2 0.381273228781D-03 0.100000000000D+01
-.167448909187D-06 0.000000000000D+00 -.128166696904D-07 0.703478885896D-07 0.000000000000D+00  7 -2 2 23 -11 11 23 21 2 0.34891642D-01 0.40618968D-01 0.34047182D+05 0.34047182D+05 0.34047182D+05 0.11622707D+01  1  2  3  2  7  2        2 -.258415793104D-04 0.100000000000D+01
0.206032565169D-06 0.000000000000D+00 0.000000000000D+00 0.703478885896D-07 0.000000000000D+00  7 -2 2 23 -11 11 23 21 2 0.34891642D-01 0.40618968D-01 0.34047182D+05 0.34047182D+05 0.34047182D+05 0.11622707D+01  1  2 15  2  7  2        2 0.317960081029D-04 0.100000000000D+01
  </mgrwgt>
  </event>
  <event>
  8     66 0.53686478E-06 0.45435078E+03 0.75467711E-02 0.92672946E-01
       -2 -1    0    0    0  501 0.00000000E+00 0.00000000E+00 0.28175178E+03 0.28175196E+03 0.32000000E+00 0.0000E+00 0.9000E+01
        2 -1    0    0  501    0 0.00000000E+00 0.00000000E+00 -.83808812E+03 0.83808818E+03 0.32000000E+00 0.0000E+00 0.9000E+01
       25  2    1    2    0    0 -.11237449E+03 -.41803870E+03 -.34442091E+03 0.62915135E+03 0.29970198E+03 0.0000E+00 0.0000E+00
       23  2    1    2    0    0 0.11237449E+03 0.41803870E+03 -.21191543E+03 0.49068879E+03 0.92102951E+02 0.0000E+00 0.0000E+00
       23  1    3    3    0    0 -.60064725E+02 -.29114830E+03 -.34488978E+03 0.46436980E+03 0.91188000E+02 0.0000E+00 0.9000E+01
      -13  1    4    4    0    0 0.81746679E+01 0.22597085E+02 0.92794522E+01 0.25759908E+02 0.10565837E+00 0.0000E+00 0.9000E+01
       13  1    4    4    0    0 0.10419983E+03 0.39544162E+03 -.22119489E+03 0.46492888E+03 0.10565837E+00 0.0000E+00 0.9000E+01
       23  1    3    3    0    0 -.52309769E+02 -.12689041E+03 0.46887111E+00 0.16478155E+03 0.91188000E+02 0.0000E+00 0.9000E+01
#aMCatNLO 1  0  0  1  1 0.24665533D+03 0.00000000D+00  -5  7  0 0.00000000D+00 0.00000000D+00 0.00000000D+00 0.00000000D+00 0.00000000D+00
  <mgrwgt>
 0.3261908389D-03    4    2    0
 0.485935133584722D+03 0.000000000000000D+00 0.000000000000000D+00 0.485935133584722D+03
 0.485935133584722D+03 0.000000000000000D+00 0.000000000000000D+00 -.485935133584722D+03
 0.337643036206175D+03 -.600647248818017D+02 -.291148298450479D+03 -.131576843284784D+03
 0.349933506546916D+02 0.817454150858170D+01 0.225965948362254D+02 0.254382657226108D+02
 0.409095497739978D+03 0.104199952473599D+03 0.395442109282539D+03 0.112709530119287D+02
 0.190138382568599D+03 -.523097691003787D+02 -.126890405668285D+03 0.948676245502445D+02
 0.000000000000000D+00 -.000000000000000D+00 0.000000000000000D+00 -.000000000000000D+00
 0.583064532304419D+03 0.000000000000000D+00 0.000000000000000D+00 0.583064532304419D+03
 0.687452352539230D+03 0.000000000000000D+00 0.000000000000000D+00 -.687452352539230D+03
 0.395388333574870D+03 -.148555154118472D+01 -.361527330130023D+03 -.131576843284784D+03
 0.330221572977254D+02 0.136099053885543D+02 0.160663619072946D+02 0.254382657226108D+02
 0.361845934462077D+03 0.165808655257925D+03 0.321423296832223D+03 0.112709530119287D+02
 0.212425311626652D+03 -.201394563483520D+02 -.165540924806728D+03 0.948676245502445D+02
 0.267835147882325D+03 -.157793552756942D+03 0.189578596197233D+03 -.104387820234811D+03
0.203574708257D-04 0.000000000000D+00 0.000000000000D+00 0.881336115384D-06 0.000000000000D+00  7 -2 2 23 -13 13 23 21 0 0.43346446D-01 0.12893665D+00 0.20643464D+06 0.20643464D+06 0.20643464D+06 0.10967707D+01  1  2  2  1  7  1       -2 0.415179773559D-03 0.100000000000D+01
-.112475985724D-05 0.000000000000D+00 -.781780482157D-07 0.881336115384D-06 0.000000000000D+00  7 -2 2 23 -13 13 23 21 2 0.43346446D-01 0.12893665D+00 0.20643464D+06 0.20643464D+06 0.20643464D+06 0.10967707D+01  1  2  3  1  7  1       -2 -.275933139386D-04 0.100000000000D+01
0.123587556061D-05 0.000000000000D+00 0.000000000000D+00 0.881336115384D-06 0.000000000000D+00  7 -2 2 23 -13 13 23 21 2 0.43346446D-01 0.12893665D+00 0.20643464D+06 0.20643464D+06 0.20643464D+06 0.10967707D+01  1  2 15  1  7  1       -2 0.303192740332D-04 0.100000000000D+01
-.373848651005D-05 0.000000000000D+00 0.000000000000D+00 0.881336115384D-06 0.000000000000D+00  7 -2 2 23 -13 13 23 21 2 0.43346446D-01 0.12893665D+00 0.20643464D+06 0.20643464D+06 0.20643464D+06 0.10967707D+01  1  2  4  1  7  1       -2 -.917148947513D-04 0.100000000000D+01
  </mgrwgt>
  </event>
  <event>
  8     66 0.53686478E-06 0.19376328E+03 0.75467711E-02 0.10048899E+00
       -2 -1    0    0    0  501 0.00000000E+00 0.00000000E+00 0.11124999E+03 0.11125045E+03 0.32000000E+00 0.0000E+00 0.9000E+01
        2 -1    0    0  501    0 0.00000000E+00 0.00000000E+00 -.93083482E+03 0.93083487E+03 0.32000000E+00 0.0000E+00 0.9000E+01
       25  2    1    2    0    0 -.14168397E+03 -.18887103E+03 -.40797077E+03 0.55904007E+03 0.30056453E+03 0.0000E+00 0.0000E+00
       23  2    1    2    0    0 0.14168397E+03 0.18887103E+03 -.41161406E+03 0.48304525E+03 0.90332540E+02 0.0000E+00 0.0000E+00
       23  1    3    3    0    0 -.16934098E+03 -.19450084E+03 -.36022251E+03 0.45230791E+03 0.91188000E+02 0.0000E+00 0.9000E+01
      -13  1    4    4    0    0 0.10208986E+03 0.11622009E+03 -.18133152E+03 0.23834970E+03 0.10565837E+00 0.0000E+00 0.9000E+01
       13  1    4    4    0    0 0.39594110E+02 0.72650937E+02 -.23028254E+03 0.24469555E+03 0.10565837E+00 0.0000E+00 0.9000E+01
       23  1    3    3    0    0 0.27657010E+02 0.56298069E+01 -.47748257E+02 0.10673215E+03 0.91188000E+02 0.0000E+00 0.9000E+01
#aMCatNLO 1  0  0  1  2 0.87270854D+01 0.00000000D+00  -5  7  0 0.00000000D+00 0.00000000D+00 0.00000000D+00 0.00000000D+00 0.00000000D+00
  <mgrwgt>
 0.1072145004D-03   11    2    0
 0.321800608273934D+03 0.000000000000000D+00 0.000000000000000D+00 0.321800608273934D+03
 0.321800608273934D+03 0.000000000000000D+00 0.000000000000000D+00 -.321800608273934D+03
 0.273633006401683D+03 -.169340977577603D+03 -.194500838190272D+03 -.726829448818606D+01
 0.155009355744412D+03 0.102089943518146D+03 0.116220154621753D+03 0.992065826723266D+01
 0.102948093752274D+03 0.395940246682798D+02 0.726508773625118D+02 -.612574341304951D+02
 0.112010760649498D+03 0.276570093911775D+02 0.562980620600726D+01 0.586050703514485D+02
 0.000000000000000D+00 0.000000000000000D+00 0.000000000000000D+00 0.000000000000000D+00
 0.328159534795170D+03 0.000000000000000D+00 0.000000000000000D+00 0.328159534795170D+03
 0.324838481866219D+03 0.000000000000000D+00 0.000000000000000D+00 -.324838481866219D+03
 0.277153491289975D+03 -.171706872858682D+03 -.197389787219469D+03 -.726829448818606D+01
 0.152927277038394D+03 0.100767206251663D+03 0.114604985695027D+03 0.992065826723266D+01
 0.101855228766660D+03 0.387142950156329D+02 0.715766564761119D+02 -.612574341304951D+02
 0.111724385375127D+03 0.266959583697569D+02 0.445628536696347D+01 0.586050703514485D+02
 0.933763419123383D+01 0.552941322162926D+01 0.675185968136723D+01 0.332105292895164D+01
0.127262291305D-05 0.000000000000D+00 0.000000000000D+00 0.202036783304D-06 0.000000000000D+00  7 -2 2 23 -13 13 23 21 0 0.17115423D-01 0.14320540D+00 0.91937408D+05 0.91937408D+05 0.91937408D+05 0.11247303D+01  1  2  2  1  7  1       -2 0.115644137271D-03 0.100000000000D+01
-.703969394458D-07 0.000000000000D+00 -.488720707541D-08 0.202036783304D-06 0.000000000000D+00  7 -2 2 23 -13 13 23 21 2 0.17115423D-01 0.14320540D+00 0.91937408D+05 0.91937408D+05 0.91937408D+05 0.11247303D+01  1  2  3  1  7  1       -2 -.809234604617D-05 0.100000000000D+01
0.815412741393D-07 0.000000000000D+00 0.000000000000D+00 0.202036783304D-06 0.000000000000D+00  7 -2 2 23 -13 13 23 21 2 0.17115423D-01 0.14320540D+00 0.91937408D+05 0.91937408D+05 0.91937408D+05 0.11247303D+01  1  2 15  1  7  1       -2 0.937342180747D-05 0.100000000000D+01
0.143276241160D-05 0.000000000000D+00 0.000000000000D+00 0.202036783304D-06 0.000000000000D+00  7 -2 2 23 -13 13 23 21 2 0.17533230D-01 0.14320540D+00 0.94521201D+05 0.94521201D+05 0.94521201D+05 0.11237357D+01  1  2 12  1  7  1       -2 0.158072396092D-03 0.100000000000D+01
-.134579567249D-05 0.000000000000D+00 0.000000000000D+00 0.202036783304D-06 0.000000000000D+00  7 -2 2 23 -13 13 23 21 2 0.17115423D-01 0.14320540D+00 0.91937408D+05 0.91937408D+05 0.91937408D+05 0.11247303D+01  1  2  4  1  7  1       -2 -.154703377376D-03 0.100000000000D+01
-.445558949088D-04 0.000000000000D+00 -.569276453717D-05 0.202036783304D-06 0.000000000000D+00  7 -2 2 23 -13 13 23 21 2 0.17614679D-01 0.14320540D+00 0.91937408D+05 0.91937408D+05 0.91937408D+05 0.11247303D+01  1  2  5  1  7  1       -2 -.488834222741D-02 0.100000000000D+01
0.447034494492D-04 0.000000000000D+00 0.569041220395D-05 0.202036783304D-06 0.000000000000D+00  7 -2 2 23 -13 13 23 21 2 0.17115423D-01 0.14320540D+00 0.91937408D+05 0.91937408D+05 0.91937408D+05 0.11247303D+01  1  2  6  1  7  1       -2 0.513879985761D-02 0.100000000000D+01
0.558074990650D-08 0.000000000000D+00 0.000000000000D+00 0.202036783304D-06 0.178704696801D-07  7 -2 2 23 -13 13 23 21 2 0.17453631D-01 0.14455729D+00 0.94521201D+05 0.94521201D+05 0.94521201D+05 0.11237357D+01  1  2 11  1  7  1       -2 0.612451482106D-06 0.100000000000D+01
0.454083132716D-07 0.000000000000D+00 0.000000000000D+00 0.202036783304D-06 0.000000000000D+00  7 21 2 23 -13 13 23 2 2 0.17533230D-01 0.14320540D+00 0.94521201D+05 0.94521201D+05 0.94521201D+05 0.11237357D+01  1  2 12  3  7  1       -2 0.660077306907D-04 0.100000000000D+01
-.228472942225D-06 0.000000000000D+00 -.294087299162D-07 0.202036783304D-06 0.000000000000D+00  7 21 2 23 -13 13 23 2 2 0.17614679D-01 0.14320540D+00 0.91937408D+05 0.91937408D+05 0.91937408D+05 0.11247303D+01  1  2  5  3  7  1       -2 -.330196005136D-03 0.100000000000D+01
0.265763374849D-10 0.000000000000D+00 0.000000000000D+00 0.202036783304D-06 0.638560926694D-10  7 21 2 23 -13 13 23 2 2 0.17453631D-01 0.14455729D+00 0.94521201D+05 0.94521201D+05 0.94521201D+05 0.11237357D+01  1  2 11  3  7  1       -2 0.384614165006D-07 0.100000000000D+01
  </mgrwgt>
  </event>
  <event>
  8     66 0.53686478E-06 0.75458303E+03 0.75467711E-02 0.88517773E-01
       -2 -1    0    0    0  501 0.00000000E+00 0.00000000E+00 0.93347006E+03 0.93347011E+03 0.32000000E+00 0.0000E+00 0.9000E+01
        2 -1    0    0  501    0 0.00000000E+00 0.00000000E+00 -.80364205E+03 0.80364211E+03 0.32000000E+00 0.0000E+00 0.9000E+01
       25  2    1    2    0    0 -.55025762E+03 0.49639385E+03 -.32418656E+03 0.86331773E+03 0.30171224E+03 0.0000E+00 0.0000E+00
       23  2    1    2    0    0 0.55025762E+03 -.49639385E+03 0.45401457E+03 0.87379450E+03 0.90538866E+02 0.0000E+00 0.0000E+00
       23  1    3    3    0    0 -.26338244E+03 0.29322842E+03 -.48686090E+02 0.40747859E+03 0.91188000E+02 0.0000E+00 0.9000E+01
      -13  1    4    4    0    0 0.31536641E+03 -.29997829E+03 0.31639889E+03 0.53809963E+03 0.10565837E+00 0.0000E+00 0.9000E+01
       13  1    4    4    0    0 0.23489121E+03 -.19641556E+03 0.13761568E+03 0.33569486E+03 0.10565837E+00 0.0000E+00 0.9000E+01
       23  1    3    3    0    0 -.28687518E+03 0.20316543E+03 -.27550047E+03 0.45583914E+03 0.91188000E+02 0.0000E+00 0.9000E+01
#aMCatNLO 1  0  0  2  1 0.25215156D+03 0.00000000D+00  -5  7  0 0.00000000D+00 0.00000000D+00 0.00000000D+00 0.00000000D+00 0.00000000D+00
  <mgrwgt>
 0.1381301294D-03    4    2    0
 0.866126950130533D+03 0.000000000000000D+00 0.000000000000000D+00 0.866126950130533D+03
 0.866126950130533D+03 0.000000000000000D+00 0.000000000000000D+00 -.866126950130533D+03
 0.412270313468389D+03 -.263382440735664D+03 0.293228416513081D+03 -.793621174407497D+02
 0.515895771000473D+03 0.315366516890262D+03 -.299978430537846D+03 0.276957303158316D+03
 0.326322157860156D+03 0.234891102908689D+03 -.196415417027987D+03 0.112841944500131D+03
 0.477765657932048D+03 -.286875179063287D+03 0.203165431052751D+03 -.310437130217697D+03
 0.000000000000000D+00 0.000000000000000D+00 -.000000000000000D+00 0.000000000000000D+00
 0.106206017889188D+04 0.000000000000000D+00 0.000000000000000D+00 0.106206017889188D+04
 0.960343931156718D+03 0.000000000000000D+00 0.000000000000000D+00 -.960343931156718D+03
 0.473748875704622D+03 -.301712082129800D+03 0.344665373514101D+03 -.793621174407497D+02
 0.458889613814037D+03 0.273196804661953D+03 -.243388240915964D+03 0.276957303158316D+03
 0.286405497683626D+03 0.208384192453190D+03 -.160844126409599D+03 0.112841944500131D+03
 0.531465648601331D+03 -.330535039409276D+03 0.261755344174942D+03 -.310437130217697D+03
 0.271894474244980D+03 0.150666124423933D+03 -.202188350363480D+03 0.101716247735161D+03
0.152299877975D-03 0.000000000000D+00 0.000000000000D+00 0.460963747687D-06 0.000000000000D+00  7 -2 2 23 -13 13 23 21 0 0.14361079D+00 0.12363725D+00 0.56939556D+06 0.56939556D+06 0.56939556D+06 0.10645440D+01  1  2  2  2  7  2        2 0.208323923856D-03 0.100000000000D+01
-.826556958131D-05 0.000000000000D+00 -.584871632902D-06 0.460963747687D-06 0.000000000000D+00  7 -2 2 23 -13 13 23 21 2 0.14361079D+00 0.12363725D+00 0.56939556D+06 0.56939556D+06 0.56939556D+06 0.10645440D+01  1  2  3  2  7  2        2 -.128126679853D-04 0.100000000000D+01
0.939884565310D-05 0.000000000000D+00 0.000000000000D+00 0.460963747687D-06 0.000000000000D+00  7 -2 2 23 -13 13 23 21 2 0.14361079D+00 0.12363725D+00 0.56939556D+06 0.56939556D+06 0.56939556D+06 0.10645440D+01  1  2 15  2  7  2        2 0.145693878218D-04 0.100000000000D+01
-.464159363776D-04 0.000000000000D+00 0.000000000000D+00 0.460963747687D-06 0.000000000000D+00  7 -2 2 23 -13 13 23 21 2 0.14361079D+00 0.12363725D+00 0.56939556D+06 0.56939556D+06 0.56939556D+06 0.10645440D+01  1  2  4  2  7  2        2 -.719505142607D-04 0.100000000000D+01
  </mgrwgt>
  </event>
  <event>
  8     66 0.53686478E-06 0.16785472E+03 0.75467711E-02 0.86161763E-01
       -2 -1    0    0    0  501 0.00000000E+00 0.00000000E+00 0.38250315E+03 0.38250328E+03 0.32000000E+00 0.0000E+00 0.9000E+01
        2 -1    0    0  501    0 0.00000000E+00 0.00000000E+00 -.10403360E+03 0.10403409E+03 0.32000000E+00 0.0000E+00 0.9000E+01
       25  2    1    2    0    0 -.68599830E+01 -.32530793E+02 0.20612456E+03 0.36529726E+03 0.29974896E+03 0.0000E+00 0.0000E+00
       23  2    1    2    0    0 0.68599830E+01 0.32530793E+02 0.72344982E+02 0.12124012E+03 0.91433349E+02 0.0000E+00 0.0000E+00
       23  1    3    3    0    0 0.11326465E+03 -.38743939E+02 0.10886831E+03 0.18573512E+03 0.91188000E+02 0.0000E+00 0.9000E+01
      -11  1    4    4    0    0 0.27899193E+01 0.28208687E+02 0.94314708E+02 0.98482373E+02 0.51099893E-03 0.0000E+00 0.9000E+01
       11  1    4    4    0    0 0.40700637E+01 0.43221064E+01 -.21969725E+02 0.22757743E+02 0.51099893E-03 0.0000E+00 0.9000E+01
       23  1    3    3    0    0 -.12012464E+03 0.62131453E+01 0.97256253E+02 0.17956214E+03 0.91188000E+02 0.0000E+00 0.9000E+01
#aMCatNLO 1  0  0  2  1 0.11129270D+04 0.00000000D+00  -5  7  0 0.00000000D+00 0.00000000D+00 0.00000000D+00 0.00000000D+00 0.00000000D+00
  <mgrwgt>
 0.3919288423D-03    5    2    0
 0.199482660683920D+03 0.000000000000000D+00 0.000000000000000D+00 0.199482660683920D+03
 0.199482660683920D+03 0.000000000000000D+00 0.000000000000000D+00 -.199482660683920D+03
 0.150515758581429D+03 0.113264650928296D+03 -.387439408381217D+02 0.312540169680237D+01
 0.542693329816422D+02 0.278991986543164D+01 0.282086895990552D+02 0.462779286541758D+02
 0.430874334793006D+02 0.407006419978115D+01 0.432210860992094D+01 -.426764675015032D+02
 0.151092796325468D+03 -.120124634993508D+03 0.621314262914558D+01 -.672686284947493D+01
 0.000000000000000D+00 0.000000000000000D+00 0.000000000000000D+00 -.000000000000000D+00
 0.999136268850980D+03 0.000000000000000D+00 0.000000000000000D+00 0.999136268850980D+03
 0.135009327146727D+04 0.000000000000000D+00 0.000000000000000D+00 -.135009327146727D+04
 0.441226668611647D+03 -.271899179552052D+02 -.430832521957146D+03 0.312540169680237D+01
 0.841154776539814D+02 -.300567681945231D+02 -.634850973547113D+02 0.462779286541758D+02
 0.112504295496269D+03 -.328608168911088D+02 -.987729838566896D+02 -.426764675015032D+02
 0.544430949131143D+03 -.285212489653069D+03 -.454640948540647D+03 -.672686284947493D+01
 0.116695214942521D+04 0.375319992693906D+03 0.104773155170919D+04 -.350957002616289D+03
0.282241175786D-05 0.000000000000D+00 0.000000000000D+00 0.140653326595D-06 0.000000000000D+00  7 -2 2 23 -11 11 23 21 0 0.58846686D-01 0.16005218D-01 0.28175207D+05 0.28175207D+05 0.28175207D+05 0.11698731D+01  1  2  2  2  7  2        2 0.345454319039D-03 0.100000000000D+01
-.151119268171D-06 0.000000000000D+00 -.108388043083D-07 0.140653326595D-06 0.000000000000D+00  7 -2 2 23 -11 11 23 21 2 0.58846686D-01 0.16005218D-01 0.28175207D+05 0.28175207D+05 0.28175207D+05 0.11698731D+01  1  2  3  2  7  2        2 -.253143970061D-04 0.100000000000D+01
0.180177215165D-06 0.000000000000D+00 0.000000000000D+00 0.140653326595D-06 0.000000000000D+00  7 -2 2 23 -11 11 23 21 2 0.58846686D-01 0.16005218D-01 0.28175207D+05 0.28175207D+05 0.28175207D+05 0.11698731D+01  1  2 15  2  7  2        2 0.301819722353D-04 0.100000000000D+01
0.185402813857D-04 0.000000000000D+00 -.483663734507D-05 0.140653326595D-06 0.000000000000D+00  7 -2 2 23 -11 11 23 21 2 0.58846686D-01 0.37552579D+00 0.28175207D+05 0.28175207D+05 0.28175207D+05 0.11698731D+01  1  2  5  2  7  2        2 0.401166155237D-04 0.100000000000D+01
0.478704533854D-05 0.000000000000D+00 -.159183627272D-05 0.140653326595D-06 0.000000000000D+00  7 -2 21 23 -11 11 23 -2 2 0.58846686D-01 0.37552579D+00 0.28175207D+05 0.28175207D+05 0.28175207D+05 0.11698731D+01  1  2  5  4  7  2        2 0.149033246774D-05 0.100000000000D+01
  </mgrwgt>
  </event>
  <event>
  8     66 0.53686478E-06 0.20981374E+03 0.75467711E-02 0.98918614E-01
       -2 -1    0    0    0  501 0.00000000E+00 0.00000000E+00 0.10072524E+03 0.10072575E+03 0.32000000E+00 0.0000E+00 0.9000E+01
        2 -1    0    0  501    0 0.00000000E+00 0.00000000E+00 -.13808869E+04 0.13808870E+04 0.32000000E+00 0.0000E+00 0.9000E+01
       25  2    1    2    0    0 0.10858987E+03 -.21906231E+03 -.37176028E+03 0.53661035E+03 0.29994151E+03 0.0000E+00 0.0000E+00
       23  2    1    2    0    0 -.10858987E+03 0.21906231E+03 -.90840142E+03 0.94500236E+03 0.89756771E+02 0.0000E+00 0.0000E+00
       23  1    3    3    0    0 -.12054855E+02 -.20300308E+03 -.15359585E+03 0.27067048E+03 0.91188000E+02 0.0000E+00 0.9000E+01
      -13  1    4    4    0    0 -.61514151E+02 0.65843896E+02 -.21130721E+03 0.22971756E+03 0.10565837E+00 0.0000E+00 0.9000E+01
       13  1    4    4    0    0 -.47075723E+02 0.15321842E+03 -.69709421E+03 0.71528481E+03 0.10565837E+00 0.0000E+00 0.9000E+01
       23  1    3    3    0    0 0.12064473E+03 -.16059235E+02 -.21816442E+03 0.26593987E+03 0.91188000E+02 0.0000E+00 0.9000E+01
#aMCatNLO 1  0  0  2  1 0.69085628D+02 0.00000000D+00  -5  7  0 0.00000000D+00 0.00000000D+00 0.00000000D+00 0.00000000D+00 0.00000000D+00
  <mgrwgt>
 0.2779712461D-03    9    2    0
 0.372948480731115D+03 0.000000000000000D+00 0.000000000000000D+00 0.372948480731115D+03
 0.372948480731115D+03 0.000000000000000D+00 0.000000000000000D+00 -.372948480731115D+03
 0.274034219449392D+03 -.120548551188884D+02 -.203003078293522D+03 0.159448840562276D+03
 0.936388412557286D+02 -.615141709361261D+02 0.658437746834400D+02 -.254722731846408D+02
 0.224403510804751D+03 -.470757031217421D+02 0.153218539046249D+03 -.157050606906260D+03
 0.153820389952359D+03 0.120644729176757D+03 -.160592354361670D+02 0.230740395286254D+02
 0.000000000000000D+00 0.000000000000000D+00 0.000000000000000D+00 -.000000000000000D+00
 0.385904220297594D+03 0.000000000000000D+00 0.000000000000000D+00 0.385904220297594D+03
 0.479585464255910D+03 0.000000000000000D+00 0.000000000000000D+00 -.479585464255910D+03
 0.293717100661525D+03 -.184310319490501D+02 -.228453164087634D+03 0.159448840562276D+03
 0.895085922785450D+02 -.635710229078250D+02 0.576339868215501D+02 -.254722731846408D+02
 0.212657849503030D+03 -.519841558549017D+02 0.133626776379892D+03 -.157050606906260D+03
 0.153205972347863D+03 0.117196644939515D+03 -.298220343673400D+02 0.230740395286254D+02
 0.116400169762542D+03 0.167895657722618D+02 0.670144352535316D+02 -.936812439583165D+02
0.350318453071D-05 0.000000000000D+00 0.000000000000D+00 0.403003308865D-06 0.000000000000D+00  7 -2 2 23 -13 13 23 21 0 0.15496232D-01 0.21244419D+00 0.97763935D+05 0.97763935D+05 0.97763935D+05 0.11225289D+01  1  2  2  2  7  2        2 0.204969026694D-03 0.100000000000D+01
-.187267735303D-06 0.000000000000D+00 -.134531510076D-07 0.403003308865D-06 0.000000000000D+00  7 -2 2 23 -13 13 23 21 2 0.15496232D-01 0.21244419D+00 0.97763935D+05 0.97763935D+05 0.97763935D+05 0.11225289D+01  1  2  3  2  7  2        2 -.138064885276D-04 0.100000000000D+01
0.219677642424D-06 0.000000000000D+00 0.000000000000D+00 0.403003308865D-06 0.000000000000D+00  7 -2 2 23 -13 13 23 21 2 0.15496232D-01 0.21244419D+00 0.97763935D+05 0.97763935D+05 0.97763935D+05 0.11225289D+01  1  2 15  2  7  2        2 0.161959391723D-04 0.100000000000D+01
0.751197440435D-05 0.000000000000D+00 0.000000000000D+00 0.403003308865D-06 0.000000000000D+00  7 -2 2 23 -13 13 23 21 2 0.15496232D-01 0.27612265D+00 0.12124441D+06 0.12124441D+06 0.12124441D+06 0.11149206D+01  1  2 12  2  7  2        2 0.325602315673D-03 0.100000000000D+01
-.768683259767D-05 0.000000000000D+00 0.000000000000D+00 0.403003308865D-06 0.000000000000D+00  7 -2 2 23 -13 13 23 21 2 0.15496232D-01 0.21244419D+00 0.97763935D+05 0.97763935D+05 0.97763935D+05 0.11225289D+01  1  2  4  2  7  2        2 -.566718905964D-03 0.100000000000D+01
-.101068918259D-04 0.000000000000D+00 -.174392341819D-05 0.403003308865D-06 0.000000000000D+00  7 -2 2 23 -13 13 23 21 2 0.15496232D-01 0.27673803D+00 0.97763935D+05 0.97763935D+05 0.97763935D+05 0.11225289D+01  1  2  5  2  7  2        2 -.444391939607D-03 0.100000000000D+01
0.102662801452D-04 0.000000000000D+00 0.168469681143D-05 0.403003308865D-06 0.000000000000D+00  7 -2 2 23 -13 13 23 21 2 0.15496232D-01 0.21244419D+00 0.97763935D+05 0.97763935D+05 0.97763935D+05 0.11225289D+01  1  2  6  2  7  2        2 0.756891083329D-03 0.100000000000D+01
0.263267197791D-06 0.000000000000D+00 0.000000000000D+00 0.403003308865D-06 0.000000000000D+00  7 -2 21 23 -13 13 23 -2 2 0.15496232D-01 0.27612265D+00 0.12124441D+06 0.12124441D+06 0.12124441D+06 0.11149206D+01  1  2 12  4  7  2        2 0.297116473266D-05 0.100000000000D+01
-.324398212214D-06 0.000000000000D+00 -.614977482579D-07 0.403003308865D-06 0.000000000000D+00  7 -2 21 23 -13 13 23 -2 2 0.15496232D-01 0.27673803D+00 0.97763935D+05 0.97763935D+05 0.97763935D+05 0.11225289D+01  1  2  5  4  7  2        2 -.374094943655D-05 0.100000000000D+01
  </mgrwgt>
  </event>
  <event>
  7     66 0.53686478E-06 0.23174989E+03 0.75467711E-02 0.10014886E+00
       -2 -1    0    0    0  501 0.00000000E+00 0.00000000E+00 0.67906168E+02 0.67906922E+02 0.32000000E+00 0.0000E+00 0.9000E+01
        2 -1    0    0  501    0 0.00000000E+00 0.00000000E+00 -.19242041E+04 0.19242041E+04 0.32000000E+00 0.0000E+00 0.9000E+01
       25  2    1    2    0    0 -.11331989E+03 0.30865129E+02 -.51046916E+03 0.60364536E+03 0.30002484E+03 0.0000E+00 0.0000E+00
       23  1    3    3    0    0 0.61211693E+02 0.53021234E+02 -.22850558E+03 0.25901385E+03 0.91188000E+02 0.0000E+00 0.9000E+01
      -11  1    1    2    0    0 0.46668662E+02 0.10818383E+03 -.10330070E+04 0.10397044E+04 0.51099893E-03 0.0000E+00 0.9000E+01
       11  1    1    2    0    0 0.66651224E+02 -.13904896E+03 -.31282172E+03 0.34876127E+03 0.51099893E-03 0.0000E+00 0.9000E+01
       23  1    3    3    0    0 -.17453158E+03 -.22156105E+02 -.28196358E+03 0.34463151E+03 0.91188000E+02 0.0000E+00 0.9000E+01
#aMCatNLO 1  0  0  2  1 0.40816332D+02 0.00000000D+00  -5  7  0 0.00000000D+00 0.00000000D+00 0.00000000D+00 0.00000000D+00 0.00000000D+00
  <mgrwgt>
 0.2283206643D-02    9    2    0
 0.361477666658825D+03 0.000000000000000D+00 0.000000000000000D+00 0.361477666658825D+03
 0.361477666658825D+03 0.000000000000000D+00 0.000000000000000D+00 -.361477666658825D+03
 0.126992512479097D+03 0.612116578090671D+02 0.530212437532779D+02 0.354080152066553D+02
 0.212513524293473D+03 0.466687289645284D+02 0.108183738769332D+03 -.176862393997018D+03
 0.157797893242386D+03 0.666512546757844D+02 -.139048894228342D+03 0.335140325200411D+02
 0.225651403302695D+03 -.174531641449380D+03 -.221560882942680D+02 0.107940346270322D+03
 0.000000000000000D+00 -.000000000000000D+00 0.000000000000000D+00 -.000000000000000D+00
 0.372924293015805D+03 0.000000000000000D+00 0.000000000000000D+00 0.372924293015805D+03
 0.400365674709205D+03 0.000000000000000D+00 0.000000000000000D+00 -.400365674709205D+03
 0.127225464140234D+03 0.659427295940473D+02 0.476329324575924D+02 0.354080152066553D+02
 0.210000667516355D+03 0.545318431243049D+02 0.992282824220207D+02 -.176862393997018D+03
 0.166431107407617D+03 0.726852523389178D+02 -.145921133594826D+03 0.335140325200411D+02
 0.220449373893679D+03 -.166229573954712D+03 -.316114772826742D+02 0.107940346270322D+03
 0.491833547671254D+02 -.269302511025576D+02 0.306713959978872D+02 -.274413816934005D+02
0.208303211855D-04 0.000000000000D+00 0.000000000000D+00 0.938867430873D-10 0.000000000000D+00  7 -2 2 23 -11 11 23 21 0 0.10447163D-01 0.29603146D+00 0.87655972D+05 0.87655972D+05 0.87655972D+05 0.11264479D+01  1  2  2  2  7  2        2 0.116179365786D-02 0.100000000000D+01
-.110117639847D-05 0.000000000000D+00 -.799939181020D-07 0.938867430873D-10 0.000000000000D+00  7 -2 2 23 -11 11 23 21 2 0.10447163D-01 0.29603146D+00 0.87655972D+05 0.87655972D+05 0.87655972D+05 0.11264479D+01  1  2  3  2  7  2        2 -.779313468564D-04 0.100000000000D+01
0.126195667740D-05 0.000000000000D+00 0.000000000000D+00 0.938867430873D-10 0.000000000000D+00  7 -2 2 23 -11 11 23 21 2 0.10447163D-01 0.29603146D+00 0.87655972D+05 0.87655972D+05 0.87655972D+05 0.11264479D+01  1  2 15  2  7  2        2 0.893099268027D-04 0.100000000000D+01
0.460289145000D-04 0.000000000000D+00 0.000000000000D+00 0.938867430873D-10 0.000000000000D+00  7 -2 2 23 -11 11 23 21 2 0.10447163D-01 0.33221559D+00 0.99691120D+05 0.99691120D+05 0.99691120D+05 0.11218323D+01  1  2 12  2  7  2        2 0.240493651892D-02 0.100000000000D+01
-.459635071156D-04 0.000000000000D+00 0.000000000000D+00 0.938867430873D-10 0.000000000000D+00  7 -2 2 23 -11 11 23 21 2 0.10447163D-01 0.29603146D+00 0.87655972D+05 0.87655972D+05 0.87655972D+05 0.11264479D+01  1  2  4  2  7  2        2 -.325288302651D-02 0.100000000000D+01
-.103973875897D-03 0.000000000000D+00 -.193451917962D-04 0.938867430873D-10 0.000000000000D+00  7 -2 2 23 -11 11 23 21 2 0.10447163D-01 0.33196408D+00 0.87655972D+05 0.87655972D+05 0.87655972D+05 0.11264479D+01  1  2  5  2  7  2        2 -.550760423577D-02 0.100000000000D+01
0.105622470815D-03 0.000000000000D+00 0.192189369078D-04 0.938867430873D-10 0.000000000000D+00  7 -2 2 23 -11 11 23 21 2 0.10447163D-01 0.29603146D+00 0.87655972D+05 0.87655972D+05 0.87655972D+05 0.11264479D+01  1  2  6  2  7  2        2 0.747500711093D-02 0.100000000000D+01
0.844514631303D-06 0.000000000000D+00 0.000000000000D+00 0.938867430873D-10 0.000000000000D+00  7 -2 21 23 -11 11 23 -2 2 0.10447163D-01 0.33221559D+00 0.99691120D+05 0.99691120D+05 0.99691120D+05 0.11218323D+01  1  2 12  4  7  2        2 0.785462950110D-05 0.100000000000D+01
-.181491012905D-05 0.000000000000D+00 -.352961349785D-06 0.938867430873D-10 0.000000000000D+00  7 -2 21 23 -11 11 23 -2 2 0.10447163D-01 0.33196408D+00 0.87655972D+05 0.87655972D+05 0.87655972D+05 0.11264479D+01  1  2  5  4  7  2        2 -.172765921209D-04 0.100000000000D+01
  </mgrwgt>
  </event>
  <event>
  9     66 0.53686478E-06 0.34394507E+03 0.75467711E-02 0.95230383E-01
       -2 -1    0    0    0  501 0.00000000E+00 0.00000000E+00 0.19561987E+04 0.19561987E+04 0.32000000E+00 0.0000E+00 0.9000E+01
       21 -1    0    0  501  502 0.00000000E+00 0.00000000E+00 -.26240308E+03 0.26240415E+03 0.75000000E+00 0.0000E+00 0.9000E+01
       25  2    1    2    0    0 -.30745008E+03 -.28317547E+03 0.14586905E+03 0.53404093E+03 0.29867714E+03 0.0000E+00 0.0000E+00
       23  2    1    2    0    0 0.15839228E+03 0.80318385E+02 0.13466595E+04 0.13622612E+04 0.10355989E+03 0.0000E+00 0.0000E+00
       23  1    3    3    0    0 -.24131511E+03 -.69476518E+02 0.11365470E+03 0.29033190E+03 0.91188000E+02 0.0000E+00 0.9000E+01
      -13  1    4    4    0    0 0.44929546E+02 -.60566696E+01 0.62535533E+03 0.62699653E+03 0.10565837E+00 0.0000E+00 0.9000E+01
       13  1    4    4    0    0 0.11346273E+03 0.86375055E+02 0.72130420E+03 0.73526471E+03 0.10565837E+00 0.0000E+00 0.9000E+01
       23  1    3    3    0    0 -.66134967E+02 -.21369895E+03 0.32214354E+02 0.24370903E+03 0.91188000E+02 0.0000E+00 0.9000E+01
       -2  1    1    2    0  502 0.14905780E+03 0.20285708E+03 0.20126703E+03 0.32230070E+03 0.32000000E+00 0.0000E+00 0.9000E+01
#aMCatNLO 2  0  0  2  1 0.25173244D+03 0.00000000D+00  -5  7  0 0.00000000D+00 0.00000000D+00 0.00000000D+00 0.00000000D+00 0.00000000D+00
  <mgrwgt>
 0.7835712512D-05    2    2    0
 0.571172286966149D+03 0.000000000000000D+00 0.000000000000000D+00 0.571172286966149D+03
 0.571172286966149D+03 0.000000000000000D+00 0.000000000000000D+00 -.571172286966149D+03
 0.289632765890878D+03 -.201648966111358D+03 -.154937111949442D+02 -.186197548623036D+03
 0.228549725968686D+03 0.737514579901354D+02 0.331679082747630D+02 0.213765267397133D+03
 0.308270672548542D+03 0.150846967893855D+03 0.137252342032020D+03 0.231166161964691D+03
 0.315891409524193D+03 -.229494597726325D+02 -.154926539111839D+03 -.258733880738788D+03
 0.000000000000000D+00 0.000000000000000D+00 0.000000000000000D+00 -.000000000000000D+00
 0.675238257336909D+03 0.000000000000000D+00 0.000000000000000D+00 0.675238257336909D+03
 0.760196321745804D+03 0.000000000000000D+00 0.000000000000000D+00 -.760196321745804D+03
 0.325645125653202D+03 -.241315111130593D+03 -.694765179358545D+02 -.186197548623036D+03
 0.218519866044640D+03 0.449294776878895D+02 -.605676031332330D+01 0.213765267397133D+03
 0.271610507364419D+03 0.113462801661865D+03 0.863751463808423D+02 0.231166161964691D+03
 0.353976760165331D+03 -.661349672121934D+02 -.213698948202450D+03 -.258733880738788D+03
 0.265682319855120D+03 0.149057798993033D+03 0.202857080070785D+03 -.849580644088951D+02
-.436710056785D-06 0.000000000000D+00 0.000000000000D+00 0.371684945440D-08 0.000000000000D+00  7 -2 21 23 -13 13 23 -2 2 0.25457149D+00 0.42393558D-01 0.22486530D+06 0.22486530D+06 0.22486530D+06 0.10939380D+01  1  2 13  4  7  2        2 -.158574428574D-05 0.100000000000D+01
0.464023417052D-05 0.000000000000D+00 0.000000000000D+00 0.371684945440D-08 0.188959986099D-13  7 -2 21 23 -13 13 23 -2 2 0.30095369D+00 0.40369783D-01 0.22486530D+06 0.22486530D+06 0.22486530D+06 0.10939380D+01  1  2  1  4  7  2        2 0.942145679757D-05 0.100000000000D+01
  </mgrwgt>
  </event>
  <event>
  9     66 0.53686478E-06 0.18210723E+03 0.75467711E-02 0.10068115E+00
       -2 -1    0    0    0  501 0.00000000E+00 0.00000000E+00 0.66375026E+02 0.66375798E+02 0.32000000E+00 0.0000E+00 0.9000E+01
        2 -1    0    0  502    0 0.00000000E+00 0.00000000E+00 -.17005667E+04 0.17005667E+04 0.32000000E+00 0.0000E+00 0.9000E+01
       25  2    1    2    0    0 0.17507333E+03 -.17341434E+02 -.60953718E+03 0.70193966E+03 0.30038693E+03 0.0000E+00 0.0000E+00
       23  2    1    2    0    0 0.17783665E+02 0.20496241E+02 -.28934095E+03 0.30481188E+03 0.91955111E+02 0.0000E+00 0.0000E+00
       23  1    3    3    0    0 0.20197610E+03 -.95727182E+01 -.27091116E+03 0.35013439E+03 0.91188000E+02 0.0000E+00 0.9000E+01
      -13  1    4    4    0    0 0.38194237E+02 -.25105678E+02 -.12825691E+03 0.13615778E+03 0.10565837E+00 0.0000E+00 0.9000E+01
       13  1    4    4    0    0 -.20410572E+02 0.45601920E+02 -.16108404E+03 0.16865410E+03 0.10565837E+00 0.0000E+00 0.9000E+01
       23  1    3    3    0    0 -.26902773E+02 -.77687162E+01 -.33862602E+03 0.35180527E+03 0.91188000E+02 0.0000E+00 0.9000E+01
       21  1    1    2  502  501 -.19285700E+03 -.31548070E+01 -.73531354E+03 0.76019099E+03 0.75000000E+00 0.0000E+00 0.9000E+01
#aMCatNLO 2  0  0  2  1 0.19288280D+03 0.00000000D+00  -5  7  0 0.00000000D+00 0.00000000D+00 0.00000000D+00 0.00000000D+00 0.00000000D+00
  <mgrwgt>
 0.8000031219D-04    1    2    0
 0.205160296803915D+03 0.000000000000000D+00 0.000000000000000D+00 0.205160296803915D+03
 0.205160296803915D+03 0.000000000000000D+00 0.000000000000000D+00 -.205160296803915D+03
 0.170744812056130D+03 0.110179810839682D+03 -.110745878786269D+02 0.926083273077191D+02
 0.353447788541299D+02 0.195706919599763D+02 -.254099829485823D+02 -.148517397973376D+02
 0.701657287348404D+02 -.483888122645032D+02 0.451443300824312D+02 -.233182717612255D+02
 0.134065273962729D+03 -.813616905351552D+02 -.865975925522199D+01 -.544383157491560D+02
 0.000000000000000D+00 -.000000000000000D+00 -.000000000000000D+00 -.000000000000000D+00
 0.278977078806874D+03 0.000000000000000D+00 0.000000000000000D+00 0.278977078806874D+03
 0.404604634226661D+03 0.000000000000000D+00 0.000000000000000D+00 -.404604634226661D+03
 0.240370103841640D+03 0.201976711112099D+03 -.957294930764276D+01 0.926083273077191D+02
 0.480583166791259D+02 0.381935765769406D+02 -.251053447553445D+02 -.148517397973376D+02
 0.551351096644119D+02 -.204106773883494D+02 0.456020039946172D+02 -.233182717612255D+02
 0.109831179937343D+03 -.269026145209235D+02 -.776890293174652D+01 -.544383157491560D+02
 0.230187002911014D+03 -.192856995779767D+03 -.315480699988352D+01 -.125627555419787D+03
0.832413610883D-06 0.000000000000D+00 0.000000000000D+00 0.490519897647D-07 0.127796427009D-10  7 -2 2 23 -13 13 23 21 2 0.10211584D-01 0.26162519D+00 0.91734683D+05 0.91734683D+05 0.91734683D+05 0.11248096D+01  1  2  1  2  7  2        2 0.800003121862D-04 0.100000000000D+01
  </mgrwgt>
  </event>
  <event>
  8     66 0.53686478E-06 0.21010746E+03 0.75467711E-02 0.89778119E-01
       -2 -1    0    0    0  501 0.00000000E+00 0.00000000E+00 0.18172238E+04 0.18172239E+04 0.32000000E+00 0.0000E+00 0.9000E+01
        2 -1    0    0  501    0 0.00000000E+00 0.00000000E+00 -.46882081E+02 0.46883173E+02 0.32000000E+00 0.0000E+00 0.9000E+01
       25  2    1    2    0    0 0.93279961E+02 0.63279494E+02 0.55827970E+03 0.64343297E+03 0.29937323E+03 0.0000E+00 0.0000E+00
       23  2    1    2    0    0 -.93279961E+02 -.63279494E+02 0.12120620E+04 0.12206741E+04 0.90803551E+02 0.0000E+00 0.0000E+00
       23  1    3    3    0    0 0.14047743E+03 0.54441502E+02 0.48770505E+03 0.51852604E+03 0.91188000E+02 0.0000E+00 0.9000E+01
      -13  1    4    4    0    0 -.38675231E+02 -.75740074E+02 0.59030983E+03 0.59640426E+03 0.10565837E+00 0.0000E+00 0.9000E+01
       13  1    4    4    0    0 -.54604730E+02 0.12460581E+02 0.62175222E+03 0.62426979E+03 0.10565837E+00 0.0000E+00 0.9000E+01
       23  1    3    3    0    0 -.47197465E+02 0.88379915E+01 0.70574645E+02 0.12490694E+03 0.91188000E+02 0.0000E+00 0.9000E+01
#aMCatNLO 1  0  0  2  2 0.74648731D+03 0.00000000D+00  -5  7  0 0.00000000D+00 0.00000000D+00 0.00000000D+00 0.00000000D+00 0.00000000D+00
  <mgrwgt>
 0.2413765587D-03    3    2    0
 0.291884014725714D+03 0.000000000000000D+00 0.000000000000000D+00 0.291884014725714D+03
 0.291884014725714D+03 0.000000000000000D+00 0.000000000000000D+00 -.291884014725714D+03
 0.176754148028930D+03 0.140477426207110D+03 0.544415021311870D+02 -.151325170860253D+02
 0.114276964908859D+03 -.386752098148943D+02 -.757401932930018D+02 0.763339765405502D+02
 0.107905525246249D+03 -.546047518041889D+02 0.124606994369411D+02 0.922315262186090D+02
 0.184831391267390D+03 -.471974645880269D+02 0.883799172487360D+01 -.153432985673134D+03
 0.000000000000000D+00 -.000000000000000D+00 0.000000000000000D+00 0.000000000000000D+00
 0.931110270448192D+03 0.000000000000000D+00 0.000000000000000D+00 0.931110270448192D+03
 0.778467203174078D+03 0.000000000000000D+00 0.000000000000000D+00 -.778467203174078D+03
 0.408814464370655D+03 0.388738934216042D+03 -.864121686215718D+02 -.151325170860253D+02
 0.190287188398357D+03 0.904498054000887D+02 -.149000573143679D+03 0.763339765405502D+02
 0.106571052657694D+03 0.363261443120345D+02 -.391298616835813D+02 0.922315262186090D+02
 0.241970906674188D+03 0.133752435841999D+03 -.938257595039252D+02 -.153432985673134D+03
 0.761933861521376D+03 -.649267319770164D+03 0.368368362952757D+03 0.152643067274114D+03
0.464713610482D-04 0.000000000000D+00 0.000000000000D+00 0.129894472768D-06 0.000000000000D+00  7 -2 2 23 -13 13 23 21 0 0.27957298D+00 0.72127140D-02 0.44145144D+05 0.44145144D+05 0.44145144D+05 0.11520835D+01  1  2  2  2  7  2        2 0.237480267381D-03 0.100000000000D+01
-.224251353734D-05 0.000000000000D+00 -.178462262615D-06 0.129894472768D-06 0.000000000000D+00  7 -2 2 23 -13 13 23 21 2 0.27957298D+00 0.72127140D-02 0.44145144D+05 0.44145144D+05 0.44145144D+05 0.11520835D+01  1  2  3  2  7  2        2 -.152105563133D-04 0.100000000000D+01
0.281694920241D-05 0.000000000000D+00 0.000000000000D+00 0.129894472768D-06 0.000000000000D+00  7 -2 2 23 -13 13 23 21 2 0.27957298D+00 0.72127140D-02 0.44145144D+05 0.44145144D+05 0.44145144D+05 0.11520835D+01  1  2 15  2  7  2        2 0.191068476339D-04 0.100000000000D+01
  </mgrwgt>
  </event>
  <event>
  9     66 -.53686478E-06 0.40705374E+03 0.75467711E-02 0.95288296E-01
       -2 -1    0    0    0  502 0.00000000E+00 0.00000000E+00 0.61265277E+03 0.61265285E+03 0.32000000E+00 0.0000E+00 0.9000E+01
        2 -1    0    0  501    0 0.00000000E+00 0.00000000E+00 -.67024367E+03 0.67024375E+03 0.32000000E+00 0.0000E+00 0.9000E+01
       25  2    1    2    0    0 0.74913183E+02 -.32936169E+03 -.40518257E+03 0.60465049E+03 0.29553036E+03 0.0000E+00 0.0000E+00
       23  2    1    2    0    0 0.80804497E+01 0.42168461E+03 0.34774000E+03 0.55410083E+03 0.90672020E+02 0.0000E+00 0.0000E+00
       23  1    3    3    0    0 0.47228289E+02 -.79663429E+02 -.13773755E+02 0.13069713E+03 0.91188000E+02 0.0000E+00 0.9000E+01
      -11  1    4    4    0    0 0.67599326E+01 0.39892231E+02 0.45194386E+01 0.40712555E+02 0.51099893E-03 0.0000E+00 0.9000E+01
       11  1    4    4    0    0 0.13205172E+01 0.38179238E+03 0.34322057E+03 0.51338828E+03 0.51099893E-03 0.0000E+00 0.9000E+01
       23  1    3    3    0    0 0.27684893E+02 -.24969826E+03 -.39140881E+03 0.47395336E+03 0.91188000E+02 0.0000E+00 0.9000E+01
       21  1    1    2  501  502 -.82993632E+02 -.92322923E+02 -.14833969E+00 0.12414528E+03 0.75000000E+00 0.0000E+00 0.9000E+01
#aMCatNLO 2  0  0  1  2 0.12414292D+03 0.00000000D+00  -5  7  0 0.00000000D+00 0.00000000D+00 0.00000000D+00 0.00000000D+00 0.00000000D+00
  <mgrwgt>
 -.3713835544D-04    2    2    0
 0.575324585553960D+03 0.000000000000000D+00 0.000000000000000D+00 0.575324585553960D+03
 0.575324585553960D+03 0.000000000000000D+00 0.000000000000000D+00 -.575324585553960D+03
 0.133915179713210D+03 0.377317637072215D+02 -.902274561662099D+02 -.730370966963984D+01
 0.375364944948176D+02 0.393626817968338D+01 0.367511595830512D+02 0.654572234960970D+01
 0.503408897444708D+03 -.358782984594633D+02 0.340412056328983D+03 0.369124501533052D+03
 0.475788599455185D+03 -.578973342744156D+01 -.286935759745824D+03 -.368366514213021D+03
 0.000000000000000D+00 -.000000000000000D+00 -.000000000000000D+00 0.000000000000000D+00
 0.643814199513108D+03 0.000000000000000D+00 0.000000000000000D+00 0.643814199513108D+03
 0.637800925851328D+03 0.000000000000000D+00 0.000000000000000D+00 -.637800925851328D+03
 0.130174378114880D+03 0.472282893811342D+02 -.796634287536579D+02 -.730370966963984D+01
 0.409869892228636D+02 0.675993256559387D+01 0.398922312760965D+02 0.654572234960970D+01
 0.531055611944941D+03 0.132051717324409D+01 0.381792380202364D+03 0.369124501533052D+03
 0.455109672987657D+03 0.276848931983074D+02 -.249698259901983D+03 -.368366514213021D+03
 0.124288473094095D+03 -.829936323182796D+02 -.923229228228198D+02 0.601327366177993D+01
-.484576815372D-04 0.000000000000D+00 0.000000000000D+00 0.345875231075D-07 0.000000000000D+00  7 -2 2 23 -11 11 23 21 2 0.98327036D-01 0.93013597D-01 0.22261104D+06 0.22261104D+06 0.22261104D+06 0.10942706D+01  1  2 13  1  7  1       -2 -.308495043611D-03 0.100000000000D+01
0.435594952114D-04 0.000000000000D+00 0.000000000000D+00 0.345875231075D-07 0.144640226231D-10  7 -2 2 23 -11 11 23 21 2 0.94254118D-01 0.10311424D+00 0.22261104D+06 0.22261104D+06 0.22261104D+06 0.10942706D+01  1  2  1  1  7  1       -2 0.271356688175D-03 0.100000000000D+01
  </mgrwgt>
  </event>
  <event>
  8     66 0.53686478E-06 0.34564418E+03 0.75467711E-02 0.98710659E-01
       -2 -1    0    0    0  501 0.00000000E+00 0.00000000E+00 0.65082045E+03 0.65082053E+03 0.32000000E+00 0.0000E+00 0.9000E+01
        2 -1    0    0  501    0 0.00000000E+00 0.00000000E+00 -.26402713E+03 0.26402732E+03 0.32000000E+00 0.0000E+00 0.9000E+01
       25  2    1    2    0    0 0.23336247E+03 -.17500096E+03 0.43750792E+03 0.60534239E+03 0.29990473E+03 0.0000E+00 0.0000E+00
       23  2    1    2    0    0 -.23336247E+03 0.17500096E+03 -.50714600E+02 0.30950546E+03 0.90212395E+02 0.0000E+00 0.0000E+00
       23  1    3    3    0    0 0.27216629E+02 0.20618983E+02 0.33345786E+02 0.10292269E+03 0.91188000E+02 0.0000E+00 0.9000E+01
      -11  1    4    4    0    0 -.19127104E+03 0.11851148E+03 -.71430265E+02 0.23607598E+03 0.51099893E-03 0.0000E+00 0.9000E+01
       11  1    4    4    0    0 -.42091429E+02 0.56489481E+02 0.20715665E+02 0.73429481E+02 0.51099893E-03 0.0000E+00 0.9000E+01
       23  1    3    3    0    0 0.20614584E+03 -.19561995E+03 0.40416214E+03 0.50241970E+03 0.91188000E+02 0.0000E+00 0.9000E+01
#aMCatNLO 1  0  0  1  1 0.16640450D+02 0.00000000D+00  -5  7  0 0.00000000D+00 0.00000000D+00 0.00000000D+00 0.00000000D+00 0.00000000D+00
  <mgrwgt>
 0.6017756059D-04    4    2    0
 0.414529104421193D+03 0.000000000000000D+00 0.000000000000000D+00 0.414529104421193D+03
 0.414529104421193D+03 0.000000000000000D+00 0.000000000000000D+00 -.414529104421193D+03
 0.980156441483080D+02 0.272166289497966D+02 0.206189829259941D+02 -.112217559015683D+02
 0.293830211922593D+03 -.191271044202407D+03 0.118511483321538D+03 -.188961925818737D+03
 0.713630492340280D+02 -.420914289621867D+02 0.564894813131376D+02 -.113988992833595D+02
 0.365849303537457D+03 0.206145844214797D+03 -.195619947560669D+03 0.211582581003664D+03
 0.000000000000000D+00 -.000000000000000D+00 0.000000000000000D+00 -.000000000000000D+00
 0.419019133540433D+03 0.000000000000000D+00 0.000000000000000D+00 0.419019133540433D+03
 0.430322468532380D+03 0.000000000000000D+00 0.000000000000000D+00 -.430322468532380D+03
 0.977256499437817D+02 0.275671179792143D+02 0.186862921346170D+02 -.112217559015683D+02
 0.290863825251850D+03 -.190224106985883D+03 0.112738389878677D+03 -.188961925818737D+03
 0.701110392212753D+02 -.418381093130015D+02 0.550926086233750D+02 -.113988992833595D+02
 0.370524677096708D+03 0.207464375406481D+03 -.202890683242594D+03 0.211582581003664D+03
 0.201164105591978D+02 -.296927708681022D+01 0.163733926059251D+02 -.113033349919475D+02
0.105558964094D-04 0.000000000000D+00 0.000000000000D+00 0.799547232701D-06 0.000000000000D+00  7 -2 2 23 -11 11 23 21 0 0.10012624D+00 0.40619579D-01 0.11946990D+06 0.11946990D+06 0.11946990D+06 0.11154367D+01  1  2  2  1  7  1       -2 0.137397529405D-03 0.100000000000D+01
-.562889650291D-06 0.000000000000D+00 -.405374216436D-07 0.799547232701D-06 0.000000000000D+00  7 -2 2 23 -11 11 23 21 2 0.10012624D+00 0.40619579D-01 0.11946990D+06 0.11946990D+06 0.11946990D+06 0.11154367D+01  1  2  3  1  7  1       -2 -.911584476622D-05 0.100000000000D+01
0.685647348846D-06 0.000000000000D+00 0.000000000000D+00 0.799547232701D-06 0.000000000000D+00  7 -2 2 23 -11 11 23 21 2 0.10012624D+00 0.40619579D-01 0.11946990D+06 0.11946990D+06 0.11946990D+06 0.11154367D+01  1  2 15  1  7  1       -2 0.111038723011D-04 0.100000000000D+01
-.489097417822D-05 0.000000000000D+00 0.000000000000D+00 0.799547232701D-06 0.000000000000D+00  7 -2 2 23 -11 11 23 21 2 0.10012624D+00 0.40619579D-01 0.11946990D+06 0.11946990D+06 0.11946990D+06 0.11154367D+01  1  2  4  1  7  1       -2 -.792079963474D-04 0.100000000000D+01
  </mgrwgt>
  </event>
  <event>
  8     66 0.53686478E-06 0.84817702E+02 0.75467711E-02 0.10524416E+00
       -2 -1    0    0    0  501 0.00000000E+00 0.00000000E+00 0.23770582E+02 0.23772735E+02 0.32000000E+00 0.0000E+00 0.9000E+01
        2 -1    0    0  501    0 0.00000000E+00 0.00000000E+00 -.26324211E+04 0.26324211E+04 0.32000000E+00 0.0000E+00 0.9000E+01
       25  2    1    2    0    0 0.50544920E+02 0.39093989E+02 -.11136600E+04 0.11552999E+04 0.30065946E+03 0.0000E+00 0.0000E+00
       23  2    1    2    0    0 -.50544920E+02 -.39093989E+02 -.14949906E+04 0.15008940E+04 0.11663152E+03 0.0000E+00 0.0000E+00
       23  1    3    3    0    0 0.74073205E+02 -.80406284E+02 -.37456981E+03 0.40071163E+03 0.91188000E+02 0.0000E+00 0.9000E+01
      -11  1    4    4    0    0 -.61429711E+02 -.67376096E+02 -.78853320E+03 0.79378698E+03 0.51099893E-03 0.0000E+00 0.9000E+01
       11  1    4    4    0    0 0.10884791E+02 0.28282107E+02 -.70645735E+03 0.70710702E+03 0.51099893E-03 0.0000E+00 0.9000E+01
       23  1    3    3    0    0 -.23528285E+02 0.11950027E+03 -.73909018E+03 0.75458825E+03 0.91188000E+02 0.0000E+00 0.9000E+01
#aMCatNLO 1  0  0  1  2 0.15647540D+02 0.00000000D+00  -5  7  0 0.00000000D+00 0.00000000D+00 0.00000000D+00 0.00000000D+00 0.00000000D+00
  <mgrwgt>
 0.3396171472D-03    6    2    0
 0.250154087111628D+03 0.000000000000000D+00 0.000000000000000D+00 0.250154087111628D+03
 0.250154087111628D+03 0.000000000000000D+00 0.000000000000000D+00 -.250154087111628D+03
 0.174384559044332D+03 0.740732064013994D+02 -.804062834002037D+02 0.100711036000370D+03
 0.102825689965893D+03 -.614297094972540D+02 -.673760935486158D+02 -.475391977863851D+02
 0.705824946504262D+02 0.108847874564464D+02 0.282821030701975D+02 -.637458437784940D+02
 0.152515430562605D+03 -.235282843605918D+02 0.119500273878622D+03 0.105740055645094D+02
 0.000000000000000D+00 0.000000000000000D+00 -.000000000000000D+00 -.000000000000000D+00
 0.257449633488688D+03 0.000000000000000D+00 0.000000000000000D+00 0.257449633488688D+03
 0.258809713609746D+03 0.000000000000000D+00 0.000000000000000D+00 -.258809713609746D+03
 0.171064035191759D+03 0.700764288662809D+02 -.767739157342442D+02 0.100711036000370D+03
 0.102880521003327D+03 -.638096930217324D+02 -.652131072117804D+02 -.475391977863851D+02
 0.709599897114615D+02 0.924716660286196D+01 0.297704123356980D+02 -.637458437784940D+02
 0.155648263207657D+03 -.270936823646675D+02 0.122740593439190D+03 0.105740055645094D+02
 0.157065379842285D+02 0.115797799172571D+02 -.105239828288630D+02 -.136008012105806D+01
0.168839704515D-05 0.000000000000D+00 0.000000000000D+00 0.328412476741D-09 0.000000000000D+00  7 -2 2 23 -11 11 23 21 0 0.36571797D-02 0.40498803D+00 0.43262423D+05 0.43262423D+05 0.43262423D+05 0.11528658D+01  1  2  2  1  7  1       -2 0.187623936401D-03 0.100000000000D+01
-.899152417653D-07 0.000000000000D+00 -.648388921852D-08 0.328412476741D-09 0.000000000000D+00  7 -2 2 23 -11 11 23 21 2 0.36571797D-02 0.40498803D+00 0.43262423D+05 0.43262423D+05 0.43262423D+05 0.11528658D+01  1  2  3  1  7  1       -2 -.132801969520D-04 0.100000000000D+01
0.106381569561D-06 0.000000000000D+00 0.000000000000D+00 0.328412476741D-09 0.000000000000D+00  7 -2 2 23 -11 11 23 21 2 0.36571797D-02 0.40498803D+00 0.43262423D+05 0.43262423D+05 0.43262423D+05 0.11528658D+01  1  2 15  1  7  1       -2 0.157122215111D-04 0.100000000000D+01
0.255503762352D-05 0.000000000000D+00 0.000000000000D+00 0.328412476741D-09 0.000000000000D+00  7 -2 2 23 -11 11 23 21 2 0.38251358D-02 0.40498803D+00 0.46574775D+05 0.46574775D+05 0.46574775D+05 0.11500161D+01  1  2 12  1  7  1       -2 0.351005034604D-03 0.100000000000D+01
-.181763012657D-05 0.000000000000D+00 0.000000000000D+00 0.328412476741D-09 0.000000000000D+00  7 -2 2 23 -11 11 23 21 2 0.36571797D-02 0.40498803D+00 0.43262423D+05 0.43262423D+05 0.43262423D+05 0.11528658D+01  1  2  4  1  7  1       -2 -.268458223465D-03 0.100000000000D+01
0.284791735602D-07 0.000000000000D+00 0.000000000000D+00 0.328412476741D-09 0.000000000000D+00  7 21 2 23 -11 11 23 2 2 0.38251358D-02 0.40498803D+00 0.46574775D+05 0.46574775D+05 0.46574775D+05 0.11500161D+01  1  2 12  3  7  1       -2 0.670143750646D-04 0.100000000000D+01
  </mgrwgt>
  </event>
  <event>
  8     66 0.53686478E-06 0.18472635E+03 0.75467711E-02 0.94989225E-01
       -2 -1    0    0    0  501 0.00000000E+00 0.00000000E+00 0.17407707E+03 0.17407737E+03 0.32000000E+00 0.0000E+00 0.9000E+01
        2 -1    0    0  501    0 0.00000000E+00 0.00000000E+00 -.16766264E+04 0.16766264E+04 0.32000000E+00 0.0000E+00 0.9000E+01
       25  2    1    2    0    0 0.18989971E+03 0.36071835E+03 -.12816641E+04 0.13781387E+04 0.30070539E+03 0.0000E+00 0.0000E+00
       23  2    1    2    0    0 -.18989971E+03 -.36071835E+03 -.22088525E+03 0.47256513E+03 0.91366720E+02 0.0000E+00 0.0000E+00
       23  1    3    3    0    0 -.30361787E+02 0.10579216E+03 -.23756189E+03 0.27724488E+03 0.91188000E+02 0.0000E+00 0.9000E+01
      -13  1    4    4    0    0 -.16379721E+02 -.49539139E+00 -.14000817E+01 0.16447251E+02 0.10565837E+00 0.0000E+00 0.9000E+01
       13  1    4    4    0    0 -.17351999E+03 -.36022296E+03 -.21948516E+03 0.45611788E+03 0.10565837E+00 0.0000E+00 0.9000E+01
       23  1    3    3    0    0 0.22026150E+03 0.25492619E+03 -.10441022E+04 0.11008938E+04 0.91188000E+02 0.0000E+00 0.9000E+01
#aMCatNLO 1  0  0  1  2 0.58141569D+02 0.00000000D+00  -5  7  0 0.00000000D+00 0.00000000D+00 0.00000000D+00 0.00000000D+00 0.00000000D+00
  <mgrwgt>
 0.3151171523D-03    9    2    0
 0.540243012723679D+03 0.000000000000000D+00 0.000000000000000D+00 0.540243012723679D+03
 0.540243012723679D+03 0.000000000000000D+00 0.000000000000000D+00 -.540243012723679D+03
 0.144518011417174D+03 -.303617866210237D+02 0.105792164411822D+03 -.213631491642924D+02
 0.262239836341774D+02 -.163795108114859D+02 -.494910342569135D+00 0.204734952310259D+02
 0.476038041131110D+03 -.173520203390129D+03 -.360223443383494D+03 0.258344782134904D+03
 0.433705989264897D+03 0.220261500822639D+03 0.254926189314242D+03 -.257455128201637D+03
 0.000000000000000D+00 -.000000000000000D+00 0.000000000000000D+00 0.000000000000000D+00
 0.592262702277526D+03 0.000000000000000D+00 0.000000000000000D+00 0.592262702277526D+03
 0.557518396853405D+03 0.000000000000000D+00 0.000000000000000D+00 -.557518396853405D+03
 0.142921850363687D+03 -.226372620732405D+02 0.105558392328567D+03 -.213631491642924D+02
 0.253817411099481D+02 -.149926826759504D+02 -.536880783643539D+00 0.204734952310259D+02
 0.467980153786079D+03 -.148151099484314D+03 -.360991204328998D+03 0.258344782134904D+03
 0.445765464901728D+03 0.243896005775066D+03 0.254210923614036D+03 -.257455128201637D+03
 0.677318889694894D+02 -.581149615415611D+02 0.175876917003812D+01 0.347443054241216D+02
0.156943339503D-04 0.000000000000D+00 0.000000000000D+00 0.832404481490D-06 0.000000000000D+00  7 -2 2 23 -13 13 23 21 0 0.26781113D-01 0.25794255D+00 0.20619726D+06 0.20619726D+06 0.20619726D+06 0.10968090D+01  1  2  2  1  7  1       -2 0.250263833570D-03 0.100000000000D+01
-.839912938038D-06 0.000000000000D+00 -.602703747820D-07 0.832404481490D-06 0.000000000000D+00  7 -2 2 23 -13 13 23 21 2 0.26781113D-01 0.25794255D+00 0.20619726D+06 0.20619726D+06 0.20619726D+06 0.10968090D+01  1  2  3  1  7  1       -2 -.161120746411D-04 0.100000000000D+01
0.953632962110D-06 0.000000000000D+00 0.000000000000D+00 0.832404481490D-06 0.000000000000D+00  7 -2 2 23 -13 13 23 21 2 0.26781113D-01 0.25794255D+00 0.20619726D+06 0.20619726D+06 0.20619726D+06 0.10968090D+01  1  2 15  1  7  1       -2 0.182935692140D-04 0.100000000000D+01
0.377595731233D-04 0.000000000000D+00 0.000000000000D+00 0.832404481490D-06 0.000000000000D+00  7 -2 2 23 -13 13 23 21 2 0.29758969D-01 0.25794255D+00 0.23453205D+06 0.23453205D+06 0.23453205D+06 0.10925520D+01  1  2 12  1  7  1       -2 0.594617887784D-03 0.100000000000D+01
-.373241603971D-04 0.000000000000D+00 0.000000000000D+00 0.832404481490D-06 0.000000000000D+00  7 -2 2 23 -13 13 23 21 2 0.26781113D-01 0.25794255D+00 0.20619726D+06 0.20619726D+06 0.20619726D+06 0.10968090D+01  1  2  4  1  7  1       -2 -.715990468774D-03 0.100000000000D+01
-.874575352970D-04 0.000000000000D+00 -.171384541063D-04 0.832404481490D-06 0.000000000000D+00  7 -2 2 23 -13 13 23 21 2 0.30288009D-01 0.25794255D+00 0.20619726D+06 0.20619726D+06 0.20619726D+06 0.10968090D+01  1  2  5  1  7  1       -2 -.135164674644D-02 0.100000000000D+01
0.890206040856D-04 0.000000000000D+00 0.170095080320D-04 0.832404481490D-06 0.000000000000D+00  7 -2 2 23 -13 13 23 21 2 0.26781113D-01 0.25794255D+00 0.20619726D+06 0.20619726D+06 0.20619726D+06 0.10968090D+01  1  2  6  1  7  1       -2 0.170768487145D-02 0.100000000000D+01
0.641877456315D-06 0.000000000000D+00 0.000000000000D+00 0.832404481490D-06 0.000000000000D+00  7 21 2 23 -13 13 23 2 2 0.29758969D-01 0.25794255D+00 0.23453205D+06 0.23453205D+06 0.23453205D+06 0.10925520D+01  1  2 12  3  7  1       -2 0.117504597763D-03 0.100000000000D+01
-.161176297860D-05 0.000000000000D+00 -.332113696394D-06 0.832404481490D-06 0.000000000000D+00  7 21 2 23 -13 13 23 2 2 0.30288009D-01 0.25794255D+00 0.20619726D+06 0.20619726D+06 0.20619726D+06 0.10968090D+01  1  2  5  3  7  1       -2 -.289498317660D-03 0.100000000000D+01
  </mgrwgt>
  </event>
  <event>
  8     66 0.53686478E-06 0.15980589E+03 0.75467711E-02 0.10356818E+00
       -2 -1    0    0    0  501 0.00000000E+00 0.00000000E+00 0.34913841E+02 0.34915307E+02 0.32000000E+00 0.0000E+00 0.9000E+01
        2 -1    0    0  501    0 0.00000000E+00 0.00000000E+00 -.18424930E+04 0.18424930E+04 0.32000000E+00 0.0000E+00 0.9000E+01
       25  2    1    2    0    0 0.99935397E+02 0.63434955E+02 -.89282370E+03 0.95038991E+03 0.30347280E+03 0.0000E+00 0.0000E+00
       23  2    1    2    0    0 -.99935397E+02 -.63434955E+02 -.91475543E+03 0.92701839E+03 0.92598791E+02 0.0000E+00 0.0000E+00
       23  1    3    3    0    0 0.13538284E+03 0.12840432E+03 -.59792614E+03 0.63296690E+03 0.91188000E+02 0.0000E+00 0.9000E+01
      -11  1    4    4    0    0 -.26856746E+02 -.15283304E+02 -.58598709E+03 0.58680127E+03 0.51099893E-03 0.0000E+00 0.9000E+01
       11  1    4    4    0    0 -.73078650E+02 -.48151652E+02 -.32876834E+03 0.34021712E+03 0.51099893E-03 0.0000E+00 0.9000E+01
       23  1    3    3    0    0 -.35447445E+02 -.64969367E+02 -.29489757E+03 0.31742301E+03 0.91188000E+02 0.0000E+00 0.9000E+01
#aMCatNLO 1  0  0  2  1 0.45210645D+02 0.00000000D+00  -5  7  0 0.00000000D+00 0.00000000D+00 0.00000000D+00 0.00000000D+00 0.00000000D+00
  <mgrwgt>
 0.4322297443D-03    9    2    0
 0.253633413723228D+03 0.000000000000000D+00 0.000000000000000D+00 0.253633413723228D+03
 0.253633413723228D+03 0.000000000000000D+00 0.000000000000000D+00 -.253633413723228D+03
 0.211995952898787D+03 0.135382841929315D+03 0.128404322020391D+03 0.425540702999202D+02
 0.836789369494120D+02 -.268567463704360D+02 -.152833038203643D+02 -.777643895861864D+02
 0.876297512204232D+02 -.730786501985618D+02 -.481516516208034D+02 -.446123640914631D+01
 0.123962186377832D+03 -.354474453603174D+02 -.649693665792238D+02 0.396715556954125D+02
 0.000000000000000D+00 -.000000000000000D+00 -.000000000000000D+00 -.000000000000000D+00
 0.272879454401843D+03 0.000000000000000D+00 0.000000000000000D+00 0.272879454401843D+03
 0.282653132184646D+03 0.000000000000000D+00 0.000000000000000D+00 -.282653132184646D+03
 0.228074631194495D+03 0.143001358742847D+03 0.146432744115221D+03 0.425540702999202D+02
 0.818241884304571D+02 -.239915506746216D+02 -.850311829964946D+01 -.777643895861864D+02
 0.814887208281581D+02 -.701508654991241D+02 -.412233557784296D+02 -.446123640914631D+01
 0.117890022980670D+03 -.312604917442652D+02 -.550613793778843D+02 0.396715556954125D+02
 0.462550231527104D+02 -.175984508248362D+02 -.416448906592578D+02 -.977367778280296D+01
0.124459833940D-05 0.000000000000D+00 0.000000000000D+00 0.293712762502D-08 0.000000000000D+00  7 -2 2 23 -11 11 23 21 0 0.53714750D-02 0.28346057D+00 0.49182110D+05 0.49182110D+05 0.49182110D+05 0.11479260D+01  1  2  2  2  7  2        2 0.210892047680D-03 0.100000000000D+01
-.676292227624D-07 0.000000000000D+00 -.477958533356D-08 0.293712762502D-08 0.000000000000D+00  7 -2 2 23 -11 11 23 21 2 0.53714750D-02 0.28346057D+00 0.49182110D+05 0.49182110D+05 0.49182110D+05 0.11479260D+01  1  2  3  2  7  2        2 -.151005629796D-04 0.100000000000D+01
0.765201662148D-07 0.000000000000D+00 0.000000000000D+00 0.293712762502D-08 0.000000000000D+00  7 -2 2 23 -11 11 23 21 2 0.53714750D-02 0.28346057D+00 0.49182110D+05 0.49182110D+05 0.49182110D+05 0.11479260D+01  1  2 15  2  7  2        2 0.170857736040D-04 0.100000000000D+01
0.139804690068D-05 0.000000000000D+00 0.000000000000D+00 0.293712762502D-08 0.000000000000D+00  7 -2 2 23 -11 11 23 21 2 0.53714750D-02 0.32562200D+00 0.59320285D+05 0.59320285D+05 0.59320285D+05 0.11408226D+01  1  2 12  2  7  2        2 0.220051883952D-03 0.100000000000D+01
-.126659114368D-05 0.000000000000D+00 0.000000000000D+00 0.293712762502D-08 0.000000000000D+00  7 -2 2 23 -11 11 23 21 2 0.53714750D-02 0.28346057D+00 0.49182110D+05 0.49182110D+05 0.49182110D+05 0.11479260D+01  1  2  4  2  7  2        2 -.282810278652D-03 0.100000000000D+01
-.397155627451D-05 0.000000000000D+00 -.956620224531D-06 0.293712762502D-08 0.000000000000D+00  7 -2 2 23 -11 11 23 21 2 0.53714750D-02 0.32717672D+00 0.49182110D+05 0.49182110D+05 0.49182110D+05 0.11479260D+01  1  2  5  2  7  2        2 -.626552812715D-03 0.100000000000D+01
0.407651592495D-05 0.000000000000D+00 0.946864343648D-06 0.293712762502D-08 0.000000000000D+00  7 -2 2 23 -11 11 23 21 2 0.53714750D-02 0.28346057D+00 0.49182110D+05 0.49182110D+05 0.49182110D+05 0.11479260D+01  1  2  6  2  7  2        2 0.910223169031D-03 0.100000000000D+01
0.299119494812D-07 0.000000000000D+00 0.000000000000D+00 0.293712762502D-08 0.000000000000D+00  7 -2 21 23 -11 11 23 -2 2 0.53714750D-02 0.32562200D+00 0.59320285D+05 0.59320285D+05 0.59320285D+05 0.11408226D+01  1  2 12  4  7  2        2 0.904527780109D-06 0.100000000000D+01
-.812304995423D-07 0.000000000000D+00 -.210410518259D-07 0.293712762502D-08 0.000000000000D+00  7 -2 21 23 -11 11 23 -2 2 0.53714750D-02 0.32717672D+00 0.49182110D+05 0.49182110D+05 0.49182110D+05 0.11479260D+01  1  2  5  4  7  2        2 -.246400342613D-05 0.100000000000D+01
  </mgrwgt>
  </event>
  <event>
  8     66 0.53686478E-06 0.26233037E+03 0.75467711E-02 0.10002224E+00
       -2 -1    0    0    0  501 0.00000000E+00 0.00000000E+00 0.12817403E+04 0.12817403E+04 0.32000000E+00 0.0000E+00 0.9000E+01
        2 -1    0    0  501    0 0.00000000E+00 0.00000000E+00 -.21950042E+03 0.21950065E+03 0.32000000E+00 0.0000E+00 0.9000E+01
       25  2    1    2    0    0 -.23289535E+03 -.15682669E+03 0.13402604E+02 0.41079800E+03 0.29956720E+03 0.0000E+00 0.0000E+00
       23  2    1    2    0    0 0.23289535E+03 0.15682669E+03 0.10488373E+04 0.10904430E+04 0.10085356E+03 0.0000E+00 0.0000E+00
       23  1    3    3    0    0 -.89062848E+02 -.80250690E+02 -.11040632E+03 0.18675431E+03 0.91188000E+02 0.0000E+00 0.9000E+01
      -13  1    4    4    0    0 0.21383119E+03 0.17163301E+03 0.96181669E+03 0.10001365E+04 0.10565837E+00 0.0000E+00 0.9000E+01
       13  1    4    4    0    0 0.19064162E+02 -.14806315E+02 0.87020582E+02 0.90306490E+02 0.10565837E+00 0.0000E+00 0.9000E+01
       23  1    3    3    0    0 -.14383251E+03 -.76576004E+02 0.12380893E+03 0.22404369E+03 0.91188000E+02 0.0000E+00 0.9000E+01
#aMCatNLO 1  0  0  2  2 0.20771341D+01 0.00000000D+00  -5  7  0 0.00000000D+00 0.00000000D+00 0.00000000D+00 0.00000000D+00 0.00000000D+00
  <mgrwgt>
 0.1738312403D-03   10    2    0
 0.530417515832998D+03 0.000000000000000D+00 0.000000000000000D+00 0.530417515832998D+03
 0.530417515832998D+03 0.000000000000000D+00 0.000000000000000D+00 -.530417515832998D+03
 0.374837944898767D+03 -.890628483708650D+02 -.802506902740826D+02 -.343243163577270D+03
 0.452253498570850D+03 0.213831404902397D+03 0.171633211127742D+03 0.359654553822165D+03
 0.406609800697873D+02 0.190639487201945D+02 -.148065171123210D+02 0.327207611530047D+02
 0.193082608126593D+03 -.143832505251727D+03 -.765760037413379D+02 -.491321513978998D+02
 0.000000000000000D+00 -.000000000000000D+00 0.000000000000000D+00 -.000000000000000D+00
 0.531147039220963D+03 0.000000000000000D+00 0.000000000000000D+00 0.531147039220963D+03
 0.531899125225167D+03 0.000000000000000D+00 0.000000000000000D+00 -.531899125225167D+03
 0.374702060307334D+03 -.883461389173610D+02 -.804081653218310D+02 -.343243163577270D+03
 0.452591177844379D+03 0.214696616537580D+03 0.171443107253854D+03 0.359654553822165D+03
 0.407037374821295D+02 0.191417495871878D+02 -.148236114804568D+02 0.327207611530047D+02
 0.192840089563227D+03 -.143463486328340D+03 -.766570843972386D+02 -.491321513978998D+02
 0.220909924906032D+01 -.202874087906673D+01 0.445753945672441D+00 -.752086004204237D+00
0.504364896035D-04 0.000000000000D+00 0.000000000000D+00 0.358706679710D-07 0.000000000000D+00  7 -2 2 23 -13 13 23 21 0 0.19719084D+00 0.33769317D-01 0.10102306D+06 0.10102306D+06 0.10102306D+06 0.11213595D+01  1  2  2  2  7  2        2 0.130686060781D-03 0.100000000000D+01
-.190854801940D-05 0.000000000000D+00 -.193689400310D-06 0.358706679710D-07 0.000000000000D+00  7 -2 2 23 -13 13 23 21 2 0.19719084D+00 0.33769317D-01 0.10102306D+06 0.10102306D+06 0.10102306D+06 0.11213595D+01  1  2  3  2  7  2        2 -.621837940241D-05 0.100000000000D+01
0.299268518684D-05 0.000000000000D+00 0.000000000000D+00 0.358706679710D-07 0.000000000000D+00  7 -2 2 23 -13 13 23 21 2 0.19719084D+00 0.33769317D-01 0.10102306D+06 0.10102306D+06 0.10102306D+06 0.11213595D+01  1  2 15  2  7  2        2 0.975068572265D-05 0.100000000000D+01
-.283148299965D-02 0.000000000000D+00 0.000000000000D+00 0.358706679710D-07 0.000000000000D+00  7 -2 2 23 -13 13 23 21 2 0.19719084D+00 0.33769317D-01 0.10102306D+06 0.10102306D+06 0.10102306D+06 0.11213595D+01  1  2  4  2  7  2        2 -.922546112771D-02 0.100000000000D+01
-.182120433879D-01 0.000000000000D+00 -.168803415758D-02 0.358706679710D-07 0.000000000000D+00  7 -2 2 23 -13 13 23 21 2 0.19719084D+00 0.33908194D-01 0.10102306D+06 0.10102306D+06 0.10102306D+06 0.11213595D+01  1  2  5  2  7  2        2 -.590658894903D-01 0.100000000000D+01
0.182188320139D-01 0.000000000000D+00 0.168801994142D-02 0.358706679710D-07 0.000000000000D+00  7 -2 2 23 -13 13 23 21 2 0.19719084D+00 0.33769317D-01 0.10102306D+06 0.10102306D+06 0.10102306D+06 0.11213595D+01  1  2  6  2  7  2        2 0.593601044248D-01 0.100000000000D+01
0.283149641439D-02 0.000000000000D+00 0.000000000000D+00 0.358706679710D-07 0.557336634678D-07  7 -2 2 23 -13 13 23 21 2 0.19746205D+00 0.33863644D-01 0.10169687D+06 0.10169687D+06 0.10169687D+06 0.11211229D+01  1  2 11  2  7  2        2 0.915177095341D-02 0.100000000000D+01
0.310793896926D-08 0.000000000000D+00 0.000000000000D+00 0.358706679710D-07 0.000000000000D+00  7 -2 21 23 -13 13 23 -2 2 0.19719084D+00 0.33886818D-01 0.10169687D+06 0.10169687D+06 0.10169687D+06 0.11211229D+01  1  2 12  4  7  2        2 0.471267883170D-07 0.100000000000D+01
-.139179871463D-04 0.000000000000D+00 -.129101074230D-05 0.358706679710D-07 0.000000000000D+00  7 -2 21 23 -13 13 23 -2 2 0.19719084D+00 0.33908194D-01 0.10102306D+06 0.10102306D+06 0.10102306D+06 0.11213595D+01  1  2  5  4  7  2        2 -.210962484793D-03 0.100000000000D+01
0.198437995146D-05 0.000000000000D+00 0.000000000000D+00 0.358706679710D-07 0.290216308606D-10  7 -2 21 23 -13 13 23 -2 2 0.19746205D+00 0.33863644D-01 0.10169687D+06 0.10169687D+06 0.10169687D+06 0.11211229D+01  1  2 11  4  7  2        2 0.300034709894D-04 0.100000000000D+01
  </mgrwgt>
  </event>
  <event>
  9     66 0.53686478E-06 0.15907390E+03 0.75467711E-02 0.10427549E+00
       -2 -1    0    0    0  501 0.00000000E+00 0.00000000E+00 0.22792850E+03 0.22792872E+03 0.32000000E+00 0.0000E+00 0.9000E+01
       21 -1    0    0  501  502 0.00000000E+00 0.00000000E+00 -.54973717E+03 0.54973768E+03 0.75000000E+00 0.0000E+00 0.9000E+01
       25  2    1    2    0    0 0.12859793E+03 -.38307720E+02 -.91297734E+02 0.34071014E+03 0.29957172E+03 0.0000E+00 0.0000E+00
       23  2    1    2    0    0 0.57153481E+01 -.22096093E+02 0.51341762E+02 0.11894726E+03 0.10484070E+03 0.0000E+00 0.0000E+00
       23  1    3    3    0    0 0.14796295E+03 -.70897726E+02 0.23620172E+02 0.18918955E+03 0.91188000E+02 0.0000E+00 0.9000E+01
      -13  1    4    4    0    0 0.74486882E+01 -.24694976E+02 -.28847143E+02 0.38697463E+02 0.10565837E+00 0.0000E+00 0.9000E+01
       13  1    4    4    0    0 -.17333401E+01 0.25988829E+01 0.80188905E+02 0.80249799E+02 0.10565837E+00 0.0000E+00 0.9000E+01
       23  1    3    3    0    0 -.19365019E+02 0.32590005E+02 -.11491791E+03 0.15152059E+03 0.91188000E+02 0.0000E+00 0.9000E+01
       -2  1    1    2    0  502 -.13431328E+03 0.60403813E+02 -.28185270E+03 0.31800900E+03 0.32000000E+00 0.0000E+00 0.9000E+01
#aMCatNLO 2  0  0  2  1 0.14727076D+03 0.00000000D+00  -5  7  0 0.00000000D+00 0.00000000D+00 0.00000000D+00 0.00000000D+00 0.00000000D+00
  <mgrwgt>
 0.1472065813D-04    2    2    0
 0.216794700568738D+03 0.000000000000000D+00 0.000000000000000D+00 0.216794700568738D+03
 0.216794700568738D+03 0.000000000000000D+00 0.000000000000000D+00 -.216794700568738D+03
 0.147029111812382D+03 0.968901456034676D+02 -.479289182160469D+02 0.402172458022198D+02
 0.326172682403034D+02 -.293873074341310D+01 -.200234450828500D+02 -.255795171199871D+02
 0.933635545292518D+02 -.289901254900442D+02 0.148564647807940D+02 0.874963507389028D+02
 0.160579466555540D+03 -.649612893700104D+02 0.530958985181029D+02 -.102134079421136D+03
 0.000000000000000D+00 -.000000000000000D+00 0.000000000000000D+00 -.000000000000000D+00
 0.248682937365111D+03 0.000000000000000D+00 0.000000000000000D+00 0.248682937365111D+03
 0.503858338753721D+03 0.000000000000000D+00 0.000000000000000D+00 -.503858338753721D+03
 0.191969469943661D+03 0.147963234004022D+03 -.708976767574593D+02 0.402172458022198D+02
 0.363265340556478D+02 0.744825344717391D+01 -.246947140293442D+02 -.255795171199871D+02
 0.875520951763759D+02 -.173360741673664D+01 0.259857316093556D+01 0.874963507389028D+02
 0.142069411423858D+03 -.193646003829930D+02 0.325900044664850D+02 -.102134079421136D+03
 0.294623765519289D+03 -.134313279651466D+03 0.604038131593829D+02 -.255175401388611D+03
-.849377131591D-09 0.000000000000D+00 0.000000000000D+00 0.120967104763D-08 0.000000000000D+00  7 -2 21 23 -13 13 23 -2 2 0.30569512D-01 0.83760099D-01 0.53511606D+05 0.53511606D+05 0.53511606D+05 0.11447115D+01  1  2 13  4  7  2        2 -.132332507601D-06 0.100000000000D+01
0.124436147794D-06 0.000000000000D+00 0.000000000000D+00 0.120967104763D-08 0.501588462514D-13  7 -2 21 23 -13 13 23 -2 2 0.35065968D-01 0.84574979D-01 0.53511606D+05 0.53511606D+05 0.53511606D+05 0.11447115D+01  1  2  1  4  7  2        2 0.148529906378D-04 0.100000000000D+01
  </mgrwgt>
  </event>
  <event>
  7     66 0.53686478E-06 0.27244195E+03 0.75467711E-02 0.99448883E-01
       -2 -1    0    0    0  501 0.00000000E+00 0.00000000E+00 0.37097439E+02 0.37098819E+02 0.32000000E+00 0.0000E+00 0.9000E+01
        2 -1    0    0  501    0 0.00000000E+00 0.00000000E+00 -.22636122E+04 0.22636122E+04 0.32000000E+00 0.0000E+00 0.9000E+01
       23  2    1    2    0    0 -.48967812E+02 -.19668512E+03 -.62492971E+03 0.66322790E+03 0.90836207E+02 0.0000E+00 0.0000E+00
       23  1    1    2    0    0 -.25248277E+02 -.17538302E+02 -.48885343E+03 0.49823488E+03 0.91188000E+02 0.0000E+00 0.9000E+01
      -13  1    3    3    0    0 -.44839866E+02 -.19452835E+03 -.50238498E+03 0.54059465E+03 0.10565837E+00 0.0000E+00 0.9000E+01
       13  1    3    3    0    0 -.41279458E+01 -.21567677E+01 -.12254473E+03 0.12263325E+03 0.10565837E+00 0.0000E+00 0.9000E+01
       23  1    1    2    0    0 0.74216089E+02 0.21422342E+03 -.11127316E+04 0.11392483E+04 0.91188000E+02 0.0000E+00 0.9000E+01
#aMCatNLO 1  0  0  1  1 0.11363546D+03 0.00000000D+00  -5  7  0 0.00000000D+00 0.00000000D+00 0.00000000D+00 0.00000000D+00 0.00000000D+00
  <mgrwgt>
 0.1010197285D-02    4    2    0
 0.289785834839868D+03 0.000000000000000D+00 0.000000000000000D+00 0.289785834839868D+03
 0.289785834839868D+03 0.000000000000000D+00 0.000000000000000D+00 -.289785834839868D+03
 0.998239081945704D+02 -.252482725776869D+02 -.175382922738756D+02 -.265423122428505D+02
 0.215995136884259D+03 -.448399227334947D+02 -.194528619085334D+03 0.824736130144469D+02
 0.160391927311111D+02 -.412789078784978D+01 -.215650796170231D+01 -.153481495471091D+02
 0.247713431869796D+03 0.742160860990314D+02 0.214223419320912D+03 -.405831512244873D+02
 0.000000000000000D+00 0.000000000000000D+00 -.000000000000000D+00 -.000000000000000D+00
 0.325983850933882D+03 0.000000000000000D+00 0.000000000000000D+00 0.325983850933882D+03
 0.400525159268159D+03 0.000000000000000D+00 0.000000000000000D+00 -.400525159268159D+03
 0.998581500208644D+02 -.308357414620784D+02 0.103028679325648D+01 -.265423122428505D+02
 0.186117857785317D+03 -.560917791386488D+02 -.157135840774789D+03 0.824736130144469D+02
 0.161729024614230D+02 -.502924407515993D+01 0.838918076300734D+00 -.153481495471091D+02
 0.288457843056258D+03 0.592130340365290D+02 0.264082374106164D+03 -.405831512244873D+02
 0.135902256878179D+03 0.327437306393581D+02 -.108815738200933D+03 -.745413083342761D+02
0.130124663181D-04 0.000000000000D+00 0.000000000000D+00 0.222032436152D-09 0.000000000000D+00  7 -2 2 23 -13 13 23 21 0 0.57074063D-02 0.34824814D+00 0.74224615D+05 0.74224615D+05 0.74224615D+05 0.11325025D+01  1  2  2  1  7  1       -2 0.119227610427D-02 0.100000000000D+01
-.719566894886D-06 0.000000000000D+00 -.499712969228D-07 0.222032436152D-09 0.000000000000D+00  7 -2 2 23 -13 13 23 21 2 0.57074063D-02 0.34824814D+00 0.74224615D+05 0.74224615D+05 0.74224615D+05 0.11325025D+01  1  2  3  1  7  1       -2 -.845603360561D-04 0.100000000000D+01
0.827388225736D-06 0.000000000000D+00 0.000000000000D+00 0.222032436152D-09 0.000000000000D+00  7 -2 2 23 -13 13 23 21 2 0.57074063D-02 0.34824814D+00 0.74224615D+05 0.74224615D+05 0.74224615D+05 0.11325025D+01  1  2 15  1  7  1       -2 0.972310245432D-04 0.100000000000D+01
-.165722258039D-05 0.000000000000D+00 0.000000000000D+00 0.222032436152D-09 0.000000000000D+00  7 -2 2 23 -13 13 23 21 2 0.57074063D-02 0.34824814D+00 0.74224615D+05 0.74224615D+05 0.74224615D+05 0.11325025D+01  1  2  4  1  7  1       -2 -.194749507397D-03 0.100000000000D+01
  </mgrwgt>
  </event>
  <event>
  8     66 0.53686478E-06 0.56103993E+03 0.75467711E-02 0.88835635E-01
       -2 -1    0    0    0  501 0.00000000E+00 0.00000000E+00 0.51474527E+03 0.51474537E+03 0.32000000E+00 0.0000E+00 0.9000E+01
        2 -1    0    0  501    0 0.00000000E+00 0.00000000E+00 -.10788476E+04 0.10788477E+04 0.32000000E+00 0.0000E+00 0.9000E+01
       25  2    1    2    0    0 0.36083958E+03 0.57028032E+03 -.56507658E+02 0.73990520E+03 0.29806332E+03 0.0000E+00 0.0000E+00
       23  2    1    2    0    0 -.36083958E+03 -.57028032E+03 -.50759471E+03 0.85368785E+03 0.12532240E+03 0.0000E+00 0.0000E+00
       23  1    3    3    0    0 0.35171222E+03 0.50286600E+03 -.74023512E+02 0.62479631E+03 0.91188000E+02 0.0000E+00 0.9000E+01
      -13  1    4    4    0    0 -.12455932E+03 -.12617036E+03 -.18414134E+03 0.25562086E+03 0.10565837E+00 0.0000E+00 0.9000E+01
       13  1    4    4    0    0 -.23628026E+03 -.44410996E+03 -.32345338E+03 0.59806699E+03 0.10565837E+00 0.0000E+00 0.9000E+01
       23  1    3    3    0    0 0.91273589E+01 0.67414323E+02 0.17515854E+02 0.11510889E+03 0.91188000E+02 0.0000E+00 0.9000E+01
#aMCatNLO 1  0  0  2  1 0.28166212D+03 0.00000000D+00  -5  7  0 0.00000000D+00 0.00000000D+00 0.00000000D+00 0.00000000D+00 0.00000000D+00
  <mgrwgt>
 0.3325975746D-03    9    2    0
 0.745205901191026D+03 0.000000000000000D+00 0.000000000000000D+00 0.745205901191026D+03
 0.745205901191026D+03 0.000000000000000D+00 0.000000000000000D+00 -.745205901191026D+03
 0.640034004699238D+03 0.351712225299481D+03 0.502866003790942D+03 0.157329490667068D+03
 0.203622069110880D+03 -.124559232459956D+03 -.126170147346967D+03 -.100140094649583D+03
 0.517048314957858D+03 -.236280352124421D+03 -.444110179972781D+03 -.119485159100465D+03
 0.129707413614076D+03 0.912735928489599D+01 0.674143235288056D+02 0.622957630829802D+02
 0.000000000000000D+00 0.000000000000000D+00 0.000000000000000D+00 -.000000000000000D+00
 0.863624565803522D+03 0.000000000000000D+00 0.000000000000000D+00 0.863624565803522D+03
 0.946876461951590D+03 0.000000000000000D+00 0.000000000000000D+00 -.946876461951590D+03
 0.541439284816056D+03 0.320495229273012D+03 0.396700752681166D+03 0.157329490667068D+03
 0.236742348575001D+03 -.136194581645665D+03 -.165740571323807D+03 -.100140094649583D+03
 0.619317321322286D+03 -.266305509584331D+03 -.546222131380245D+03 -.119485159100465D+03
 0.119294007503266D+03 0.254822081212170D+01 0.450394644150129D+02 0.622957630829802D+02
 0.293708065538503D+03 0.794566411448616D+02 0.270222485607874D+03 -.832518961480675D+02
0.611331766881D-04 0.000000000000D+00 0.000000000000D+00 0.373666391104D-09 0.000000000000D+00  7 -2 2 23 -13 13 23 21 0 0.79191591D-01 0.16597657D+00 0.50021194D+06 0.50021194D+06 0.50021194D+06 0.10684974D+01  1  2  2  2  7  2        2 0.244343993023D-03 0.100000000000D+01
-.338500677341D-05 0.000000000000D+00 -.234767495217D-06 0.373666391104D-09 0.000000000000D+00  7 -2 2 23 -13 13 23 21 2 0.79191591D-01 0.16597657D+00 0.50021194D+06 0.50021194D+06 0.50021194D+06 0.10684974D+01  1  2  3  2  7  2        2 -.154465386422D-04 0.100000000000D+01
0.359128153598D-05 0.000000000000D+00 0.000000000000D+00 0.373666391104D-09 0.000000000000D+00  7 -2 2 23 -13 13 23 21 2 0.79191591D-01 0.16597657D+00 0.50021194D+06 0.50021194D+06 0.50021194D+06 0.10684974D+01  1  2 15  2  7  2        2 0.163878162539D-04 0.100000000000D+01
0.322653846086D-04 0.000000000000D+00 0.000000000000D+00 0.373666391104D-09 0.000000000000D+00  7 -2 2 23 -13 13 23 21 2 0.79191591D-01 0.22117643D+00 0.74276621D+06 0.74276621D+06 0.74276621D+06 0.10565706D+01  1  2 12  2  7  2        2 0.874779209714D-04 0.100000000000D+01
-.371207631355D-04 0.000000000000D+00 0.000000000000D+00 0.373666391104D-09 0.000000000000D+00  7 -2 2 23 -13 13 23 21 2 0.79191591D-01 0.16597657D+00 0.50021194D+06 0.50021194D+06 0.50021194D+06 0.10684974D+01  1  2  4  2  7  2        2 -.169390296855D-03 0.100000000000D+01
-.732752148001D-04 0.000000000000D+00 -.272644793869D-04 0.373666391104D-09 0.000000000000D+00  7 -2 2 23 -13 13 23 21 2 0.79191591D-01 0.23042932D+00 0.50021194D+06 0.50021194D+06 0.50021194D+06 0.10684974D+01  1  2  5  2  7  2        2 -.191825013457D-03 0.100000000000D+01
0.793174296904D-04 0.000000000000D+00 0.258600568434D-04 0.373666391104D-09 0.000000000000D+00  7 -2 2 23 -13 13 23 21 2 0.79191591D-01 0.16597657D+00 0.50021194D+06 0.50021194D+06 0.50021194D+06 0.10684974D+01  1  2  6  2  7  2        2 0.361943069757D-03 0.100000000000D+01
0.120821939321D-05 0.000000000000D+00 0.000000000000D+00 0.373666391104D-09 0.000000000000D+00  7 -2 21 23 -13 13 23 -2 2 0.79191591D-01 0.22117643D+00 0.74276621D+06 0.74276621D+06 0.74276621D+06 0.10565706D+01  1  2 12  4  7  2        2 0.118735146103D-05 0.100000000000D+01
-.232056621241D-05 0.000000000000D+00 -.112419528684D-05 0.373666391104D-09 0.000000000000D+00  7 -2 21 23 -13 13 23 -2 2 0.79191591D-01 0.23042932D+00 0.50021194D+06 0.50021194D+06 0.50021194D+06 0.10684974D+01  1  2  5  4  7  2        2 -.208072787491D-05 0.100000000000D+01
  </mgrwgt>
  </event>
  <event>
  8     66 0.53686478E-06 0.27041535E+03 0.75467711E-02 0.10198388E+00
       -2 -1    0    0    0  501 0.00000000E+00 0.00000000E+00 0.29148571E+03 0.29148589E+03 0.32000000E+00 0.0000E+00 0.9000E+01
        2 -1    0    0  501    0 0.00000000E+00 0.00000000E+00 -.34833973E+03 0.34833987E+03 0.32000000E+00 0.0000E+00 0.9000E+01
       25  2    1    2    0    0 -.16933123E+03 -.12655182E+03 0.71735706E+02 0.37373415E+03 0.29973784E+03 0.0000E+00 0.0000E+00
       23  2    1    2    0    0 0.16933123E+03 0.12655182E+03 -.12858972E+03 0.26609162E+03 0.97882605E+02 0.0000E+00 0.0000E+00
       23  1    3    3    0    0 -.17190412E+03 -.11682976E+03 0.13332976E+03 0.26323430E+03 0.91188000E+02 0.0000E+00 0.9000E+01
      -11  1    4    4    0    0 0.97941178E+02 0.30772678E+02 -.99880168E+02 0.14323226E+03 0.51099893E-03 0.0000E+00 0.9000E+01
       11  1    4    4    0    0 0.71390053E+02 0.95779142E+02 -.28709551E+02 0.12285936E+03 0.51099893E-03 0.0000E+00 0.9000E+01
       23  1    3    3    0    0 0.25728902E+01 -.97220553E+01 -.61594052E+02 0.11049985E+03 0.91188000E+02 0.0000E+00 0.9000E+01
#aMCatNLO 1  0  0  1  1 0.71377364D+01 0.00000000D+00  -5  7  0 0.00000000D+00 0.00000000D+00 0.00000000D+00 0.00000000D+00 0.00000000D+00
  <mgrwgt>
 0.7477002346D-04    6    2    0
 0.318647387415554D+03 0.000000000000000D+00 0.000000000000000D+00 0.318647387415554D+03
 0.318647387415554D+03 0.000000000000000D+00 0.000000000000000D+00 -.318647387415554D+03
 0.276174268119521D+03 -.171904120551209D+03 -.116829764001604D+03 0.157342793315100D+03
 0.134890641524997D+03 0.979411776640777D+02 0.307726777633184D+02 -.874988753760518D+02
 0.120786067331097D+03 0.713900526958799D+02 0.957791415703790D+02 -.178631038017785D+02
 0.105443797855492D+03 0.257289019125125D+01 -.972205533209341D+01 -.519808141372693D+02
 0.000000000000000D+00 0.000000000000000D+00 0.000000000000000D+00 -.000000000000000D+00
 0.321206516113884D+03 0.000000000000000D+00 0.000000000000000D+00 0.321206516113884D+03
 0.323683560024146D+03 0.000000000000000D+00 0.000000000000000D+00 -.323683560024146D+03
 0.278519458565857D+03 -.174481146777831D+03 -.118563958548596D+03 0.157342793315100D+03
 0.133796610823070D+03 0.966928958416070D+02 0.299326538988833D+02 -.874988753760518D+02
 0.119531379878937D+03 0.702735728541558D+02 0.950278130688130D+02 -.178631038017785D+02
 0.105487295828966D+03 0.159293506595526D+01 -.103815103337651D+02 -.519808141372693D+02
 0.755533104120025D+01 0.592174301611274D+01 0.398500191466443D+01 -.247704391026178D+01
0.209757602787D-05 0.000000000000D+00 0.000000000000D+00 0.107319092153D-07 0.000000000000D+00  7 -2 2 23 -11 11 23 21 0 0.44843981D-01 0.53590752D-01 0.73124459D+05 0.73124459D+05 0.73124459D+05 0.11330510D+01  1  2  2  1  7  1       -2 0.111925187917D-03 0.100000000000D+01
-.112715357803D-06 0.000000000000D+00 -.805524425149D-08 0.107319092153D-07 0.000000000000D+00  7 -2 2 23 -11 11 23 21 2 0.44843981D-01 0.53590752D-01 0.73124459D+05 0.73124459D+05 0.73124459D+05 0.11330510D+01  1  2  3  1  7  1       -2 -.772132972552D-05 0.100000000000D+01
0.130233439539D-06 0.000000000000D+00 0.000000000000D+00 0.107319092153D-07 0.000000000000D+00  7 -2 2 23 -11 11 23 21 2 0.44843981D-01 0.53590752D-01 0.73124459D+05 0.73124459D+05 0.73124459D+05 0.11330510D+01  1  2 15  1  7  1       -2 0.892136925766D-05 0.100000000000D+01
-.795317795490D-06 0.000000000000D+00 0.000000000000D+00 0.107319092153D-07 0.000000000000D+00  7 -2 2 23 -11 11 23 21 2 0.44843981D-01 0.53590752D-01 0.73124459D+05 0.73124459D+05 0.73124459D+05 0.11330510D+01  1  2  4  1  7  1       -2 -.544815813502D-04 0.100000000000D+01
0.229303154489D-06 0.000000000000D+00 0.000000000000D+00 0.107319092153D-07 0.144013129516D-08  7 -2 2 23 -11 11 23 21 2 0.45204133D-01 0.54437746D-01 0.75118668D+05 0.75118668D+05 0.75118668D+05 0.11320633D+01  1  2 11  1  7  1       -2 0.151803040611D-04 0.100000000000D+01
0.129167012106D-08 0.000000000000D+00 0.000000000000D+00 0.107319092153D-07 0.216622886442D-11  7 21 2 23 -11 11 23 2 2 0.45204133D-01 0.54437746D-01 0.75118668D+05 0.75118668D+05 0.75118668D+05 0.11320633D+01  1  2 11  3  7  1       -2 0.946073294825D-06 0.100000000000D+01
  </mgrwgt>
  </event>
  <event>
  8     66 0.53686478E-06 0.18432671E+03 0.75467711E-02 0.10109786E+00
       -2 -1    0    0    0  501 0.00000000E+00 0.00000000E+00 0.27181974E+03 0.27181993E+03 0.32000000E+00 0.0000E+00 0.9000E+01
        2 -1    0    0  501    0 0.00000000E+00 0.00000000E+00 -.15886868E+03 0.15886900E+03 0.32000000E+00 0.0000E+00 0.9000E+01
       25  2    1    2    0    0 0.38047837E+02 -.46125831E+02 0.95827809E+02 0.32053288E+03 0.29997188E+03 0.0000E+00 0.0000E+00
       23  2    1    2    0    0 -.38047837E+02 0.46125831E+02 0.17123258E+02 0.11015605E+03 0.90917098E+02 0.0000E+00 0.0000E+00
       23  1    3    3    0    0 -.86911705E+02 -.76724377E+02 0.35609184E+02 0.15173510E+03 0.91188000E+02 0.0000E+00 0.9000E+01
      -13  1    4    4    0    0 -.28866888E+02 0.45970539E+02 0.51347916E+02 0.74720863E+02 0.10565837E+00 0.0000E+00 0.9000E+01
       13  1    4    4    0    0 -.91809487E+01 0.15529221E+00 -.34224658E+02 0.35435185E+02 0.10565837E+00 0.0000E+00 0.9000E+01
       23  1    3    3    0    0 0.12495954E+03 0.30598545E+02 0.60218624E+02 0.16879779E+03 0.91188000E+02 0.0000E+00 0.9000E+01
#aMCatNLO 1  0  0  2  1 0.17225250D+03 0.00000000D+00  -5  7  0 0.00000000D+00 0.00000000D+00 0.00000000D+00 0.00000000D+00 0.00000000D+00
  <mgrwgt>
 0.5255361943D-03    3    2    0
 0.207807008601873D+03 0.000000000000000D+00 0.000000000000000D+00 0.207807008601873D+03
 0.207807008601873D+03 0.000000000000000D+00 0.000000000000000D+00 -.207807008601873D+03
 0.147561270818067D+03 -.869116287942646D+02 -.767244693995281D+02 -.433611313640023D+01
 0.634763504063247D+02 -.288669895365419D+02 0.459706635114058D+02 0.329035267460010D+02
 0.460215902744171D+02 -.918100619856656D+01 0.155360261494515D+00 -.450962499522672D+02
 0.158554805704937D+03 0.124959624529373D+03 0.305984456266279D+02 0.165288363426664D+02
 0.000000000000000D+00 0.000000000000000D+00 -.000000000000000D+00 0.000000000000000D+00
 0.330328389243913D+03 0.000000000000000D+00 0.000000000000000D+00 0.330328389243913D+03
 0.295337615306758D+03 0.000000000000000D+00 0.000000000000000D+00 -.295337615306758D+03
 0.128972237163700D+03 -.884782319016968D+02 -.217114536000605D+02 -.433611313640023D+01
 0.880976485324276D+02 -.297256785955150D+02 0.761244877595540D+02 0.329035267460010D+02
 0.499903066014003D+02 -.972492775474209D+01 0.192557724983887D+02 -.450962499522672D+02
 0.182835280839307D+03 0.123025599338972D+03 0.985138977608351D+02 0.165288363426664D+02
 0.175770531413836D+03 0.490323891298210D+01 -.172182704418717D+03 0.349907739371549D+02
0.358272799568D-05 0.000000000000D+00 0.000000000000D+00 0.172937722441D-06 0.000000000000D+00  7 -2 2 23 -13 13 23 21 0 0.41818461D-01 0.24441374D-01 0.33976336D+05 0.33976336D+05 0.33976336D+05 0.11623536D+01  1  2  2  2  7  2        2 0.518068192173D-03 0.100000000000D+01
-.195561388781D-06 0.000000000000D+00 -.137586188573D-07 0.172937722441D-06 0.000000000000D+00  7 -2 2 23 -13 13 23 21 2 0.41818461D-01 0.24441374D-01 0.33976336D+05 0.33976336D+05 0.33976336D+05 0.11623536D+01  1  2  3  2  7  2        2 -.382060997010D-04 0.100000000000D+01
0.233787035193D-06 0.000000000000D+00 0.000000000000D+00 0.172937722441D-06 0.000000000000D+00  7 -2 2 23 -13 13 23 21 2 0.41818461D-01 0.24441374D-01 0.33976336D+05 0.33976336D+05 0.33976336D+05 0.11623536D+01  1  2 15  2  7  2        2 0.456741017798D-04 0.100000000000D+01
  </mgrwgt>
  </event>
  <event>
  8     66 0.53686478E-06 0.44932238E+03 0.75467711E-02 0.87824454E-01
       -2 -1    0    0    0  501 0.00000000E+00 0.00000000E+00 0.26541472E+03 0.26541491E+03 0.32000000E+00 0.0000E+00 0.9000E+01
        2 -1    0    0  501    0 0.00000000E+00 0.00000000E+00 -.27932852E+04 0.27932852E+04 0.32000000E+00 0.0000E+00 0.9000E+01
       25  2    1    2    0    0 -.64887590E+03 -.15244184E+03 -.21841750E+04 0.23031503E+04 0.29933651E+03 0.0000E+00 0.0000E+00
       23  2    1    2    0    0 0.64887590E+03 0.15244184E+03 -.34369547E+03 0.75554983E+03 0.91926736E+02 0.0000E+00 0.0000E+00
       23  1    3    3    0    0 -.21417679E+03 -.34627826E+02 -.11123568E+04 0.11369801E+04 0.91188000E+02 0.0000E+00 0.9000E+01
      -11  1    4    4    0    0 0.54746558E+03 0.93083957E+02 -.28607806E+03 0.62467899E+03 0.51099893E-03 0.0000E+00 0.9000E+01
       11  1    4    4    0    0 0.10141032E+03 0.59357883E+02 -.57617415E+02 0.13087084E+03 0.51099893E-03 0.0000E+00 0.9000E+01
       23  1    3    3    0    0 -.43469911E+03 -.11781401E+03 -.10718182E+04 0.11661702E+04 0.91188000E+02 0.0000E+00 0.9000E+01
#aMCatNLO 1  0  0  1  2 0.48303212D+03 0.00000000D+00  -5  7  0 0.00000000D+00 0.00000000D+00 0.00000000D+00 0.00000000D+00 0.00000000D+00
  <mgrwgt>
 0.1955745229D-03    9    2    0
 0.861033870279993D+03 0.000000000000000D+00 0.000000000000000D+00 0.861033870279993D+03
 0.861033870279993D+03 0.000000000000000D+00 0.000000000000000D+00 -.861033870279993D+03
 0.386620781033083D+03 -.214176794747359D+03 -.346278262044911D+02 -.306740266718816D+03
 0.689599728386699D+03 0.547465584938523D+03 0.930839570089564D+02 0.408857671624839D+03
 0.147871821862556D+03 0.101410315086614D+03 0.593578831097923D+02 0.897700696652809D+02
 0.497975409277649D+03 -.434699105277777D+03 -.117814013914258D+03 -.191887474571305D+03
 0.000000000000000D+00 0.000000000000000D+00 0.000000000000000D+00 0.000000000000000D+00
 0.122680296609700D+04 0.000000000000000D+00 0.000000000000000D+00 0.122680296609700D+04
 0.106967308816264D+04 0.000000000000000D+00 0.000000000000000D+00 -.106967308816264D+04
 0.461065843920645D+03 -.322923487174864D+03 -.767938232565104D+02 -.306740266718816D+03
 0.563599688625668D+03 0.386697103355353D+03 0.307467661558859D+02 0.408857671624839D+03
 0.121038408370448D+03 0.669127811667473D+02 0.459816333950092D+02 0.897700696652809D+02
 0.642825435883979D+03 -.581048375135140D+03 -.174560226085120D+03 -.191887474571305D+03
 0.507946677458902D+03 0.450361977787904D+03 0.174625649790735D+03 0.157129877934365D+03
0.112414503089D-03 0.000000000000D+00 0.000000000000D+00 0.163386399833D-05 0.000000000000D+00  7 -2 2 23 -11 11 23 21 0 0.40833050D-01 0.42973620D+00 0.46764398D+06 0.46764398D+06 0.46764398D+06 0.10705699D+01  1  2  2  1  7  1       -2 0.187029650585D-03 0.100000000000D+01
-.584215654566D-05 0.000000000000D+00 -.431701291279D-06 0.163386399833D-05 0.000000000000D+00  7 -2 2 23 -11 11 23 21 2 0.40833050D-01 0.42973620D+00 0.46764398D+06 0.46764398D+06 0.46764398D+06 0.10705699D+01  1  2  3  1  7  1       -2 -.111401583535D-04 0.100000000000D+01
0.693606657773D-05 0.000000000000D+00 0.000000000000D+00 0.163386399833D-05 0.000000000000D+00  7 -2 2 23 -11 11 23 21 2 0.40833050D-01 0.42973620D+00 0.46764398D+06 0.46764398D+06 0.46764398D+06 0.10705699D+01  1  2 15  1  7  1       -2 0.132260885895D-04 0.100000000000D+01
0.866484419754D-05 0.000000000000D+00 0.000000000000D+00 0.163386399833D-05 0.000000000000D+00  7 -2 2 23 -11 11 23 21 2 0.61421711D-01 0.42973620D+00 0.91191315D+06 0.91191315D+06 0.91191315D+06 0.10505402D+01  1  2 12  1  7  1       -2 0.671409082835D-05 0.100000000000D+01
-.421889967027D-04 0.000000000000D+00 0.000000000000D+00 0.163386399833D-05 0.000000000000D+00  7 -2 2 23 -11 11 23 21 2 0.40833050D-01 0.42973620D+00 0.46764398D+06 0.46764398D+06 0.46764398D+06 0.10705699D+01  1  2  4  1  7  1       -2 -.804483927078D-04 0.100000000000D+01
-.292933501014D-04 0.000000000000D+00 -.354834922294D-04 0.163386399833D-05 0.000000000000D+00  7 -2 2 23 -11 11 23 21 2 0.78088152D-01 0.42973620D+00 0.46764398D+06 0.46764398D+06 0.46764398D+06 0.10705699D+01  1  2  5  1  7  1       -2 -.146993792479D-04 0.100000000000D+01
0.481596940127D-04 0.000000000000D+00 0.291411311093D-04 0.163386399833D-05 0.000000000000D+00  7 -2 2 23 -11 11 23 21 2 0.40833050D-01 0.42973620D+00 0.46764398D+06 0.46764398D+06 0.46764398D+06 0.10705699D+01  1  2  6  1  7  1       -2 0.918336599450D-04 0.100000000000D+01
0.418701150504D-06 0.000000000000D+00 0.000000000000D+00 0.163386399833D-05 0.000000000000D+00  7 21 2 23 -11 11 23 2 2 0.61421711D-01 0.42973620D+00 0.91191315D+06 0.91191315D+06 0.91191315D+06 0.10505402D+01  1  2 12  3  7  1       -2 0.315989053090D-05 0.100000000000D+01
-.211812786480D-07 0.000000000000D+00 -.249782743089D-05 0.163386399833D-05 0.000000000000D+00  7 21 2 23 -11 11 23 2 2 0.78088152D-01 0.42973620D+00 0.46764398D+06 0.46764398D+06 0.46764398D+06 0.10705699D+01  1  2  5  3  7  1       -2 -.100927319336D-06 0.100000000000D+01
  </mgrwgt>
  </event>
  <event>
  8     66 0.53686478E-06 0.30730066E+03 0.75467711E-02 0.94231035E-01
       -2 -1    0    0    0  501 0.00000000E+00 0.00000000E+00 0.89906032E+02 0.89906602E+02 0.32000000E+00 0.0000E+00 0.9000E+01
        2 -1    0    0  501    0 0.00000000E+00 0.00000000E+00 -.29669239E+04 0.29669239E+04 0.32000000E+00 0.0000E+00 0.9000E+01
       25  2    1    2    0    0 0.94358079E+02 0.44537390E+03 -.12428798E+04 0.13579915E+04 0.30352792E+03 0.0000E+00 0.0000E+00
       23  2    1    2    0    0 -.94358079E+02 -.44537390E+03 -.16341380E+04 0.16988390E+04 0.91573120E+02 0.0000E+00 0.0000E+00
       23  1    3    3    0    0 0.56236505E+02 0.24654448E+02 -.33328866E+03 0.35095152E+03 0.91188000E+02 0.0000E+00 0.9000E+01
      -13  1    4    4    0    0 -.63055407E+02 -.16655996E+03 -.76858684E+03 0.78895117E+03 0.10565837E+00 0.0000E+00 0.9000E+01
       13  1    4    4    0    0 -.31302671E+02 -.27881394E+03 -.86555116E+03 0.90988785E+03 0.10565837E+00 0.0000E+00 0.9000E+01
       23  1    3    3    0    0 0.38121573E+02 0.42071945E+03 -.90959118E+03 0.10070400E+04 0.91188000E+02 0.0000E+00 0.9000E+01
#aMCatNLO 1  0  0  2  1 0.34305260D+02 0.00000000D+00  -5  7  0 0.00000000D+00 0.00000000D+00 0.00000000D+00 0.00000000D+00 0.00000000D+00
  <mgrwgt>
 0.3031081795D-03    9    2    0
 0.516473862183444D+03 0.000000000000000D+00 0.000000000000000D+00 0.516473862183444D+03
 0.516473862183444D+03 0.000000000000000D+00 0.000000000000000D+00 -.516473862183444D+03
 0.110288140067273D+03 0.562365045323380D+02 0.246544512781988D+02 -.882247616340021D+01
 0.194058046388661D+03 -.630554496670595D+02 -.166559810562036D+03 -.770737642846603D+02
 0.281879612448845D+03 -.313026291561705D+02 -.278814090509055D+03 -.271838969949204D+02
 0.446721925462109D+03 0.381215742908920D+02 0.420719449792893D+03 0.113080137442981D+03
 0.000000000000000D+00 -.000000000000000D+00 -.000000000000000D+00 -.000000000000000D+00
 0.527109331899746D+03 0.000000000000000D+00 0.000000000000000D+00 0.527109331899746D+03
 0.545182984132740D+03 0.000000000000000D+00 0.000000000000000D+00 -.545182984132740D+03
 0.111168395187862D+03 0.562377835393648D+02 0.283308376432880D+02 -.882247616340021D+01
 0.188632685833554D+03 -.630532394629892D+02 -.160206785177769D+03 -.770737642846603D+02
 0.272774957547413D+03 -.312994257867524D+02 -.269606303996368D+03 -.271838969949204D+02
 0.460941185350575D+03 0.381268164369202D+02 0.435787509450024D+03 0.113080137442981D+03
 0.387750921130820D+02 -.119347265433745D-01 -.343052579191750D+02 -.180736522329931D+02
0.118573371509D-04 0.000000000000D+00 0.000000000000D+00 0.291765771210D-07 0.000000000000D+00  7 -2 2 23 -13 13 23 21 0 0.13831742D-01 0.45644987D+00 0.25038477D+06 0.25038477D+06 0.25038477D+06 0.10904089D+01  1  2  2  2  7  2        2 0.103610050810D-03 0.100000000000D+01
-.657938759728D-06 0.000000000000D+00 -.455352967679D-07 0.291765771210D-07 0.000000000000D+00  7 -2 2 23 -13 13 23 21 2 0.13831742D-01 0.45644987D+00 0.25038477D+06 0.25038477D+06 0.25038477D+06 0.10904089D+01  1  2  3  2  7  2        2 -.683563614637D-05 0.100000000000D+01
0.733424196526D-06 0.000000000000D+00 0.000000000000D+00 0.291765771210D-07 0.000000000000D+00  7 -2 2 23 -13 13 23 21 2 0.13831742D-01 0.45644987D+00 0.25038477D+06 0.25038477D+06 0.25038477D+06 0.10904089D+01  1  2 15  2  7  2        2 0.761988995826D-05 0.100000000000D+01
0.284723448987D-04 0.000000000000D+00 0.000000000000D+00 0.291765771210D-07 0.000000000000D+00  7 -2 2 23 -13 13 23 21 2 0.13831742D-01 0.48633763D+00 0.26809803D+06 0.26809803D+06 0.26809803D+06 0.10881829D+01  1  2 12  2  7  2        2 0.220481550330D-03 0.100000000000D+01
-.277451386491D-04 0.000000000000D+00 0.000000000000D+00 0.291765771210D-07 0.000000000000D+00  7 -2 2 23 -13 13 23 21 2 0.13831742D-01 0.45644987D+00 0.25038477D+06 0.25038477D+06 0.25038477D+06 0.10904089D+01  1  2  4  2  7  2        2 -.288257333728D-03 0.100000000000D+01
-.105110508326D-03 0.000000000000D+00 -.157052388947D-04 0.291765771210D-07 0.000000000000D+00  7 -2 2 23 -13 13 23 21 2 0.13831742D-01 0.48472049D+00 0.25038477D+06 0.25038477D+06 0.25038477D+06 0.10904089D+01  1  2  5  2  7  2        2 -.833343727472D-03 0.100000000000D+01
0.105891349846D-03 0.000000000000D+00 0.156769238745D-04 0.291765771210D-07 0.000000000000D+00  7 -2 2 23 -13 13 23 21 2 0.13831742D-01 0.45644987D+00 0.25038477D+06 0.25038477D+06 0.25038477D+06 0.10904089D+01  1  2  6  2  7  2        2 0.110015518602D-02 0.100000000000D+01
0.356346245126D-06 0.000000000000D+00 0.000000000000D+00 0.291765771210D-07 0.000000000000D+00  7 -2 21 23 -13 13 23 -2 2 0.13831742D-01 0.48633763D+00 0.26809803D+06 0.26809803D+06 0.26809803D+06 0.10881829D+01  1  2 12  4  7  2        2 0.152393264992D-06 0.100000000000D+01
-.106490068301D-05 0.000000000000D+00 -.162058006724D-06 0.291765771210D-07 0.000000000000D+00  7 -2 21 23 -13 13 23 -2 2 0.13831742D-01 0.48472049D+00 0.25038477D+06 0.25038477D+06 0.25038477D+06 0.10904089D+01  1  2  5  4  7  2        2 -.474193501718D-06 0.100000000000D+01
  </mgrwgt>
  </event>
  <event>
  7     66 0.53686478E-06 0.13001941E+03 0.75467711E-02 0.10117788E+00
       -2 -1    0    0    0  501 0.00000000E+00 0.00000000E+00 0.32604613E+03 0.32604629E+03 0.32000000E+00 0.0000E+00 0.9000E+01
        2 -1    0    0  501    0 0.00000000E+00 0.00000000E+00 -.57875899E+03 0.57875908E+03 0.32000000E+00 0.0000E+00 0.9000E+01
       25  2    1    2    0    0 -.12156812E+03 -.12777449E+03 -.46700649E+03 0.58217499E+03 0.29954555E+03 0.0000E+00 0.0000E+00
       23  1    3    3    0    0 -.74511885E+02 0.44386536E+02 -.88399588E+02 0.15379182E+03 0.91188000E+02 0.0000E+00 0.9000E+01
      -11  1    1    2    0    0 0.10483920E+03 0.13604229E+03 0.84337830E+02 0.19134166E+03 0.51099893E-03 0.0000E+00 0.9000E+01
       11  1    1    2    0    0 0.16728925E+02 -.82678031E+01 0.12995581E+03 0.13128871E+03 0.51099893E-03 0.0000E+00 0.9000E+01
       23  1    3    3    0    0 -.47056240E+02 -.17216102E+03 -.37860690E+03 0.42838317E+03 0.91188000E+02 0.0000E+00 0.9000E+01
#aMCatNLO 1  0  0  2  1 0.58522041D+02 0.00000000D+00  -5  7  0 0.00000000D+00 0.00000000D+00 0.00000000D+00 0.00000000D+00 0.00000000D+00
  <mgrwgt>
 0.6113332421D-03    9    2    0
 0.434398712027741D+03 0.000000000000000D+00 0.000000000000000D+00 0.434398712027741D+03
 0.434398712027741D+03 0.000000000000000D+00 0.000000000000000D+00 -.434398712027741D+03
 0.134452462014728D+03 -.745118848006330D+02 0.443865361687673D+02 -.473289301402205D+02
 0.223803858811646D+03 0.104839196967724D+03 0.136042286264445D+03 0.143490091456131D+03
 0.174531167611955D+03 0.167289283121108D+02 -.826779779024842D+01 0.173530731990677D+03
 0.336009935617153D+03 -.470562404792023D+02 -.172161024642964D+03 -.269691893306587D+03
 0.000000000000000D+00 -.000000000000000D+00 -.000000000000000D+00 -.000000000000000D+00
 0.458103994721032D+03 0.000000000000000D+00 0.000000000000000D+00 0.458103994721032D+03
 0.473066811290967D+03 0.000000000000000D+00 0.000000000000000D+00 -.473066811290967D+03
 0.131408400023450D+03 -.663566611112143D+02 0.480591526212933D+02 -.473289301402205D+02
 0.234512998131256D+03 0.118897966131212D+03 0.142373500330233D+03 0.143490091456131D+03
 0.175725466464210D+03 0.274729738165740D+02 -.342933353848583D+01 0.173530731990677D+03
 0.329119345868289D+03 -.266535455081872D+02 -.162972892461668D+03 -.269691893306587D+03
 0.604045955247926D+02 -.533607333283849D+02 -.240304269513728D+02 -.149628165699352D+02
0.147500311714D-04 0.000000000000D+00 0.000000000000D+00 0.367970238148D-09 0.000000000000D+00  7 -2 2 23 -11 11 23 21 0 0.50160963D-01 0.89039863D-01 0.66739903D+05 0.66739903D+05 0.66739903D+05 0.11364246D+01  1  2  2  2  7  2        2 0.363132239023D-03 0.100000000000D+01
-.550367028052D-06 0.000000000000D+00 -.566440034706D-07 0.367970238148D-09 0.000000000000D+00  7 -2 2 23 -11 11 23 21 2 0.50160963D-01 0.89039863D-01 0.66739903D+05 0.66739903D+05 0.66739903D+05 0.11364246D+01  1  2  3  2  7  2        2 -.174986898029D-04 0.100000000000D+01
0.887362769963D-06 0.000000000000D+00 0.000000000000D+00 0.367970238148D-09 0.000000000000D+00  7 -2 2 23 -11 11 23 21 2 0.50160963D-01 0.89039863D-01 0.66739903D+05 0.66739903D+05 0.66739903D+05 0.11364246D+01  1  2 15  2  7  2        2 0.282133286749D-04 0.100000000000D+01
0.244584286005D-04 0.000000000000D+00 0.000000000000D+00 0.367970238148D-09 0.000000000000D+00  7 -2 2 23 -11 11 23 21 2 0.50160963D-01 0.99219192D-01 0.84952042D+05 0.84952042D+05 0.84952042D+05 0.11275809D+01  1  2 12  2  7  2        2 0.672805731649D-03 0.100000000000D+01
-.226640283123D-04 0.000000000000D+00 0.000000000000D+00 0.367970238148D-09 0.000000000000D+00  7 -2 2 23 -11 11 23 21 2 0.50160963D-01 0.89039863D-01 0.66739903D+05 0.66739903D+05 0.66739903D+05 0.11364246D+01  1  2  4  2  7  2        2 -.720593314838D-03 0.100000000000D+01
-.594405925440D-04 0.000000000000D+00 -.161144114375D-04 0.367970238148D-09 0.000000000000D+00  7 -2 2 23 -11 11 23 21 2 0.50160963D-01 0.10109516D+00 0.66739903D+05 0.66739903D+05 0.66739903D+05 0.11364246D+01  1  2  5  2  7  2        2 -.163261848821D-02 0.100000000000D+01
0.611223986482D-04 0.000000000000D+00 0.159853686458D-04 0.367970238148D-09 0.000000000000D+00  7 -2 2 23 -11 11 23 21 2 0.50160963D-01 0.89039863D-01 0.66739903D+05 0.66739903D+05 0.66739903D+05 0.11364246D+01  1  2  6  2  7  2        2 0.194336113801D-02 0.100000000000D+01
0.425247712846D-06 0.000000000000D+00 0.000000000000D+00 0.367970238148D-09 0.000000000000D+00  7 -2 21 23 -11 11 23 -2 2 0.50160963D-01 0.99219192D-01 0.84952042D+05 0.84952042D+05 0.84952042D+05 0.11275809D+01  1  2 12  4  7  2        2 0.165068634673D-04 0.100000000000D+01
-.109977734100D-05 0.000000000000D+00 -.320563905855D-06 0.367970238148D-09 0.000000000000D+00  7 -2 21 23 -11 11 23 -2 2 0.50160963D-01 0.10109516D+00 0.66739903D+05 0.66739903D+05 0.66739903D+05 0.11364246D+01  1  2  5  4  7  2        2 -.419755658298D-04 0.100000000000D+01
  </mgrwgt>
  </event>
  <event>
  8     66 0.53686478E-06 0.15047319E+03 0.75467711E-02 0.99297768E-01
       -2 -1    0    0    0  501 0.00000000E+00 0.00000000E+00 0.45529439E+03 0.45529450E+03 0.32000000E+00 0.0000E+00 0.9000E+01
        2 -1    0    0  501    0 0.00000000E+00 0.00000000E+00 -.36324159E+03 0.36324173E+03 0.32000000E+00 0.0000E+00 0.9000E+01
       25  2    1    2    0    0 0.12065567E+03 -.11123947E+02 0.37635030E+03 0.49621270E+03 0.29984323E+03 0.0000E+00 0.0000E+00
       23  2    1    2    0    0 -.12065567E+03 0.11123947E+02 -.28429751E+03 0.32232353E+03 0.91574303E+02 0.0000E+00 0.0000E+00
       23  1    3    3    0    0 0.17735327E+03 -.37616279E+02 0.29854341E+03 0.36098835E+03 0.91188000E+02 0.0000E+00 0.9000E+01
      -13  1    4    4    0    0 -.98004095E+02 0.45987276E+02 -.18002815E+03 0.21007089E+03 0.10565837E+00 0.0000E+00 0.9000E+01
       13  1    4    4    0    0 -.22651573E+02 -.34863330E+02 -.10426936E+03 0.11225264E+03 0.10565837E+00 0.0000E+00 0.9000E+01
       23  1    3    3    0    0 -.56697607E+02 0.26492332E+02 0.77806894E+02 0.13522436E+03 0.91188000E+02 0.0000E+00 0.9000E+01
#aMCatNLO 1  0  0  2  1 0.18065846D+03 0.00000000D+00  -5  7  0 0.00000000D+00 0.00000000D+00 0.00000000D+00 0.00000000D+00 0.00000000D+00
  <mgrwgt>
 0.1200018784D-03    9    2    0
 0.406671811104237D+03 0.000000000000000D+00 0.000000000000000D+00 0.406671811104237D+03
 0.406671811104237D+03 0.000000000000000D+00 0.000000000000000D+00 -.406671811104237D+03
 0.329504381002363D+03 0.177353274815110D+03 -.376162789968413D+02 0.259593368987998D+03
 0.231787448630169D+03 -.980041955140606D+02 0.459873836695482D+02 -.204953066694194D+03
 0.124770174283720D+03 -.226514727934875D+02 -.348634370688663D+02 -.117639482856824D+03
 0.127281618292222D+03 -.566976065075614D+02 0.264923323961595D+02 0.629991805630197D+02
 0.000000000000000D+00 -.000000000000000D+00 0.000000000000000D+00 -.000000000000000D+00
 0.480732601660609D+03 0.000000000000000D+00 0.000000000000000D+00 0.480732601660609D+03
 0.543775609464383D+03 0.000000000000000D+00 0.000000000000000D+00 -.543775609464383D+03
 0.358192070692357D+03 0.201778611259116D+03 -.109009095852972D+03 0.259593368987998D+03
 0.220725161077935D+03 -.819320277574322D+02 -.989956100588564D+00 -.204953066694194D+03
 0.133509186675192D+03 -.134780064008403D+02 -.616765623499656D+02 -.117639482856824D+03
 0.120739427898576D+03 -.478884909690478D+02 0.744168240986667D+00 0.629991805630197D+02
 0.191342364780933D+03 -.584800861317953D+02 0.170931446062539D+03 -.630430078037741D+02
0.755143161885D-05 0.000000000000D+00 0.000000000000D+00 0.878670230902D-06 0.000000000000D+00  7 -2 2 23 -13 13 23 21 0 0.70045310D-01 0.55883341D-01 0.53677876D+05 0.53677876D+05 0.53677876D+05 0.11445938D+01  1  2  2  2  7  2        2 0.157703172362D-03 0.100000000000D+01
-.258057795387D-06 0.000000000000D+00 -.289994857540D-07 0.878670230902D-06 0.000000000000D+00  7 -2 2 23 -13 13 23 21 2 0.70045310D-01 0.55883341D-01 0.53677876D+05 0.53677876D+05 0.53677876D+05 0.11445938D+01  1  2  3  2  7  2        2 -.706042633322D-05 0.100000000000D+01
0.473777217403D-06 0.000000000000D+00 0.000000000000D+00 0.878670230902D-06 0.000000000000D+00  7 -2 2 23 -13 13 23 21 2 0.70045310D-01 0.55883341D-01 0.53677876D+05 0.53677876D+05 0.53677876D+05 0.11445938D+01  1  2 15  2  7  2        2 0.129624805049D-04 0.100000000000D+01
0.445790557777D-06 0.000000000000D+00 0.000000000000D+00 0.878670230902D-06 0.000000000000D+00  7 -2 2 23 -13 13 23 21 2 0.70045310D-01 0.78427499D-01 0.11408666D+06 0.11408666D+06 0.11408666D+06 0.11170553D+01  1  2 12  2  7  2        2 0.789812808491D-05 0.100000000000D+01
-.438172211097D-05 0.000000000000D+00 0.000000000000D+00 0.878670230902D-06 0.000000000000D+00  7 -2 2 23 -13 13 23 21 2 0.70045310D-01 0.55883341D-01 0.53677876D+05 0.53677876D+05 0.53677876D+05 0.11445938D+01  1  2  4  2  7  2        2 -.119883323543D-03 0.100000000000D+01
-.364951411603D-05 0.000000000000D+00 -.317119193539D-05 0.878670230902D-06 0.000000000000D+00  7 -2 2 23 -13 13 23 21 2 0.70045310D-01 0.85804899D-01 0.53677876D+05 0.53677876D+05 0.53677876D+05 0.11445938D+01  1  2  5  2  7  2        2 -.624587510113D-04 0.100000000000D+01
0.482928071324D-05 0.000000000000D+00 0.290041932385D-05 0.878670230902D-06 0.000000000000D+00  7 -2 2 23 -13 13 23 21 2 0.70045310D-01 0.55883341D-01 0.53677876D+05 0.53677876D+05 0.53677876D+05 0.11445938D+01  1  2  6  2  7  2        2 0.132128466289D-03 0.100000000000D+01
0.188155836086D-07 0.000000000000D+00 0.000000000000D+00 0.878670230902D-06 0.000000000000D+00  7 -2 21 23 -13 13 23 -2 2 0.70045310D-01 0.78427499D-01 0.11408666D+06 0.11408666D+06 0.11408666D+06 0.11170553D+01  1  2 12  4  7  2        2 0.634096431658D-06 0.100000000000D+01
-.641965348648D-07 0.000000000000D+00 -.158919211195D-06 0.878670230902D-06 0.000000000000D+00  7 -2 21 23 -13 13 23 -2 2 0.70045310D-01 0.85804899D-01 0.53677876D+05 0.53677876D+05 0.53677876D+05 0.11445938D+01  1  2  5  4  7  2        2 -.192196440587D-05 0.100000000000D+01
  </mgrwgt>
  </event>
  <event>
  8     66 0.53686478E-06 0.17067879E+03 0.75467711E-02 0.99846194E-01
       -2 -1    0    0    0  501 0.00000000E+00 0.00000000E+00 0.67634800E+02 0.67635557E+02 0.32000000E+00 0.0000E+00 0.9000E+01
        2 -1    0    0  501    0 0.00000000E+00 0.00000000E+00 -.92826239E+03 0.92826245E+03 0.32000000E+00 0.0000E+00 0.9000E+01
       25  2    1    2    0    0 -.45163159E+02 -.28704161E+02 -.30875985E+03 0.43381952E+03 0.30000516E+03 0.0000E+00 0.0000E+00
       23  2    1    2    0    0 0.45163159E+02 0.28704161E+02 -.55186775E+03 0.56207848E+03 0.92252745E+02 0.0000E+00 0.0000E+00
       23  1    3    3    0    0 0.22071708E+02 0.47017233E+02 -.27367440E+03 0.29310529E+03 0.91188000E+02 0.0000E+00 0.9000E+01
      -11  1    4    4    0    0 -.18823638E+02 -.13788557E+02 -.22963488E+03 0.23081731E+03 0.51099893E-03 0.0000E+00 0.9000E+01
       11  1    4    4    0    0 0.63986797E+02 0.42492718E+02 -.32223287E+03 0.33126117E+03 0.51099893E-03 0.0000E+00 0.9000E+01
       23  1    3    3    0    0 -.67234867E+02 -.75721393E+02 -.35085447E+02 0.14071424E+03 0.91188000E+02 0.0000E+00 0.9000E+01
#aMCatNLO 1  0  0  1  1 0.24535087D+03 0.00000000D+00  -5  7  0 0.00000000D+00 0.00000000D+00 0.00000000D+00 0.00000000D+00 0.00000000D+00
  <mgrwgt>
 0.2266220133D-03    5    2    0
 0.250565850503629D+03 0.000000000000000D+00 0.000000000000000D+00 0.250565850503629D+03
 0.250565850503629D+03 0.000000000000000D+00 0.000000000000000D+00 -.250565850503629D+03
 0.112487854446647D+03 0.220717083889845D+02 0.470172326039865D+02 -.405029083037798D+02
 0.643351565106571D+02 -.188236384097971D+02 -.137885568766454D+02 -.599546386823194D+02
 0.104922200133756D+03 0.639867972860669D+02 0.424927175200509D+02 -.714753580735407D+02
 0.219386489916197D+03 -.672348672652543D+02 -.757213932473920D+02 0.171932905059640D+03
 0.000000000000000D+00 0.000000000000000D+00 -.000000000000000D+00 0.000000000000000D+00
 0.456089033556096D+03 0.000000000000000D+00 0.000000000000000D+00 0.456089033556096D+03
 0.363958817019463D+03 0.000000000000000D+00 0.000000000000000D+00 -.363958817019463D+03
 0.148043602999619D+03 0.208586101231469D+02 0.107359628575061D+03 -.405029083037798D+02
 0.650677967444750D+02 -.194261702488570D+02 0.161828113477006D+02 -.599546386823194D+02
 0.136992664034458D+03 0.628603824374365D+02 0.985232739373607D+02 -.714753580735407D+02
 0.207865499550372D+03 -.692242571553579D+02 0.232355963635008D+02 0.171932905059640D+03
 0.262078287246635D+03 0.493143484363156D+01 -.245301310223623D+03 0.921302165366329D+02
0.955474816625D-06 0.000000000000D+00 0.000000000000D+00 0.156123814429D-06 0.000000000000D+00  7 -2 2 23 -11 11 23 21 0 0.10405416D-01 0.14280966D+00 0.29131250D+05 0.29131250D+05 0.29131250D+05 0.11685219D+01  1  2  2  1  7  1       -2 0.190207587247D-03 0.100000000000D+01
-.435681934479D-07 0.000000000000D+00 -.366927487814D-08 0.156123814429D-06 0.000000000000D+00  7 -2 2 23 -11 11 23 21 2 0.10405416D-01 0.14280966D+00 0.29131250D+05 0.29131250D+05 0.29131250D+05 0.11685219D+01  1  2  3  1  7  1       -2 -.118427300346D-04 0.100000000000D+01
0.588121057818D-07 0.000000000000D+00 0.000000000000D+00 0.156123814429D-06 0.000000000000D+00  7 -2 2 23 -11 11 23 21 2 0.10405416D-01 0.14280966D+00 0.29131250D+05 0.29131250D+05 0.29131250D+05 0.11685219D+01  1  2 15  1  7  1       -2 0.159863385746D-04 0.100000000000D+01
0.147838951544D-06 0.000000000000D+00 -.296436455650D-06 0.156123814429D-06 0.000000000000D+00  7 -2 2 23 -11 11 23 21 2 0.27604412D-01 0.14280966D+00 0.29131250D+05 0.29131250D+05 0.29131250D+05 0.11685219D+01  1  2  5  1  7  1       -2 0.842244289351D-05 0.100000000000D+01
0.335929194464D-07 0.000000000000D+00 -.321584938896D-07 0.156123814429D-06 0.000000000000D+00  7 21 2 23 -11 11 23 2 2 0.27604412D-01 0.14280966D+00 0.29131250D+05 0.29131250D+05 0.29131250D+05 0.11685219D+01  1  2  5  3  7  1       -2 0.238483746665D-04 0.100000000000D+01
  </mgrwgt>
  </event>
  <event>
  8     66 0.53686478E-06 0.32355064E+03 0.75467711E-02 0.90576699E-01
       -2 -1    0    0    0  501 0.00000000E+00 0.00000000E+00 0.49265021E+03 0.49265032E+03 0.32000000E+00 0.0000E+00 0.9000E+01
        2 -1    0    0  501    0 0.00000000E+00 0.00000000E+00 -.24682832E+03 0.24682853E+03 0.32000000E+00 0.0000E+00 0.9000E+01
       25  2    1    2    0    0 -.20012711E+03 0.14485169E+03 0.27466346E+03 0.47424967E+03 0.29738840E+03 0.0000E+00 0.0000E+00
       23  2    1    2    0    0 0.20012711E+03 -.14485169E+03 -.28841572E+02 0.26522918E+03 0.92096729E+02 0.0000E+00 0.0000E+00
       23  1    3    3    0    0 -.19464692E+03 0.18507599E+03 0.22868773E+03 0.36435405E+03 0.91188000E+02 0.0000E+00 0.9000E+01
      -11  1    4    4    0    0 0.20169285E+03 -.15437196E+03 -.28376223E+02 0.25556979E+03 0.51099893E-03 0.0000E+00 0.9000E+01
       11  1    4    4    0    0 -.15657413E+01 0.95202726E+01 -.46534933E+00 0.96593834E+01 0.51099893E-03 0.0000E+00 0.9000E+01
       23  1    3    3    0    0 -.54801893E+01 -.40224303E+02 0.45975730E+02 0.10989561E+03 0.91188000E+02 0.0000E+00 0.9000E+01
#aMCatNLO 1  0  0  2  1 0.58980018D+03 0.00000000D+00  -5  7  0 0.00000000D+00 0.00000000D+00 0.00000000D+00 0.00000000D+00 0.00000000D+00
  <mgrwgt>
 0.4238215436D-03    3    2    0
 0.348712115989941D+03 0.000000000000000D+00 0.000000000000000D+00 0.348712115989941D+03
 0.348712115989941D+03 0.000000000000000D+00 0.000000000000000D+00 -.348712115989941D+03
 0.305718749516788D+03 -.194646919400895D+03 0.185075992540043D+03 0.114053304271153D+03
 0.280982424233613D+03 0.201692850035105D+03 -.154371962622797D+03 -.120168274219531D+03
 0.104058654251119D+02 -.156574130264221D+01 0.952027263889189D+01 -.389806340378216D+01
 0.100317192804369D+03 -.548018933156830D+01 -.402243025561379D+02 0.100130333521604D+02
 0.000000000000000D+00 0.000000000000000D+00 -.000000000000000D+00 0.000000000000000D+00
 0.770604114956374D+03 0.000000000000000D+00 0.000000000000000D+00 0.770604114956374D+03
 0.733728681213584D+03 0.000000000000000D+00 0.000000000000000D+00 -.733728681213584D+03
 0.586358643629201D+03 -.259234056607198D+03 0.505263055540859D+03 0.114053304271153D+03
 0.206288977241022D+03 0.166413999673521D+03 0.205209335778831D+02 -.120168274219531D+03
 0.217820292612156D+02 -.389617136001241D+01 0.210732472383818D+02 -.389806340378216D+01
 0.989513285882000D+02 -.199073942254073D+02 0.312977459829406D+02 0.100130333521604D+02
 0.590951817450319D+03 0.116623622519097D+03 -.578154982340064D+03 0.368754337427903D+02
0.157588043280D-04 0.000000000000D+00 0.000000000000D+00 0.205793838241D-07 0.000000000000D+00  7 -2 2 23 -11 11 23 21 0 0.75792364D-01 0.37973612D-01 0.10468502D+06 0.10468502D+06 0.10468502D+06 0.11200939D+01  1  2  2  2  7  2        2 0.419050245653D-03 0.100000000000D+01
-.869518885025D-06 0.000000000000D+00 -.605179580080D-07 0.205793838241D-07 0.000000000000D+00  7 -2 2 23 -11 11 23 21 2 0.75792364D-01 0.37973612D-01 0.10468502D+06 0.10468502D+06 0.10468502D+06 0.11200939D+01  1  2  3  2  7  2        2 -.290088654999D-04 0.100000000000D+01
0.101253494653D-05 0.000000000000D+00 0.000000000000D+00 0.205793838241D-07 0.000000000000D+00  7 -2 2 23 -11 11 23 21 2 0.75792364D-01 0.37973612D-01 0.10468502D+06 0.10468502D+06 0.10468502D+06 0.11200939D+01  1  2 15  2  7  2        2 0.337801634716D-04 0.100000000000D+01
  </mgrwgt>
  </event>
  <event>
  8     66 0.53686478E-06 0.18395490E+03 0.75467711E-02 0.10289590E+00
       -2 -1    0    0    0  501 0.00000000E+00 0.00000000E+00 0.31476917E+02 0.31478543E+02 0.32000000E+00 0.0000E+00 0.9000E+01
        2 -1    0    0  501    0 0.00000000E+00 0.00000000E+00 -.11690874E+04 0.11690874E+04 0.32000000E+00 0.0000E+00 0.9000E+01
       25  2    1    2    0    0 -.21426506E+02 -.26056971E+01 -.89150178E+03 0.94061040E+03 0.29917657E+03 0.0000E+00 0.0000E+00
       23  2    1    2    0    0 0.21426506E+02 0.26056971E+01 -.24610870E+03 0.25995558E+03 0.80879711E+02 0.0000E+00 0.0000E+00
       23  1    3    3    0    0 -.10701596E+03 0.63795604E+02 -.38839513E+03 0.41795732E+03 0.91188000E+02 0.0000E+00 0.9000E+01
      -11  1    4    4    0    0 0.45450337E+02 0.10467785E+02 -.85718347E+02 0.97585566E+02 0.51099893E-03 0.0000E+00 0.9000E+01
       11  1    4    4    0    0 -.24023831E+02 -.78620875E+01 -.16039035E+03 0.16237001E+03 0.51099893E-03 0.0000E+00 0.9000E+01
       23  1    3    3    0    0 0.85589457E+02 -.66401301E+02 -.50310664E+03 0.52265307E+03 0.91188000E+02 0.0000E+00 0.9000E+01
#aMCatNLO 1  0  0  2  2 0.12498509D+03 0.00000000D+00  -5  7  0 0.00000000D+00 0.00000000D+00 0.00000000D+00 0.00000000D+00 0.00000000D+00
  <mgrwgt>
 0.2822978704D-04    3    2    0
 0.191833962220028D+03 0.000000000000000D+00 0.000000000000000D+00 0.191833962220028D+03
 0.191833962220028D+03 0.000000000000000D+00 0.000000000000000D+00 -.191833962220028D+03
 0.156237908905340D+03 -.107018031007064D+03 0.637953522648123D+02 0.239233547792261D+02
 0.512016482880353D+02 0.454522193098322D+02 0.104679300372271D+02 0.211217183950146D+02
 0.325110631479893D+02 -.240217423496994D+02 -.786174997950843D+01 -.204479340950843D+02
 0.143717304098692D+03 0.855875540469315D+02 -.664015323225310D+02 -.245971390791564D+02
 0.000000000000000D+00 -.000000000000000D+00 0.000000000000000D+00 0.000000000000000D+00
 0.391146463355186D+03 0.000000000000000D+00 0.000000000000000D+00 0.391146463355186D+03
 0.222376744228507D+03 0.000000000000000D+00 0.000000000000000D+00 -.222376744228507D+03
 0.125350783343071D+03 -.637452204081444D+02 0.525527117468348D+02 0.239233547792261D+02
 0.673233824160507D+02 0.636664137930556D+02 0.573572896072659D+01 0.211217183950146D+02
 0.272626887098691D+02 -.148360814402402D+02 -.102482620201122D+02 -.204479340950843D+02
 0.183575660032169D+03 0.135883914792482D+03 -.794689503015900D+02 -.245971390791564D+02
 0.210010693082533D+03 -.120969026737153D+03 0.314287716141408D+02 0.168769719126679D+03
0.617498776457D-07 0.000000000000D+00 0.000000000000D+00 0.307323992306D-09 0.000000000000D+00  7 -2 2 23 -11 11 23 21 0 0.48427311D-02 0.17985973D+00 0.33839403D+05 0.33839403D+05 0.33839403D+05 0.11625142D+01  1  2  2  2  7  2        2 0.278636509652D-04 0.100000000000D+01
-.342321216932D-08 0.000000000000D+00 -.237135789276D-09 0.307323992306D-09 0.000000000000D+00  7 -2 2 23 -11 11 23 21 2 0.48427311D-02 0.17985973D+00 0.33839403D+05 0.33839403D+05 0.33839403D+05 0.11625142D+01  1  2  3  2  7  2        2 -.208752776684D-05 0.100000000000D+01
0.402361686117D-08 0.000000000000D+00 0.000000000000D+00 0.307323992306D-09 0.000000000000D+00  7 -2 2 23 -11 11 23 21 2 0.48427311D-02 0.17985973D+00 0.33839403D+05 0.33839403D+05 0.33839403D+05 0.11625142D+01  1  2 15  2  7  2        2 0.245366384126D-05 0.100000000000D+01
  </mgrwgt>
  </event>
  <event>
  8     66 0.53686478E-06 0.71927342E+03 0.75467711E-02 0.79128814E-01
       -2 -1    0    0    0  501 0.00000000E+00 0.00000000E+00 0.10137283E+04 0.10137283E+04 0.32000000E+00 0.0000E+00 0.9000E+01
        2 -1    0    0  501    0 0.00000000E+00 0.00000000E+00 -.57760082E+03 0.57760091E+03 0.32000000E+00 0.0000E+00 0.9000E+01
       25  2    1    2    0    0 -.69469790E+03 -.70160409E+02 0.45729819E+03 0.88718387E+03 0.30074231E+03 0.0000E+00 0.0000E+00
       23  2    1    2    0    0 0.69469790E+03 0.70160409E+02 -.21170720E+02 0.70414538E+03 0.88571174E+02 0.0000E+00 0.0000E+00
       23  1    3    3    0    0 -.51559456E+03 -.10608638E+03 0.42016959E+03 0.67966889E+03 0.91188000E+02 0.0000E+00 0.9000E+01
      -13  1    4    4    0    0 0.26625763E+03 0.52214985E+02 -.43282361E+02 0.27475972E+03 0.10565837E+00 0.0000E+00 0.9000E+01
       13  1    4    4    0    0 0.42844027E+03 0.17945425E+02 0.22111642E+02 0.42938565E+03 0.10565837E+00 0.0000E+00 0.9000E+01
       23  1    3    3    0    0 -.17910334E+03 0.35925974E+02 0.37128601E+02 0.20751498E+03 0.91188000E+02 0.0000E+00 0.9000E+01
#aMCatNLO 1  0  0  1  2 0.23751060D+04 0.00000000D+00  -5  7  0 0.00000000D+00 0.00000000D+00 0.00000000D+00 0.00000000D+00 0.00000000D+00
  <mgrwgt>
 0.2625955033D-03    3    2    0
 0.765199583785358D+03 0.000000000000000D+00 0.000000000000000D+00 0.765199583785358D+03
 0.765199583785358D+03 0.000000000000000D+00 0.000000000000000D+00 -.765199583785358D+03
 0.586990316484177D+03 -.515594559798840D+03 -.106086383008333D+03 0.243208366525998D+03
 0.298033027775453D+03 0.266257399200369D+03 0.522150335023321D+02 -.123305609330676D+03
 0.440179779092771D+03 0.428440502639117D+03 0.179453758336065D+02 -.993727181206800D+02
 0.205196044218315D+03 -.179103342040646D+03 0.359259736723945D+02 -.205300390746423D+02
 0.000000000000000D+00 0.000000000000000D+00 0.000000000000000D+00 -.000000000000000D+00
 0.208818365679289D+04 0.000000000000000D+00 0.000000000000000D+00 0.208818365679289D+04
 0.350064305810447D+04 0.000000000000000D+00 0.000000000000000D+00 -.350064305810447D+04
 0.137391254333126D+04 -.686180452949861D+03 -.116160514023495D+04 0.243208366525998D+03
 0.404313211516384D+03 0.205157809319545D+03 -.325845320649979D+03 -.123305609330676D+03
 0.679094940895442D+03 0.331070825791117D+03 -.584540084128607D+03 -.993727181206800D+02
 0.368143906399098D+03 -.228980217412453D+03 -.272692614502350D+03 -.205300390746423D+02
 0.276336211275518D+04 0.378932035251651D+03 0.234468315951588D+04 -.141245940131158D+04
0.159374795401D-03 0.000000000000D+00 0.000000000000D+00 0.204593937728D-06 0.000000000000D+00  7 -2 2 23 -13 13 23 21 0 0.15595821D+00 0.88861675D-01 0.51735425D+06 0.51735425D+06 0.51735425D+06 0.10674647D+01  1  2  2  1  7  1       -2 0.261525048421D-03 0.100000000000D+01
-.881291312367D-05 0.000000000000D+00 -.612041178685D-06 0.204593937728D-06 0.000000000000D+00  7 -2 2 23 -13 13 23 21 2 0.15595821D+00 0.88861675D-01 0.51735425D+06 0.51735425D+06 0.51735425D+06 0.10674647D+01  1  2  3  1  7  1       -2 -.164785955296D-04 0.100000000000D+01
0.938540279291D-05 0.000000000000D+00 0.000000000000D+00 0.204593937728D-06 0.000000000000D+00  7 -2 2 23 -13 13 23 21 2 0.15595821D+00 0.88861675D-01 0.51735425D+06 0.51735425D+06 0.51735425D+06 0.10674647D+01  1  2 15  1  7  1       -2 0.175490503919D-04 0.100000000000D+01
  </mgrwgt>
  </event>
  <event>
  9     66 0.53686478E-06 0.28661838E+03 0.75467711E-02 0.95236196E-01
       -2 -1    0    0    0  502 0.00000000E+00 0.00000000E+00 0.37004851E+03 0.37004865E+03 0.32000000E+00 0.0000E+00 0.9000E+01
        2 -1    0    0  501    0 0.00000000E+00 0.00000000E+00 -.12269377E+04 0.12269378E+04 0.32000000E+00 0.0000E+00 0.9000E+01
       25  2    1    2    0    0 -.37616929E+03 0.15791712E+03 -.26263647E+03 0.57033701E+03 0.29977531E+03 0.0000E+00 0.0000E+00
       23  2    1    2    0    0 0.65515333E+02 -.10056257E+03 -.68293480E+03 0.69853284E+03 0.84516782E+02 0.0000E+00 0.0000E+00
       23  1    3    3    0    0 -.32764671E+03 0.60795360E+02 -.11133622E+03 0.36298684E+03 0.91188000E+02 0.0000E+00 0.9000E+01
      -13  1    4    4    0    0 0.14233092E+02 0.13540170E+02 -.59122254E+02 0.62300635E+02 0.10565837E+00 0.0000E+00 0.9000E+01
       13  1    4    4    0    0 0.51282241E+02 -.11410274E+03 -.62381255E+03 0.63623220E+03 0.10565837E+00 0.0000E+00 0.9000E+01
       23  1    3    3    0    0 -.48522586E+02 0.97121764E+02 -.15130025E+03 0.20735017E+03 0.91188000E+02 0.0000E+00 0.9000E+01
       21  1    1    2  501  502 0.31065396E+03 -.57354551E+02 0.88682041E+02 0.32811659E+03 0.75000000E+00 0.0000E+00 0.9000E+01
#aMCatNLO 2  0  0  1  1 0.31590414D+03 0.00000000D+00  -5  7  0 0.00000000D+00 0.00000000D+00 0.00000000D+00 0.00000000D+00 0.00000000D+00
  <mgrwgt>
 0.5710959618D-04    1    2    0
 0.392469818334386D+03 0.000000000000000D+00 0.000000000000000D+00 0.392469818334386D+03
 0.392469818334386D+03 0.000000000000000D+00 0.000000000000000D+00 -.392469818334386D+03
 0.318540526353461D+03 -.186998257174799D+03 0.348281114838829D+02 0.238686970841715D+03
 0.341322241462962D+02 0.259441915966620D+02 0.113781941946498D+02 -.190379711218799D+02
 0.305644273529880D+03 0.158440272239655D+03 -.133887005077501D+03 -.224475771399964D+03
 0.126622612639136D+03 0.261379333848194D+01 0.876806993989681D+02 0.482677168012934D+01
 0.000000000000000D+00 0.000000000000000D+00 -.000000000000000D+00 0.000000000000000D+00
 0.968475720673324D+03 0.000000000000000D+00 0.000000000000000D+00 0.968475720673324D+03
 0.468804942798993D+03 0.000000000000000D+00 0.000000000000000D+00 -.468804942798993D+03
 0.419922804667965D+03 -.327646707106791D+03 0.607953600918092D+02 0.238686970841715D+03
 0.273562642018821D+02 0.142330338295315D+02 0.135403690737386D+02 -.190379711218799D+02
 0.256980014036403D+03 0.512822988967739D+02 -.114102942505453D+03 -.224475771399964D+03
 0.141864821198731D+03 -.485225865048913D+02 0.971217639037265D+02 0.482677168012934D+01
 0.591156759367336D+03 0.310653960885377D+03 -.573545505638216D+02 0.499670777874331D+03
0.696289907141D-05 0.000000000000D+00 0.000000000000D+00 0.374293671132D-07 0.291671308638D-11  7 -2 2 23 -13 13 23 21 2 0.56930527D-01 0.18875958D+00 0.22463789D+06 0.22463789D+06 0.22463789D+06 0.10939714D+01  1  2  1  1  7  1       -2 0.571095961828D-04 0.100000000000D+01
  </mgrwgt>
  </event>
  <event>
  8     66 0.53686478E-06 0.36979920E+03 0.75467711E-02 0.90029282E-01
       -2 -1    0    0    0  501 0.00000000E+00 0.00000000E+00 0.13615688E+04 0.13615688E+04 0.32000000E+00 0.0000E+00 0.9000E+01
        2 -1    0    0  501    0 0.00000000E+00 0.00000000E+00 -.35188023E+03 0.35188037E+03 0.32000000E+00 0.0000E+00 0.9000E+01
       25  2    1    2    0    0 -.60723894E+03 -.81642136E+02 0.23543274E+03 0.72154011E+03 0.29964477E+03 0.0000E+00 0.0000E+00
       23  2    1    2    0    0 0.60723894E+03 0.81642136E+02 0.77425581E+03 0.99190908E+03 0.94905237E+02 0.0000E+00 0.0000E+00
       23  1    3    3    0    0 -.58834247E+02 0.21496291E+02 0.75496214E+02 0.13393464E+03 0.91188000E+02 0.0000E+00 0.9000E+01
      -11  1    4    4    0    0 0.57609620E+03 0.64747111E+02 0.75398379E+03 0.95108915E+03 0.51099893E-03 0.0000E+00 0.9000E+01
       11  1    4    4    0    0 0.31142733E+02 0.16895025E+02 0.20272018E+02 0.40819926E+02 0.51099893E-03 0.0000E+00 0.9000E+01
       23  1    3    3    0    0 -.54840469E+03 -.10313843E+03 0.15993653E+03 0.58760546E+03 0.91188000E+02 0.0000E+00 0.9000E+01
#aMCatNLO 1  0  0  2  1 0.22204908D+03 0.00000000D+00  -5  7  0 0.00000000D+00 0.00000000D+00 0.00000000D+00 0.00000000D+00 0.00000000D+00
  <mgrwgt>
 0.2400856372D-03    7    2    0
 0.692177208748563D+03 0.000000000000000D+00 0.000000000000000D+00 0.692177208748563D+03
 0.692177208748563D+03 0.000000000000000D+00 0.000000000000000D+00 -.692177208748563D+03
 0.110710481542230D+03 -.588342474307928D+02 0.214962907892542D+02 -.424266318113880D+01
 0.627262880324161D+03 0.576096203059191D+03 0.647471113479209D+02 0.239540596612447D+03
 0.357382795030016D+02 0.311427329080095D+02 0.168950245655029D+02 -.468112740545424D+01
 0.610642776127733D+03 -.548404688536407D+03 -.103138426702678D+03 -.230616806025854D+03
 0.000000000000000D+00 -.000000000000000D+00 0.000000000000000D+00 -.000000000000000D+00
 0.710305907560277D+03 0.000000000000000D+00 0.000000000000000D+00 0.710305907560277D+03
 0.202914393957490D+04 0.000000000000000D+00 0.000000000000000D+00 -.202914393957490D+04
 0.102436932094752D+03 -.449923872293538D+02 0.116515498333968D+02 -.424266318113880D+01
 0.704563406326685D+03 0.662585421754660D+03 0.323341729667828D+01 0.239540596612447D+03
 0.386951316287781D+02 0.359764620798636D+02 0.134571332087670D+02 -.468112740545424D+01
 0.556354082263691D+03 -.472619544847618D+03 -.157039065566304D+03 -.230616806025854D+03
 0.133740029482127D+04 -.180949951757552D+03 0.128696965227462D+03 -.131883803201462D+04
0.265359768641D-03 0.000000000000D+00 0.000000000000D+00 0.326432504780D-06 0.000000000000D+00  7 -2 2 23 -11 11 23 21 0 0.20947213D+00 0.54135434D-01 0.41680155D+06 0.41680155D+06 0.41680155D+06 0.10741418D+01  1  2  2  2  7  2        2 0.317541918476D-03 0.100000000000D+01
-.146552329016D-04 0.000000000000D+00 -.101905138241D-05 0.326432504780D-06 0.000000000000D+00  7 -2 2 23 -11 11 23 21 2 0.20947213D+00 0.54135434D-01 0.41680155D+06 0.41680155D+06 0.41680155D+06 0.10741418D+01  1  2  3  2  7  2        2 -.202340094172D-04 0.100000000000D+01
0.166451306846D-04 0.000000000000D+00 0.000000000000D+00 0.326432504780D-06 0.000000000000D+00  7 -2 2 23 -11 11 23 21 2 0.20947213D+00 0.54135434D-01 0.41680155D+06 0.41680155D+06 0.41680155D+06 0.10741418D+01  1  2 15  2  7  2        2 0.229813973810D-04 0.100000000000D+01
0.197378586320D-02 0.000000000000D+00 0.000000000000D+00 0.326432504780D-06 0.000000000000D+00  7 -2 2 23 -11 11 23 21 2 0.20947213D+00 0.15775400D+00 0.58653262D+06 0.58653262D+06 0.58653262D+06 0.10636453D+01  1  2 12  2  7  2        2 0.712700558853D-03 0.100000000000D+01
-.213232565978D-02 0.000000000000D+00 -.886034047957D-04 0.326432504780D-06 0.000000000000D+00  7 -2 2 23 -11 11 23 21 2 0.20947213D+00 0.15981635D+00 0.41680155D+06 0.41680155D+06 0.41680155D+06 0.10741418D+01  1  2  5  2  7  2        2 -.787592874016D-03 0.100000000000D+01
0.238872554407D-03 0.000000000000D+00 0.000000000000D+00 0.326432504780D-06 0.000000000000D+00  7 -2 21 23 -11 11 23 -2 2 0.20947213D+00 0.15775400D+00 0.58653262D+06 0.58653262D+06 0.58653262D+06 0.10636453D+01  1  2 12  4  7  2        2 0.560762916957D-04 0.100000000000D+01
-.257277473248D-03 0.000000000000D+00 -.108800740242D-04 0.326432504780D-06 0.000000000000D+00  7 -2 21 23 -11 11 23 -2 2 0.20947213D+00 0.15981635D+00 0.41680155D+06 0.41680155D+06 0.41680155D+06 0.10741418D+01  1  2  5  4  7  2        2 -.613876457634D-04 0.100000000000D+01
  </mgrwgt>
  </event>
  <event>
  8     66 0.53686478E-06 0.30577121E+03 0.75467711E-02 0.97968762E-01
       -2 -1    0    0    0  501 0.00000000E+00 0.00000000E+00 0.28947148E+03 0.28947166E+03 0.32000000E+00 0.0000E+00 0.9000E+01
        2 -1    0    0  501    0 0.00000000E+00 0.00000000E+00 -.40013133E+03 0.40013146E+03 0.32000000E+00 0.0000E+00 0.9000E+01
       25  2    1    2    0    0 -.13541440E+03 0.19342958E+03 -.18663006E+03 0.42542407E+03 0.30067058E+03 0.0000E+00 0.0000E+00
       23  2    1    2    0    0 0.13541440E+03 -.19342958E+03 0.75970214E+02 0.26417904E+03 0.90923196E+02 0.0000E+00 0.0000E+00
       23  1    3    3    0    0 -.14311366E+03 0.21596334E+03 -.18502139E+03 0.33116439E+03 0.91188000E+02 0.0000E+00 0.9000E+01
      -11  1    4    4    0    0 0.92657370E+02 -.83666569E+02 0.15656527E+01 0.12485165E+03 0.51099893E-03 0.0000E+00 0.9000E+01
       11  1    4    4    0    0 0.42757033E+02 -.10976301E+03 0.74404561E+02 0.13932739E+03 0.51099893E-03 0.0000E+00 0.9000E+01
       23  1    3    3    0    0 0.76992587E+01 -.22533761E+02 -.16086685E+01 0.94259684E+02 0.91188000E+02 0.0000E+00 0.9000E+01
#aMCatNLO 1  0  0  1  1 0.13104546D+03 0.00000000D+00  -5  7  0 0.00000000D+00 0.00000000D+00 0.00000000D+00 0.00000000D+00 0.00000000D+00
  <mgrwgt>
 0.1438244064D-03    4    2    0
 0.340333237979853D+03 0.000000000000000D+00 0.000000000000000D+00 0.340333237979853D+03
 0.340333237979853D+03 0.000000000000000D+00 0.000000000000000D+00 -.340333237979853D+03
 0.305432340134695D+03 -.143113661906520D+03 0.215963342518473D+03 -.133611292636929D+03
 0.126745394096994D+03 0.926573703685587D+02 -.836665687513902D+02 0.218840561723566D+02
 0.153253029217766D+03 0.427570328728278D+02 -.109763012969860D+03 0.980326888752507D+02
 0.952357125102514D+02 0.769925866513341D+01 -.225337607972222D+02 0.136945475893213D+02
 0.000000000000000D+00 0.000000000000000D+00 -.000000000000000D+00 -.000000000000000D+00
 0.388092704746656D+03 0.000000000000000D+00 0.000000000000000D+00 0.388092704746656D+03
 0.450010916619836D+03 0.000000000000000D+00 0.000000000000000D+00 -.450010916619836D+03
 0.355790214201701D+03 -.151146102982539D+03 0.278521638676016D+03 -.133611292636929D+03
 0.110824379982555D+03 0.897714052737167D+02 -.611900815422318D+02 0.218840561723566D+02
 0.134058994870631D+03 0.392668057340426D+02 -.825804092085840D+02 0.980326888752507D+02
 0.924928864622141D+02 0.541875734278629D+01 -.477274944825754D+01 0.136945475893213D+02
 0.144937145849391D+03 0.166891346319930D+02 -.129978398476942D+03 -.619182118731794D+02
0.415478792893D-05 0.000000000000D+00 0.000000000000D+00 0.186679756315D-06 0.000000000000D+00  7 -2 2 23 -11 11 23 21 0 0.44534097D-01 0.61558689D-01 0.93496036D+05 0.93496036D+05 0.93496036D+05 0.11241267D+01  1  2  2  1  7  1       -2 0.192878053713D-03 0.100000000000D+01
-.227603150130D-06 0.000000000000D+00 -.159554796279D-07 0.186679756315D-06 0.000000000000D+00  7 -2 2 23 -11 11 23 21 2 0.44534097D-01 0.61558689D-01 0.93496036D+05 0.93496036D+05 0.93496036D+05 0.11241267D+01  1  2  3  1  7  1       -2 -.133518902771D-04 0.100000000000D+01
0.268610132671D-06 0.000000000000D+00 0.000000000000D+00 0.186679756315D-06 0.000000000000D+00  7 -2 2 23 -11 11 23 21 2 0.44534097D-01 0.61558689D-01 0.93496036D+05 0.93496036D+05 0.93496036D+05 0.11241267D+01  1  2 15  1  7  1       -2 0.157574840976D-04 0.100000000000D+01
-.877200541319D-06 0.000000000000D+00 0.000000000000D+00 0.186679756315D-06 0.000000000000D+00  7 -2 2 23 -11 11 23 21 2 0.44534097D-01 0.61558689D-01 0.93496036D+05 0.93496036D+05 0.93496036D+05 0.11241267D+01  1  2  4  1  7  1       -2 -.514592411047D-04 0.100000000000D+01
  </mgrwgt>
  </event>
  <event>
  8     66 0.53686478E-06 0.22166951E+03 0.75467711E-02 0.10365219E+00
       -2 -1    0    0    0  501 0.00000000E+00 0.00000000E+00 0.24193977E+03 0.24193998E+03 0.32000000E+00 0.0000E+00 0.9000E+01
        2 -1    0    0  501    0 0.00000000E+00 0.00000000E+00 -.65107829E+03 0.65107837E+03 0.32000000E+00 0.0000E+00 0.9000E+01
       25  2    1    2    0    0 0.68420764E+02 -.16593058E+03 -.54744291E+03 0.64983350E+03 0.30062515E+03 0.0000E+00 0.0000E+00
       23  2    1    2    0    0 -.68420764E+02 0.16593058E+03 0.13830438E+03 0.24318485E+03 0.88297275E+02 0.0000E+00 0.0000E+00
       23  1    3    3    0    0 0.39739224E+02 -.11985640E+03 -.89254029E+02 0.17951684E+03 0.91188000E+02 0.0000E+00 0.9000E+01
      -11  1    4    4    0    0 -.40168542E+02 0.62896627E+02 0.85665630E+01 0.75119128E+02 0.51099893E-03 0.0000E+00 0.9000E+01
       11  1    4    4    0    0 -.28252222E+02 0.10303395E+03 0.12973782E+03 0.16806572E+03 0.51099893E-03 0.0000E+00 0.9000E+01
       23  1    3    3    0    0 0.28681540E+02 -.46074183E+02 -.45818888E+03 0.47031666E+03 0.91188000E+02 0.0000E+00 0.9000E+01
#aMCatNLO 1  0  0  1  1 0.42794989D+02 0.00000000D+00  -5  7  0 0.00000000D+00 0.00000000D+00 0.00000000D+00 0.00000000D+00 0.00000000D+00
  <mgrwgt>
 0.3266888547D-03    4    2    0
 0.396890235241500D+03 0.000000000000000D+00 0.000000000000000D+00 0.396890235241500D+03
 0.396890235241500D+03 0.000000000000000D+00 0.000000000000000D+00 -.396890235241500D+03
 0.155955674550004D+03 0.397392239225032D+02 -.119856399065654D+03 -.788408304108674D+01
 0.889259350993116D+02 -.401685415859449D+02 0.628966271242259D+02 0.483562250030053D+02
 0.255947984232091D+03 -.282522223011050D+02 0.103033954514341D+03 0.232583719947585D+03
 0.292950876601593D+03 0.286815399645467D+02 -.460741825729133D+02 -.273055861909503D+03
 0.000000000000000D+00 0.000000000000000D+00 0.000000000000000D+00 -.000000000000000D+00
 0.401883669959760D+03 0.000000000000000D+00 0.000000000000000D+00 0.401883669959760D+03
 0.501122328853299D+03 0.000000000000000D+00 0.000000000000000D+00 -.501122328853299D+03
 0.161502725405507D+03 0.367788886868916D+02 -.127878980098236D+03 -.788408304108674D+01
 0.866235083877638D+02 -.418055598636771D+02 0.584602674758525D+02 0.483562250030053D+02
 0.251635594439520D+03 -.329854961825647D+02 0.902066663050137D+02 0.232583719947585D+03
 0.295171405699582D+03 0.231972336258628D+02 -.609367871456377D+02 -.273055861909503D+03
 0.108072764880687D+03 0.148149337334874D+02 0.401488334630076D+02 -.992386588935392D+02
0.914105914587D-05 0.000000000000D+00 0.000000000000D+00 0.729413494604D-07 0.000000000000D+00  7 -2 2 23 -11 11 23 21 0 0.37221525D-01 0.10016591D+00 0.49137371D+05 0.49137371D+05 0.49137371D+05 0.11479608D+01  1  2  2  1  7  1       -2 0.346200157138D-03 0.100000000000D+01
-.298350188659D-06 0.000000000000D+00 -.351040740163D-07 0.729413494604D-07 0.000000000000D+00  7 -2 2 23 -11 11 23 21 2 0.37221525D-01 0.10016591D+00 0.49137371D+05 0.49137371D+05 0.49137371D+05 0.11479608D+01  1  2  3  1  7  1       -2 -.148905646151D-04 0.100000000000D+01
0.537903678102D-06 0.000000000000D+00 0.000000000000D+00 0.729413494604D-07 0.000000000000D+00  7 -2 2 23 -11 11 23 21 2 0.37221525D-01 0.10016591D+00 0.49137371D+05 0.49137371D+05 0.49137371D+05 0.11479608D+01  1  2 15  1  7  1       -2 0.268466043595D-04 0.100000000000D+01
-.630485660721D-06 0.000000000000D+00 0.000000000000D+00 0.729413494604D-07 0.000000000000D+00  7 -2 2 23 -11 11 23 21 2 0.37221525D-01 0.10016591D+00 0.49137371D+05 0.49137371D+05 0.49137371D+05 0.11479608D+01  1  2  4  1  7  1       -2 -.314673421596D-04 0.100000000000D+01
  </mgrwgt>
  </event>
  <event>
  8     66 0.53686478E-06 0.70851138E+02 0.75467711E-02 0.10492072E+00
       -2 -1    0    0    0  501 0.00000000E+00 0.00000000E+00 0.59924726E+02 0.59925580E+02 0.32000000E+00 0.0000E+00 0.9000E+01
        2 -1    0    0  501    0 0.00000000E+00 0.00000000E+00 -.81209454E+03 0.81209461E+03 0.32000000E+00 0.0000E+00 0.9000E+01
       25  2    1    2    0    0 -.24036058E+01 0.30321188E+02 -.36938083E+03 0.47757941E+03 0.30118888E+03 0.0000E+00 0.0000E+00
       23  2    1    2    0    0 0.24036058E+01 -.30321188E+02 -.38278899E+03 0.39444078E+03 0.90171875E+02 0.0000E+00 0.0000E+00
       23  1    3    3    0    0 0.47624795E+02 -.93768809E+02 -.19541754E+03 0.23992494E+03 0.91188000E+02 0.0000E+00 0.9000E+01
      -11  1    4    4    0    0 0.42236698E+02 0.68937809E+00 -.21945956E+03 0.22348806E+03 0.51099893E-03 0.0000E+00 0.9000E+01
       11  1    4    4    0    0 -.39833093E+02 -.31010567E+02 -.16332942E+03 0.17095272E+03 0.51099893E-03 0.0000E+00 0.9000E+01
       23  1    3    3    0    0 -.50028401E+02 0.12409000E+03 -.17396329E+03 0.23765446E+03 0.91188000E+02 0.0000E+00 0.9000E+01
#aMCatNLO 1  0  0  1  2 0.44256203D+02 0.00000000D+00  -5  7  0 0.00000000D+00 0.00000000D+00 0.00000000D+00 0.00000000D+00 0.00000000D+00
  <mgrwgt>
 0.1937960644D-03    9    2    0
 0.220601321507235D+03 0.000000000000000D+00 0.000000000000000D+00 0.220601321507235D+03
 0.220601321507235D+03 0.000000000000000D+00 0.000000000000000D+00 -.220601321507235D+03
 0.141051320848565D+03 0.476247953054220D+02 -.937688085252152D+02 0.227928319653981D+02
 0.675772064108717D+02 0.422366984940174D+02 0.689377980059303D+00 -.527471789257362D+02
 0.594347228643875D+02 -.398330926751676D+02 -.310105666668331D+02 -.313712569862917D+02
 0.173139392890646D+03 -.500284011242718D+02 0.124089997211989D+03 0.613256039466298D+02
 0.000000000000000D+00 -.000000000000000D+00 0.000000000000000D+00 0.000000000000000D+00
 0.272416448718543D+03 0.000000000000000D+00 0.000000000000000D+00 0.272416448718543D+03
 0.231364664635884D+03 0.000000000000000D+00 0.000000000000000D+00 -.231364664635884D+03
 0.149089568135524D+03 0.614991308430312D+02 -.980346454034789D+02 0.227928319653981D+02
 0.719455992994929D+02 0.489085820342943D+02 -.136197552630820D+01 -.527471789257362D+02
 0.568280042175781D+02 -.342734899190696D+02 -.327199356237228D+02 -.313712569862917D+02
 0.165553544016232D+03 -.338323404197013D+02 0.119110317078921D+03 0.613256039466298D+02
 0.603643976855998D+02 -.423018825385547D+02 0.130062394745890D+02 0.410517840826585D+02
0.580624204153D-06 0.000000000000D+00 0.000000000000D+00 0.131838960679D-07 0.000000000000D+00  7 -2 2 23 -11 11 23 21 0 0.92192592D-02 0.12493769D+00 0.38776646D+05 0.38776646D+05 0.38776646D+05 0.11571346D+01  1  2  2  1  7  1       -2 0.165286947875D-03 0.100000000000D+01
-.317510356631D-07 0.000000000000D+00 -.222974982581D-08 0.131838960679D-07 0.000000000000D+00  7 -2 2 23 -11 11 23 21 2 0.92192592D-02 0.12493769D+00 0.38776646D+05 0.38776646D+05 0.38776646D+05 0.11571346D+01  1  2  3  1  7  1       -2 -.121023321927D-04 0.100000000000D+01
0.348166731861D-07 0.000000000000D+00 0.000000000000D+00 0.131838960679D-07 0.000000000000D+00  7 -2 2 23 -11 11 23 21 2 0.92192592D-02 0.12493769D+00 0.38776646D+05 0.38776646D+05 0.38776646D+05 0.11571346D+01  1  2 15  1  7  1       -2 0.132708409645D-04 0.100000000000D+01
0.960453556369D-06 0.000000000000D+00 0.000000000000D+00 0.131838960679D-07 0.000000000000D+00  7 -2 2 23 -11 11 23 21 2 0.11571762D-01 0.12493769D+00 0.48770583D+05 0.48770583D+05 0.48770583D+05 0.11482476D+01  1  2 12  1  7  1       -2 0.255071015398D-03 0.100000000000D+01
-.989082430810D-06 0.000000000000D+00 0.000000000000D+00 0.131838960679D-07 0.000000000000D+00  7 -2 2 23 -11 11 23 21 2 0.92192592D-02 0.12493769D+00 0.38776646D+05 0.38776646D+05 0.38776646D+05 0.11571346D+01  1  2  4  1  7  1       -2 -.377002006190D-03 0.100000000000D+01
-.151864541349D-05 0.000000000000D+00 -.338234252579D-06 0.131838960679D-07 0.000000000000D+00  7 -2 2 23 -11 11 23 21 2 0.11920154D-01 0.12493769D+00 0.38776646D+05 0.38776646D+05 0.38776646D+05 0.11571346D+01  1  2  5  1  7  1       -2 -.390532186720D-03 0.100000000000D+01
0.156448986869D-05 0.000000000000D+00 0.327368876330D-06 0.131838960679D-07 0.000000000000D+00  7 -2 2 23 -11 11 23 21 2 0.92192592D-02 0.12493769D+00 0.38776646D+05 0.38776646D+05 0.38776646D+05 0.11571346D+01  1  2  6  1  7  1       -2 0.596326252281D-03 0.100000000000D+01
0.302816430615D-07 0.000000000000D+00 0.000000000000D+00 0.131838960679D-07 0.000000000000D+00  7 21 2 23 -11 11 23 2 2 0.11571762D-01 0.12493769D+00 0.48770583D+05 0.48770583D+05 0.48770583D+05 0.11482476D+01  1  2 12  3  7  1       -2 0.116015779522D-03 0.100000000000D+01
-.465144431484D-07 0.000000000000D+00 -.116799014890D-07 0.131838960679D-07 0.000000000000D+00  7 21 2 23 -11 11 23 2 2 0.11920154D-01 0.12493769D+00 0.38776646D+05 0.38776646D+05 0.38776646D+05 0.11571346D+01  1  2  5  3  7  1       -2 -.172538246496D-03 0.100000000000D+01
  </mgrwgt>
  </event>
  <event>
  8     66 0.53686478E-06 0.31607491E+03 0.75467711E-02 0.99512055E-01
       -2 -1    0    0    0  501 0.00000000E+00 0.00000000E+00 0.36406244E+03 0.36406258E+03 0.32000000E+00 0.0000E+00 0.9000E+01
        2 -1    0    0  501    0 0.00000000E+00 0.00000000E+00 -.47847791E+03 0.47847802E+03 0.32000000E+00 0.0000E+00 0.9000E+01
       25  2    1    2    0    0 0.24197413E+03 -.15585251E+02 -.32960144E+03 0.50600811E+03 0.29767889E+03 0.0000E+00 0.0000E+00
       23  2    1    2    0    0 -.24197413E+03 0.15585251E+02 0.21518596E+03 0.33653248E+03 0.90303570E+02 0.0000E+00 0.0000E+00
       23  1    3    3    0    0 0.20362092E+03 -.10716206E+03 -.23518329E+03 0.34142586E+03 0.91188000E+02 0.0000E+00 0.9000E+01
      -13  1    4    4    0    0 -.24231611E+03 0.22090726E+02 0.18503221E+03 0.30568288E+03 0.10565837E+00 0.0000E+00 0.9000E+01
       13  1    4    4    0    0 0.34197330E+00 -.65054752E+01 0.30153746E+02 0.30849599E+02 0.10565837E+00 0.0000E+00 0.9000E+01
       23  1    3    3    0    0 0.38353210E+02 0.91576809E+02 -.94418149E+02 0.16458226E+03 0.91188000E+02 0.0000E+00 0.9000E+01
#aMCatNLO 1  0  0  1  2 0.32204247D+02 0.00000000D+00  -5  7  0 0.00000000D+00 0.00000000D+00 0.00000000D+00 0.00000000D+00 0.00000000D+00
  <mgrwgt>
 0.4626189632D-03    4    2    0
 0.417367870747648D+03 0.000000000000000D+00 0.000000000000000D+00 0.417367870747648D+03
 0.417367870747648D+03 0.000000000000000D+00 0.000000000000000D+00 -.417367870747648D+03
 0.312382142711448D+03 0.203620923516938D+03 -.107162059519659D+03 -.190583746018935D+03
 0.333903434662160D+03 -.242316439081040D+03 0.220907650241382D+02 0.228661857621511D+03
 0.352707470937080D+02 0.342305396512700D+00 -.650551427395104D+01 0.346639107948778D+02
 0.153179417027979D+03 0.383532101675900D+02 0.915768087694718D+02 -.727420223974542D+02
 0.000000000000000D+00 -.000000000000000D+00 0.000000000000000D+00 -.000000000000000D+00
 0.418602929522354D+03 0.000000000000000D+00 0.000000000000000D+00 0.418602929522354D+03
 0.698111830558299D+03 0.000000000000000D+00 0.000000000000000D+00 -.698111830558299D+03
 0.321048579853002D+03 0.215665109297566D+03 -.109194027614556D+03 -.190583746018935D+03
 0.324791716738357D+03 -.229791870105055D+03 0.199777517391327D+02 0.228661857621511D+03
 0.353517618308144D+02 0.168513672357147D+01 -.673206262376151D+01 0.346639107948778D+02
 0.154164674759459D+03 0.441971157569494D+02 0.905908866055785D+02 -.727420223974542D+02
 0.281358026899021D+03 -.317554916730318D+02 0.535745189360654D+01 -.279508901035945D+03
0.189505241958D-04 0.000000000000D+00 0.000000000000D+00 0.550858538415D-07 0.000000000000D+00  7 -2 2 23 -13 13 23 21 0 0.56009625D-01 0.73612006D-01 0.99903348D+05 0.99903348D+05 0.99903348D+05 0.11217565D+01  1  2  2  1  7  1       -2 0.460872667226D-03 0.100000000000D+01
-.953886752147D-06 0.000000000000D+00 -.727750026997D-07 0.550858538415D-07 0.000000000000D+00  7 -2 2 23 -13 13 23 21 2 0.56009625D-01 0.73612006D-01 0.99903348D+05 0.99903348D+05 0.99903348D+05 0.11217565D+01  1  2  3  1  7  1       -2 -.291913202702D-04 0.100000000000D+01
0.122154410302D-05 0.000000000000D+00 0.000000000000D+00 0.550858538415D-07 0.000000000000D+00  7 -2 2 23 -13 13 23 21 2 0.56009625D-01 0.73612006D-01 0.99903348D+05 0.99903348D+05 0.99903348D+05 0.11217565D+01  1  2 15  1  7  1       -2 0.373823046133D-04 0.100000000000D+01
-.210593518756D-06 0.000000000000D+00 0.000000000000D+00 0.550858538415D-07 0.000000000000D+00  7 -2 2 23 -13 13 23 21 2 0.56009625D-01 0.73612006D-01 0.99903348D+05 0.99903348D+05 0.99903348D+05 0.11217565D+01  1  2  4  1  7  1       -2 -.644468836472D-05 0.100000000000D+01
  </mgrwgt>
  </event>
  <event>
  8     66 0.53686478E-06 0.19859426E+03 0.75467711E-02 0.10245554E+00
       -2 -1    0    0    0  501 0.00000000E+00 0.00000000E+00 0.10781691E+03 0.10781738E+03 0.32000000E+00 0.0000E+00 0.9000E+01
        2 -1    0    0  501    0 0.00000000E+00 0.00000000E+00 -.41558685E+03 0.41558697E+03 0.32000000E+00 0.0000E+00 0.9000E+01
       25  2    1    2    0    0 0.26519916E+02 0.64651210E+02 -.24864902E+03 0.39660590E+03 0.30097644E+03 0.0000E+00 0.0000E+00
       23  2    1    2    0    0 -.26519916E+02 -.64651210E+02 -.59120924E+02 0.12679846E+03 0.87746681E+02 0.0000E+00 0.0000E+00
       23  1    3    3    0    0 0.29820319E+02 0.14176310E+03 -.21024751E+03 0.27111859E+03 0.91188000E+02 0.0000E+00 0.9000E+01
      -13  1    4    4    0    0 -.18087775E+01 -.78296081E+02 -.24357101E+02 0.82017240E+02 0.10565837E+00 0.0000E+00 0.9000E+01
       13  1    4    4    0    0 -.24711138E+02 0.13644871E+02 -.34763823E+02 0.44781217E+02 0.10565837E+00 0.0000E+00 0.9000E+01
       23  1    3    3    0    0 -.33004032E+01 -.77111886E+02 -.38401511E+02 0.12548730E+03 0.91188000E+02 0.0000E+00 0.9000E+01
#aMCatNLO 1  0  0  1  2 0.11609313D+03 0.00000000D+00  -5  7  0 0.00000000D+00 0.00000000D+00 0.00000000D+00 0.00000000D+00 0.00000000D+00
  <mgrwgt>
 0.7434574794D-03    3    2    0
 0.211677691574887D+03 0.000000000000000D+00 0.000000000000000D+00 0.211677691574887D+03
 0.211677691574887D+03 0.000000000000000D+00 0.000000000000000D+00 -.211677691574887D+03
 0.182345131387735D+03 0.298203484593162D+02 0.141763106647757D+03 -.628368045666882D+02
 0.836930104941242D+02 -.180880040162966D+01 -.782963432426714D+02 0.295115381080421D+02
 0.300914688121737D+02 -.247111887271203D+02 0.136449536744927D+02 -.104244369722118D+02
 0.127225772455740D+03 -.330035933056624D+01 -.771117170795780D+02 0.437497034308579D+02
 0.000000000000000D+00 0.000000000000000D+00 -.000000000000000D+00 -.000000000000000D+00
 0.237592721522561D+03 0.000000000000000D+00 0.000000000000000D+00 0.237592721522561D+03
 0.405642345555316D+03 0.000000000000000D+00 0.000000000000000D+00 -.405642345555316D+03
 0.217657144179153D+03 0.119487139520055D+01 0.187375263421886D+03 -.628368045666882D+02
 0.688605682702259D+02 -.127260357193008D+02 -.609006978274231D+02 0.295115381080421D+02
 0.379737780497909D+02 -.295821614238362D+02 0.214064162970187D+02 -.104244369722118D+02
 0.114493015109764D+03 -.205985499461472D+02 -.495485857997246D+02 0.437497034308579D+02
 0.204250561468944D+03 0.617118756940836D+02 -.983323960917570D+02 -.168049624032756D+03
0.301446153299D-05 0.000000000000D+00 0.000000000000D+00 0.290163441158D-08 0.000000000000D+00  7 -2 2 23 -13 13 23 21 0 0.16587262D-01 0.63936484D-01 0.39439682D+05 0.39439682D+05 0.39439682D+05 0.11564702D+01  1  2  2  1  7  1       -2 0.738093900736D-03 0.100000000000D+01
-.166641241445D-06 0.000000000000D+00 -.115763260126D-07 0.290163441158D-08 0.000000000000D+00  7 -2 2 23 -13 13 23 21 2 0.16587262D-01 0.63936484D-01 0.39439682D+05 0.39439682D+05 0.39439682D+05 0.11564702D+01  1  2  3  1  7  1       -2 -.545699166734D-04 0.100000000000D+01
0.183020108382D-06 0.000000000000D+00 0.000000000000D+00 0.290163441158D-08 0.000000000000D+00  7 -2 2 23 -13 13 23 21 2 0.16587262D-01 0.63936484D-01 0.39439682D+05 0.39439682D+05 0.39439682D+05 0.11564702D+01  1  2 15  1  7  1       -2 0.599334953181D-04 0.100000000000D+01
  </mgrwgt>
  </event>
  <event>
  8     66 0.53686478E-06 0.29832500E+03 0.75467711E-02 0.94153654E-01
       -4 -1    0    0    0  501 0.00000000E+00 0.00000000E+00 0.16888828E+04 0.16888835E+04 0.15500000E+01 0.0000E+00 0.9000E+01
        4 -1    0    0  501    0 0.00000000E+00 0.00000000E+00 -.15320401E+03 0.15321185E+03 0.15500000E+01 0.0000E+00 0.9000E+01
       25  2    1    2    0    0 0.18583489E+03 0.39947362E+03 0.59558762E+03 0.79979711E+03 0.30139182E+03 0.0000E+00 0.0000E+00
       23  2    1    2    0    0 -.18583489E+03 -.39947362E+03 0.94009117E+03 0.10422982E+04 0.92197791E+02 0.0000E+00 0.0000E+00
       23  1    3    3    0    0 0.15343448E+03 0.38641146E+03 0.53947927E+03 0.68717471E+03 0.91188000E+02 0.0000E+00 0.9000E+01
      -11  1    4    4    0    0 -.88275352E+02 -.17589690E+03 0.52714725E+03 0.56268684E+03 0.51099893E-03 0.0000E+00 0.9000E+01
       11  1    4    4    0    0 -.97559542E+02 -.22357672E+03 0.41294393E+03 0.47961141E+03 0.51099893E-03 0.0000E+00 0.9000E+01
       23  1    3    3    0    0 0.32400410E+02 0.13062165E+02 0.56108347E+02 0.11262240E+03 0.91188000E+02 0.0000E+00 0.9000E+01
#aMCatNLO 1  0  0  1  2 0.74633278D+02 0.00000000D+00  -5  7  0 0.00000000D+00 0.00000000D+00 0.00000000D+00 0.00000000D+00 0.00000000D+00
  <mgrwgt>
 0.3048959519D-04    9    2    0
 0.508676212887978D+03 0.000000000000000D+00 0.000000000000000D+00 0.508676212887978D+03
 0.508676212887978D+03 0.000000000000000D+00 0.000000000000000D+00 -.508676212887978D+03
 0.429914420479150D+03 0.153434484247802D+03 0.386411455890908D+03 -.604582781081544D+02
 0.223122251905492D+03 -.882753523177674D+02 -.175896899379439D+03 0.105125079106991D+03
 0.245087847071236D+03 -.975595423502365D+02 -.223576721763002D+03 0.237410607205106D+02
 0.119227906320078D+03 0.324004104202014D+02 0.130621652515339D+02 -.684078617193477D+02
 0.000000000000000D+00 0.000000000000000D+00 0.000000000000000D+00 0.000000000000000D+00
 0.586482470392739D+03 0.000000000000000D+00 0.000000000000000D+00 0.586482470392739D+03
 0.528260634123462D+03 0.000000000000000D+00 0.000000000000000D+00 -.528260634123462D+03
 0.400809395939268D+03 0.145833127334083D+03 0.356945956846914D+03 -.604582781081544D+02
 0.237834273317841D+03 -.924932343631351D+02 -.192246874888568D+03 0.105125079106991D+03
 0.263415949577389D+03 -.102212495321987D+03 -.241613183265474D+03 0.237410607205106D+02
 0.118026693368843D+03 0.302294640045412D+02 0.464682306180676D+01 -.684078617193477D+02
 0.946567923128593D+02 0.186431383464976D+02 0.722672782453211D+02 0.582218362692768D+02
0.184222753183D-03 0.000000000000D+00 0.000000000000D+00 0.166121538064D-06 0.000000000000D+00  7 -4 4 23 -11 11 23 21 0 0.25982878D+00 0.23570505D-01 0.23234000D+06 0.23234000D+06 0.23234000D+06 0.10928607D+01  1  2  2  1  7  1       -4 0.202069065691D-04 0.100000000000D+01
-.101985352419D-04 0.000000000000D+00 -.707463879188D-06 0.166121538064D-06 0.000000000000D+00  7 -4 4 23 -11 11 23 21 2 0.25982878D+00 0.23570505D-01 0.23234000D+06 0.23234000D+06 0.23234000D+06 0.10928607D+01  1  2  3  1  7  1       -4 -.133605395600D-05 0.100000000000D+01
0.108801309016D-04 0.000000000000D+00 0.000000000000D+00 0.166121538064D-06 0.000000000000D+00  7 -4 4 23 -11 11 23 21 2 0.25982878D+00 0.23570505D-01 0.23234000D+06 0.23234000D+06 0.23234000D+06 0.10928607D+01  1  2 15  1  7  1       -4 0.142534605098D-05 0.100000000000D+01
0.317685041599D-03 0.000000000000D+00 0.000000000000D+00 0.166121538064D-06 0.000000000000D+00  7 -4 4 23 -11 11 23 21 2 0.30404024D+00 0.23570505D-01 0.27181662D+06 0.27181662D+06 0.27181662D+06 0.10877360D+01  1  2 12  1  7  1       -4 0.186171675173D-04 0.100000000000D+01
-.320380743347D-03 0.000000000000D+00 0.000000000000D+00 0.166121538064D-06 0.000000000000D+00  7 -4 4 23 -11 11 23 21 2 0.25982878D+00 0.23570505D-01 0.23234000D+06 0.23234000D+06 0.23234000D+06 0.10928607D+01  1  2  4  1  7  1       -4 -.419713173922D-04 0.100000000000D+01
-.642352394193D-03 0.000000000000D+00 -.121948154877D-03 0.166121538064D-06 0.000000000000D+00  7 -4 4 23 -11 11 23 21 2 0.30423985D+00 0.23570505D-01 0.23234000D+06 0.23234000D+06 0.23234000D+06 0.10928607D+01  1  2  5  1  7  1       -4 -.379562032510D-04 0.100000000000D+01
0.654927229021D-03 0.000000000000D+00 0.120445566983D-03 0.166121538064D-06 0.000000000000D+00  7 -4 4 23 -11 11 23 21 2 0.25982878D+00 0.23570505D-01 0.23234000D+06 0.23234000D+06 0.23234000D+06 0.10928607D+01  1  2  6  1  7  1       -4 0.857984107000D-04 0.100000000000D+01
0.752339169032D-05 0.000000000000D+00 0.000000000000D+00 0.166121538064D-06 0.000000000000D+00  7 21 4 23 -11 11 23 4 2 0.30404024D+00 0.23570505D-01 0.27181662D+06 0.27181662D+06 0.27181662D+06 0.10877360D+01  1  2 12  3  7  1       -4 0.151971410180D-04 0.100000000000D+01
-.143363625668D-04 0.000000000000D+00 -.289764066536D-05 0.166121538064D-06 0.000000000000D+00  7 21 4 23 -11 11 23 4 2 0.30423985D+00 0.23570505D-01 0.23234000D+06 0.23234000D+06 0.23234000D+06 0.10928607D+01  1  2  5  3  7  1       -4 -.294918020622D-04 0.100000000000D+01
  </mgrwgt>
  </event>
  <event>
  8     66 0.53686478E-06 0.24139369E+03 0.75467711E-02 0.95908338E-01
       -2 -1    0    0    0  501 0.00000000E+00 0.00000000E+00 0.13845204E+03 0.13845241E+03 0.32000000E+00 0.0000E+00 0.9000E+01
        2 -1    0    0  501    0 0.00000000E+00 0.00000000E+00 -.22997139E+04 0.22997139E+04 0.32000000E+00 0.0000E+00 0.9000E+01
       25  2    1    2    0    0 -.26768145E+03 -.19886668E+03 -.28657020E+03 0.53188116E+03 0.29928879E+03 0.0000E+00 0.0000E+00
       23  2    1    2    0    0 0.26768145E+03 0.19886668E+03 -.18746917E+04 0.19062851E+04 0.90845795E+02 0.0000E+00 0.0000E+00
       23  1    3    3    0    0 -.14609479E+03 -.68142679E+02 -.27438546E+03 0.33104342E+03 0.91188000E+02 0.0000E+00 0.9000E+01
      -13  1    4    4    0    0 0.54191855E+02 0.83565599E+02 -.67439307E+03 0.68170814E+03 0.10565837E+00 0.0000E+00 0.9000E+01
       13  1    4    4    0    0 0.21348959E+03 0.11530108E+03 -.12002986E+04 0.12245770E+04 0.10565837E+00 0.0000E+00 0.9000E+01
       23  1    3    3    0    0 -.12158666E+03 -.13072400E+03 -.12184735E+02 0.20083775E+03 0.91188000E+02 0.0000E+00 0.9000E+01
#aMCatNLO 1  0  0  2  1 0.15512888D+03 0.00000000D+00  -5  7  0 0.00000000D+00 0.00000000D+00 0.00000000D+00 0.00000000D+00 0.00000000D+00
  <mgrwgt>
 0.2916753185D-03    9    2    0
 0.564269923460876D+03 0.000000000000000D+00 0.000000000000000D+00 0.564269923460876D+03
 0.564269923460876D+03 0.000000000000000D+00 0.000000000000000D+00 -.564269923460876D+03
 0.189731960556375D+03 -.146094786004636D+03 -.681426792900266D+02 0.411807512559220D+02
 0.181276327887356D+03 0.541916400093046D+02 0.835655558959382D+02 -.151463431471854D+03
 0.346964375043850D+03 0.213489807177396D+03 0.115301127638844D+03 -.248016188475952D+03
 0.410567183434171D+03 -.121586661182064D+03 -.130724004244756D+03 0.358298868691883D+03
 0.000000000000000D+00 0.000000000000000D+00 0.000000000000000D+00 -.000000000000000D+00
 0.620438452302227D+03 0.000000000000000D+00 0.000000000000000D+00 0.620438452302227D+03
 0.687860464143569D+03 0.000000000000000D+00 0.000000000000000D+00 -.687860464143569D+03
 0.212145706759792D+03 -.173532521655461D+03 -.698652932900613D+02 0.411807512559220D+02
 0.174826643163692D+03 0.298791191135233D+02 0.820391511880502D+02 -.151463431471854D+03
 0.319945308003843D+03 0.167957315390430D+03 0.112442476735327D+03 -.248016188475952D+03
 0.432234288051594D+03 -.179127962581528D+03 -.134336600146705D+03 0.358298868691883D+03
 0.169146970466877D+03 0.154824049733036D+03 0.972026551338862D+01 -.674220118413416D+02
0.191600254595D-04 0.000000000000D+00 0.000000000000D+00 0.701752291085D-06 0.000000000000D+00  7 -2 2 23 -13 13 23 21 0 0.21300343D-01 0.35380217D+00 0.13246385D+06 0.13246385D+06 0.13246385D+06 0.11118382D+01  1  2  2  2  7  2        2 0.210203373866D-03 0.100000000000D+01
-.815591838015D-06 0.000000000000D+00 -.735795427152D-07 0.701752291085D-06 0.000000000000D+00  7 -2 2 23 -13 13 23 21 2 0.21300343D-01 0.35380217D+00 0.13246385D+06 0.13246385D+06 0.13246385D+06 0.11118382D+01  1  2  3  2  7  2        2 -.110611330526D-04 0.100000000000D+01
0.113839560221D-05 0.000000000000D+00 0.000000000000D+00 0.701752291085D-06 0.000000000000D+00  7 -2 2 23 -13 13 23 21 2 0.21300343D-01 0.35380217D+00 0.13246385D+06 0.13246385D+06 0.13246385D+06 0.11118382D+01  1  2 15  2  7  2        2 0.154390279986D-04 0.100000000000D+01
0.116074600388D-04 0.000000000000D+00 0.000000000000D+00 0.701752291085D-06 0.000000000000D+00  7 -2 2 23 -13 13 23 21 2 0.21300343D-01 0.44590283D+00 0.20000231D+06 0.20000231D+06 0.20000231D+06 0.10978250D+01  1  2 12  2  7  2        2 0.672370864106D-04 0.100000000000D+01
-.146956003759D-04 0.000000000000D+00 0.000000000000D+00 0.701752291085D-06 0.000000000000D+00  7 -2 2 23 -13 13 23 21 2 0.21300343D-01 0.35380217D+00 0.13246385D+06 0.13246385D+06 0.13246385D+06 0.11118382D+01  1  2  4  2  7  2        2 -.199303111519D-03 0.100000000000D+01
-.252979767781D-04 0.000000000000D+00 -.876752693842D-05 0.701752291085D-06 0.000000000000D+00  7 -2 2 23 -13 13 23 21 2 0.21300343D-01 0.44541064D+00 0.13246385D+06 0.13246385D+06 0.13246385D+06 0.11118382D+01  1  2  5  2  7  2        2 -.154545388460D-03 0.100000000000D+01
0.268297801740D-04 0.000000000000D+00 0.854012996971D-05 0.701752291085D-06 0.000000000000D+00  7 -2 2 23 -13 13 23 21 2 0.21300343D-01 0.35380217D+00 0.13246385D+06 0.13246385D+06 0.13246385D+06 0.11118382D+01  1  2  6  2  7  2        2 0.363867996766D-03 0.100000000000D+01
0.370881765077D-06 0.000000000000D+00 0.000000000000D+00 0.701752291085D-06 0.000000000000D+00  7 -2 21 23 -13 13 23 -2 2 0.21300343D-01 0.44590283D+00 0.20000231D+06 0.20000231D+06 0.20000231D+06 0.10978250D+01  1  2 12  4  7  2        2 0.165653023571D-06 0.100000000000D+01
-.677205138766D-06 0.000000000000D+00 -.279140225243D-06 0.701752291085D-06 0.000000000000D+00  7 -2 21 23 -13 13 23 -2 2 0.21300343D-01 0.44541064D+00 0.13246385D+06 0.13246385D+06 0.13246385D+06 0.11118382D+01  1  2  5  4  7  2        2 -.328186546514D-06 0.100000000000D+01
  </mgrwgt>
  </event>
  <event>
  8     66 0.53686478E-06 0.15976248E+03 0.75467711E-02 0.10160096E+00
       -2 -1    0    0    0  501 0.00000000E+00 0.00000000E+00 0.42793770E+02 0.42794966E+02 0.32000000E+00 0.0000E+00 0.9000E+01
        2 -1    0    0  501    0 0.00000000E+00 0.00000000E+00 -.17984313E+04 0.17984313E+04 0.32000000E+00 0.0000E+00 0.9000E+01
       25  2    1    2    0    0 0.12676731E+02 -.74540049E+02 -.16206342E+04 0.16499363E+04 0.30019607E+03 0.0000E+00 0.0000E+00
       23  2    1    2    0    0 -.12676731E+02 0.74540049E+02 -.13500328E+03 0.19128994E+03 0.11246794E+03 0.0000E+00 0.0000E+00
       23  1    3    3    0    0 0.63651398E+02 0.68988234E+01 -.12738749E+04 0.12787383E+04 0.91188000E+02 0.0000E+00 0.9000E+01
      -11  1    4    4    0    0 -.10172018E+02 0.64453308E+02 -.10186700E+02 0.66041409E+02 0.51099893E-03 0.0000E+00 0.9000E+01
       11  1    4    4    0    0 -.25047130E+01 0.10086740E+02 -.12481658E+03 0.12524853E+03 0.51099893E-03 0.0000E+00 0.9000E+01
       23  1    3    3    0    0 -.50974667E+02 -.81438872E+02 -.34675934E+03 0.37119806E+03 0.91188000E+02 0.0000E+00 0.9000E+01
#aMCatNLO 1  0  0  1  2 0.22327403D+03 0.00000000D+00  -5  7  0 0.00000000D+00 0.00000000D+00 0.00000000D+00 0.00000000D+00 0.00000000D+00
  <mgrwgt>
 0.2127050725D-03    5    2    0
 0.277421667344805D+03 0.000000000000000D+00 0.000000000000000D+00 0.277421667344805D+03
 0.277421667344805D+03 0.000000000000000D+00 0.000000000000000D+00 -.277421667344805D+03
 0.212643763199910D+03 0.636513980117480D+02 0.689882202644566D+01 -.181116052490156D+03
 0.186923080354634D+03 -.101720185244088D+02 0.644533106913496D+02 0.175164319281434D+03
 0.206873069163742D+02 -.250471292073360D+01 0.100867402045891D+02 -.178871113565634D+02
 0.134589184218691D+03 -.509746665666056D+02 -.814388729223843D+02 0.238388445652855D+02
 0.000000000000000D+00 -.000000000000000D+00 0.000000000000000D+00 0.000000000000000D+00
 0.646033732568766D+03 0.000000000000000D+00 0.000000000000000D+00 0.646033732568766D+03
 0.334957823219748D+03 0.000000000000000D+00 0.000000000000000D+00 -.334957823219748D+03
 0.237559427176957D+03 0.100612617257344D+03 -.720646020987688D+02 -.181116052490156D+03
 0.176264123637692D+03 0.196452776673798D+02 0.752062369031187D+00 0.175164319281434D+03
 0.181959749799061D+02 0.687564561693059D+00 0.326680390607895D+01 -.178871113565634D+02
 0.166062756502638D+03 -.262914512204136D+02 -.134171743805360D+03 0.238388445652855D+02
 0.382909273491322D+03 -.946540082660030D+02 0.202217479629019D+03 0.311075909349018D+03
0.167889089694D-05 0.000000000000D+00 0.000000000000D+00 0.297176391201D-08 0.000000000000D+00  7 -2 2 23 -11 11 23 21 0 0.65837511D-02 0.27668183D+00 0.25524050D+05 0.25524050D+05 0.25524050D+05 0.11739031D+01  1  2  2  1  7  1       -2 0.222914095174D-03 0.100000000000D+01
-.587355435238D-07 0.000000000000D+00 -.644738310637D-08 0.297176391201D-08 0.000000000000D+00  7 -2 2 23 -11 11 23 21 2 0.65837511D-02 0.27668183D+00 0.25524050D+05 0.25524050D+05 0.25524050D+05 0.11739031D+01  1  2  3  1  7  1       -2 -.107468338469D-04 0.100000000000D+01
0.100695576516D-06 0.000000000000D+00 0.000000000000D+00 0.297176391201D-08 0.000000000000D+00  7 -2 2 23 -11 11 23 21 2 0.65837511D-02 0.27668183D+00 0.25524050D+05 0.25524050D+05 0.25524050D+05 0.11739031D+01  1  2 15  1  7  1       -2 0.184242549743D-04 0.100000000000D+01
-.338131975619D-06 0.000000000000D+00 -.530849698275D-06 0.297176391201D-08 0.000000000000D+00  7 -2 2 23 -11 11 23 21 2 0.18855447D-01 0.27668183D+00 0.25524050D+05 0.25524050D+05 0.25524050D+05 0.11739031D+01  1  2  5  1  7  1       -2 -.123111460474D-04 0.100000000000D+01
-.114228729356D-07 0.000000000000D+00 -.629945953908D-07 0.297176391201D-08 0.000000000000D+00  7 21 2 23 -11 11 23 2 2 0.18855447D-01 0.27668183D+00 0.25524050D+05 0.25524050D+05 0.25524050D+05 0.11739031D+01  1  2  5  3  7  1       -2 -.557529770982D-05 0.100000000000D+01
  </mgrwgt>
  </event>
  <event>
  8     66 0.53686478E-06 0.11596730E+03 0.75467711E-02 0.10502284E+00
       -2 -1    0    0    0  501 0.00000000E+00 0.00000000E+00 0.46619484E+02 0.46620582E+02 0.32000000E+00 0.0000E+00 0.9000E+01
        2 -1    0    0  501    0 0.00000000E+00 0.00000000E+00 -.21797099E+04 0.21797099E+04 0.32000000E+00 0.0000E+00 0.9000E+01
       25  2    1    2    0    0 0.10018425E+03 -.61345872E+02 -.56048472E+03 0.64671320E+03 0.30049068E+03 0.0000E+00 0.0000E+00
       23  2    1    2    0    0 -.10018425E+03 0.61345872E+02 -.15726057E+04 0.15796173E+04 0.91115008E+02 0.0000E+00 0.0000E+00
       23  1    3    3    0    0 -.19802634E+02 0.62905634E+02 -.11812287E+03 0.16314879E+03 0.91188000E+02 0.0000E+00 0.9000E+01
      -13  1    4    4    0    0 -.47413369E+02 0.26867094E+02 -.12334509E+04 0.12346542E+04 0.10565837E+00 0.0000E+00 0.9000E+01
       13  1    4    4    0    0 -.52770878E+02 0.34478777E+02 -.33915475E+03 0.34496305E+03 0.10565837E+00 0.0000E+00 0.9000E+01
       23  1    3    3    0    0 0.11998688E+03 -.12425151E+03 -.44236184E+03 0.48356441E+03 0.91188000E+02 0.0000E+00 0.9000E+01
#aMCatNLO 1  0  0  2  1 0.11637468D+02 0.00000000D+00  -5  7  0 0.00000000D+00 0.00000000D+00 0.00000000D+00 0.00000000D+00 0.00000000D+00
  <mgrwgt>
 0.4102667154D-03    9    2    0
 0.318776095075274D+03 0.000000000000000D+00 0.000000000000000D+00 0.318776095075274D+03
 0.318776095075274D+03 0.000000000000000D+00 0.000000000000000D+00 -.318776095075274D+03
 0.174505489984352D+03 -.198026334644811D+02 0.629056330956829D+02 0.133370355489447D+03
 0.184590575646373D+03 -.474133621811797D+02 0.268670844624671D+02 -.176362732675082D+03
 0.698827819167396D+02 -.527708850836173D+02 0.344787873966599D+02 -.301670369040477D+02
 0.208573342603083D+03 0.119986880729278D+03 -.124251504954810D+03 0.731594140896830D+02
 0.000000000000000D+00 -.000000000000000D+00 -.000000000000000D+00 -.000000000000000D+00
 0.322944085265581D+03 0.000000000000000D+00 0.000000000000000D+00 0.322944085265581D+03
 0.327057283667204D+03 0.000000000000000D+00 0.000000000000000D+00 -.327057283667204D+03
 0.175593677605623D+03 -.191981859087112D+02 0.660429118490445D+02 0.133370355489447D+03
 0.184939150306070D+03 -.467753676918644D+02 0.301784826755697D+02 -.176362732675082D+03
 0.703301776446065D+02 -.525288068710996D+02 0.357352517921793D+02 -.301670369040477D+02
 0.206795387179242D+03 0.120704016434537D+03 -.120529338176387D+03 0.731594140896830D+02
 0.123429761972436D+02 -.220165596286178D+01 -.114273081404064D+02 -.411319840162360D+01
0.164801199209D-05 0.000000000000D+00 0.000000000000D+00 0.367349071594D-06 0.000000000000D+00  7 -2 2 23 -13 13 23 21 0 0.71723146D-02 0.33534007D+00 0.45239369D+05 0.45239369D+05 0.45239369D+05 0.11511373D+01  1  2  2  2  7  2        2 0.120343184289D-03 0.100000000000D+01
-.733306949120D-07 0.000000000000D+00 -.632879998115D-08 0.367349071594D-06 0.000000000000D+00  7 -2 2 23 -13 13 23 21 2 0.71723146D-02 0.33534007D+00 0.45239369D+05 0.45239369D+05 0.45239369D+05 0.11511373D+01  1  2  3  2  7  2        2 -.709579654117D-05 0.100000000000D+01
0.104292614845D-06 0.000000000000D+00 0.000000000000D+00 0.367349071594D-06 0.000000000000D+00  7 -2 2 23 -13 13 23 21 2 0.71723146D-02 0.33534007D+00 0.45239369D+05 0.45239369D+05 0.45239369D+05 0.11511373D+01  1  2 15  2  7  2        2 0.100918063926D-04 0.100000000000D+01
0.243968353335D-05 0.000000000000D+00 0.000000000000D+00 0.367349071594D-06 0.000000000000D+00  7 -2 2 23 -13 13 23 21 2 0.71723146D-02 0.34620068D+00 0.48064801D+05 0.48064801D+05 0.48064801D+05 0.11488063D+01  1  2 12  2  7  2        2 0.215072355673D-03 0.100000000000D+01
-.226370846171D-05 0.000000000000D+00 0.000000000000D+00 0.367349071594D-06 0.000000000000D+00  7 -2 2 23 -13 13 23 21 2 0.71723146D-02 0.33534007D+00 0.45239369D+05 0.45239369D+05 0.45239369D+05 0.11511373D+01  1  2  4  2  7  2        2 -.219046262852D-03 0.100000000000D+01
-.350741222028D-04 0.000000000000D+00 -.506745583549D-05 0.367349071594D-06 0.000000000000D+00  7 -2 2 23 -13 13 23 21 2 0.71723146D-02 0.34595402D+00 0.45239369D+05 0.45239369D+05 0.45239369D+05 0.11511373D+01  1  2  5  2  7  2        2 -.311471899359D-02 0.100000000000D+01
0.352173877675D-04 0.000000000000D+00 0.506499660406D-05 0.367349071594D-06 0.000000000000D+00  7 -2 2 23 -13 13 23 21 2 0.71723146D-02 0.33534007D+00 0.45239369D+05 0.45239369D+05 0.45239369D+05 0.11511373D+01  1  2  6  2  7  2        2 0.340778740213D-02 0.100000000000D+01
0.512470786720D-07 0.000000000000D+00 0.000000000000D+00 0.367349071594D-06 0.000000000000D+00  7 -2 21 23 -13 13 23 -2 2 0.71723146D-02 0.34620068D+00 0.48064801D+05 0.48064801D+05 0.48064801D+05 0.11488063D+01  1  2 12  4  7  2        2 0.764870328819D-06 0.100000000000D+01
-.193902014566D-06 0.000000000000D+00 -.282709898118D-07 0.367349071594D-06 0.000000000000D+00  7 -2 21 23 -13 13 23 -2 2 0.71723146D-02 0.34595402D+00 0.45239369D+05 0.45239369D+05 0.45239369D+05 0.11511373D+01  1  2  5  4  7  2        2 -.293185047471D-05 0.100000000000D+01
  </mgrwgt>
  </event>
  <event>
  9     66 0.53686478E-06 0.21260813E+03 0.75467711E-02 0.10209573E+00
       -2 -1    0    0    0  502 0.00000000E+00 0.00000000E+00 0.40386406E+03 0.40386419E+03 0.32000000E+00 0.0000E+00 0.9000E+01
        2 -1    0    0  501    0 0.00000000E+00 0.00000000E+00 -.47003557E+03 0.47003568E+03 0.32000000E+00 0.0000E+00 0.9000E+01
       25  2    1    2    0    0 0.18475968E+03 0.90264029E+02 0.23799907E+03 0.43289925E+03 0.29744658E+03 0.0000E+00 0.0000E+00
       23  2    1    2    0    0 -.12847281E+03 0.14884728E+02 -.27610346E+03 0.31847390E+03 0.92009159E+02 0.0000E+00 0.0000E+00
       23  1    3    3    0    0 0.74016168E+02 -.79342737E+01 0.23058709E+03 0.25889574E+03 0.91188000E+02 0.0000E+00 0.9000E+01
      -13  1    4    4    0    0 -.16255851E+02 -.81064358E+01 0.14390160E+01 0.18222210E+02 0.10565837E+00 0.0000E+00 0.9000E+01
       13  1    4    4    0    0 -.11221696E+03 0.22991164E+02 -.27754248E+03 0.30025169E+03 0.10565837E+00 0.0000E+00 0.9000E+01
       23  1    3    3    0    0 0.11074351E+03 0.98198303E+02 0.74119725E+01 0.17400351E+03 0.91188000E+02 0.0000E+00 0.9000E+01
       21  1    1    2  501  502 -.56286867E+02 -.10514876E+03 -.28067112E+02 0.12252672E+03 0.75000000E+00 0.0000E+00 0.9000E+01
#aMCatNLO 2  0  0  1  1 0.11926639D+03 0.00000000D+00  -5  7  0 0.00000000D+00 0.00000000D+00 0.00000000D+00 0.00000000D+00 0.00000000D+00
  <mgrwgt>
 0.8240275180D-04    1    2    0
 0.370433931046474D+03 0.000000000000000D+00 0.000000000000000D+00 0.370433931046474D+03
 0.370433931046474D+03 0.000000000000000D+00 0.000000000000000D+00 -.370433931046474D+03
 0.269929147763637D+03 0.536015960325611D+02 -.460704679443457D+02 0.244030478331200D+03
 0.209397881308432D+02 -.177374912317716D+02 -.108745459076274D+02 0.236651285023577D+01
 0.295497479486998D+03 -.134185809378974D+03 -.180482774983656D+02 -.262654123561425D+03
 0.154501446711469D+03 0.983217045781842D+02 0.749932913503388D+02 0.162571323799895D+02
 0.000000000000000D+00 -.000000000000000D+00 -.000000000000000D+00 -.000000000000000D+00
 0.424890936969347D+03 0.000000000000000D+00 0.000000000000000D+00 0.424890936969347D+03
 0.446772447787817D+03 0.000000000000000D+00 0.000000000000000D+00 -.446772447787817D+03
 0.270938132348482D+03 0.740161682560028D+02 -.793427366733787D+01 0.244030478331200D+03
 0.183184039668807D+02 -.162557243965239D+02 -.810647674194868D+01 0.236651285023577D+01
 0.286545735753026D+03 -.112217086752198D+03 0.229912047372885D+02 -.262654123561425D+03
 0.174604058958837D+03 0.110743510003807D+03 0.981983029370518D+02 0.162571323799895D+02
 0.121257053729939D+03 -.562868671110879D+02 -.105148757265054D+03 -.218815108184700D+02
0.318330862445D-05 0.000000000000D+00 0.000000000000D+00 0.484636614567D-07 0.237256946017D-10  7 -2 2 23 -13 13 23 21 2 0.62132785D-01 0.72312989D-01 0.73858668D+05 0.73858668D+05 0.73858668D+05 0.11326839D+01  1  2  1  1  7  1       -2 0.824027518036D-04 0.100000000000D+01
  </mgrwgt>
  </event>
  <event>
  8     66 0.53686478E-06 0.97658911E+03 0.75467711E-02 0.87606602E-01
       -2 -1    0    0    0  501 0.00000000E+00 0.00000000E+00 0.30463400E+03 0.30463417E+03 0.32000000E+00 0.0000E+00 0.9000E+01
        2 -1    0    0  501    0 0.00000000E+00 0.00000000E+00 -.32139910E+04 0.32139910E+04 0.32000000E+00 0.0000E+00 0.9000E+01
       25  2    1    2    0    0 -.14781609E+02 0.96027889E+03 -.13262929E+04 0.16647327E+04 0.29988008E+03 0.0000E+00 0.0000E+00
       23  2    1    2    0    0 0.14781609E+02 -.96027889E+03 -.15830641E+04 0.18538925E+04 0.92039887E+02 0.0000E+00 0.0000E+00
       23  1    3    3    0    0 -.78438626E+02 0.65926269E+03 -.75526685E+03 0.10097144E+04 0.91188000E+02 0.0000E+00 0.9000E+01
      -11  1    4    4    0    0 0.26611635E+01 -.92144850E+03 -.15402275E+04 0.17948190E+04 0.51099893E-03 0.0000E+00 0.9000E+01
       11  1    4    4    0    0 0.12120445E+02 -.38830388E+02 -.42836616E+02 0.59073513E+02 0.51099893E-03 0.0000E+00 0.9000E+01
       23  1    3    3    0    0 0.63657017E+02 0.30101620E+03 -.57102601E+03 0.65501826E+03 0.91188000E+02 0.0000E+00 0.9000E+01
#aMCatNLO 1  0  0  2  1 0.64045486D+03 0.00000000D+00  -5  7  0 0.00000000D+00 0.00000000D+00 0.00000000D+00 0.00000000D+00 0.00000000D+00
  <mgrwgt>
 0.3678360424D-05    1    2    0
 0.989490402028616D+03 0.000000000000000D+00 0.000000000000000D+00 0.989490402028616D+03
 0.989490402028616D+03 0.000000000000000D+00 0.000000000000000D+00 -.989490402028616D+03
 0.684931171779809D+03 -.784386257077783D+02 0.659262694234791D+03 0.141546955880451D+03
 0.926852654308126D+03 0.266116353410548D+01 -.921448503736576D+03 -.999070366305085D+02
 0.420572752776750D+02 0.121204453514221D+02 -.388303879725073D+02 0.106822365715180D+02
 0.325139702691621D+03 0.636570168222508D+02 0.301016197474292D+03 -.523221558214601D+02
 0.000000000000000D+00 0.000000000000000D+00 0.000000000000000D+00 0.000000000000000D+00
 0.203174301120311D+04 0.000000000000000D+00 0.000000000000000D+00 0.203174301120311D+04
 0.194439190630421D+04 0.000000000000000D+00 0.000000000000000D+00 -.194439190630421D+04
 0.876419926206319D+03 -.599860588307332D+03 0.616383297619305D+03 0.141546955880451D+03
 0.121632379661101D+04 -.713064641300427D+03 -.980306574272065D+03 -.999070366305085D+02
 0.459795128012275D+02 -.172799341533997D+02 -.412481429269553D+02 0.106822365715180D+02
 0.340868641746925D+03 -.158760207921592D+03 0.282725605443301D+03 -.523221558214601D+02
 0.149654304014183D+04 0.148896537168275D+04 0.122445814136414D+03 0.873511048988996D+02
0.512945837840D-05 0.000000000000D+00 0.000000000000D+00 0.502418397160D-05 0.000000000000D+00  7 -2 2 23 -11 11 23 21 2 0.46866784D-01 0.49446016D+00 0.95372630D+06 0.95372630D+06 0.95372630D+06 0.10492364D+01  1  2 14  2  7  2        2 0.367836042373D-05 0.100000000000D+01
  </mgrwgt>
  </event>
  <event>
  8     66 0.53686478E-06 0.19342258E+03 0.75467711E-02 0.10239234E+00
       -2 -1    0    0    0  501 0.00000000E+00 0.00000000E+00 0.20983674E+03 0.20983699E+03 0.32000000E+00 0.0000E+00 0.9000E+01
        2 -1    0    0  501    0 0.00000000E+00 0.00000000E+00 -.20708872E+03 0.20708896E+03 0.32000000E+00 0.0000E+00 0.9000E+01
       25  2    1    2    0    0 -.38611501E+02 -.35441289E+02 -.33735263E+02 0.30580128E+03 0.29938173E+03 0.0000E+00 0.0000E+00
       23  2    1    2    0    0 0.38611501E+02 0.35441289E+02 0.36483290E+02 0.11112467E+03 0.90943551E+02 0.0000E+00 0.0000E+00
       23  1    3    3    0    0 -.13532143E+02 -.12257025E+03 -.75036223E+02 0.17074036E+03 0.91188000E+02 0.0000E+00 0.9000E+01
      -11  1    4    4    0    0 0.80539806E+01 0.63134684E+02 0.20022494E+02 0.66721475E+02 0.51099893E-03 0.0000E+00 0.9000E+01
       11  1    4    4    0    0 0.30557520E+02 -.27693395E+02 0.16460797E+02 0.44403198E+02 0.51099893E-03 0.0000E+00 0.9000E+01
       23  1    3    3    0    0 -.25079357E+02 0.87128964E+02 0.41300960E+02 0.13506092E+03 0.91188000E+02 0.0000E+00 0.9000E+01
#aMCatNLO 1  0  0  1  2 0.12697842D+03 0.00000000D+00  -5  7  0 0.00000000D+00 0.00000000D+00 0.00000000D+00 0.00000000D+00 0.00000000D+00
  <mgrwgt>
 0.6198032728D-03    3    2    0
 0.208458448217657D+03 0.000000000000000D+00 0.000000000000000D+00 0.208458448217657D+03
 0.208458448217657D+03 0.000000000000000D+00 0.000000000000000D+00 -.208458448217657D+03
 0.171238659341961D+03 -.135321435473320D+02 -.122570252374626D+03 -.761632551370226D+02
 0.665909499855259D+02 0.805398076329170D+01 0.631346843322109D+02 0.195831470430936D+02
 0.442956645368140D+02 0.305575200152565D+02 -.276933953645653D+02 0.161684792252405D+02
 0.134791622571013D+03 -.250793572312162D+02 0.871289634069799D+02 0.404116288686885D+02
 0.000000000000000D+00 0.000000000000000D+00 -.000000000000000D+00 -.000000000000000D+00
 0.223316731280307D+03 0.000000000000000D+00 0.000000000000000D+00 0.223316731280307D+03
 0.963770216126293D+03 0.000000000000000D+00 0.000000000000000D+00 -.963770216126293D+03
 0.157212848269749D+03 -.500112801948147D+02 -.899925482320385D+02 -.761632551370226D+02
 0.805894905445501D+02 -.829246696950575D+01 0.777328844806260D+02 0.195831470430936D+02
 0.337447972884248D+02 0.218900345418117D+02 -.199528948109827D+02 0.161684792252405D+02
 0.164277618889463D+03 -.582951820134640D+02 0.116792365890020D+03 0.404116288686885D+02
 0.751262192414413D+03 0.947088946359728D+02 -.845798073276244D+02 -.740453484845986D+03
0.356117744712D-05 0.000000000000D+00 0.000000000000D+00 0.370586661260D-07 0.000000000000D+00  7 -2 2 23 -11 11 23 21 0 0.32282614D-01 0.31859840D-01 0.37412293D+05 0.37412293D+05 0.37412293D+05 0.11585420D+01  1  2  2  1  7  1       -2 0.610014086081D-03 0.100000000000D+01
-.196495065721D-06 0.000000000000D+00 -.136758590765D-07 0.370586661260D-07 0.000000000000D+00  7 -2 2 23 -11 11 23 21 2 0.32282614D-01 0.31859840D-01 0.37412293D+05 0.37412293D+05 0.37412293D+05 0.11585420D+01  1  2  3  1  7  1       -2 -.451774233823D-04 0.100000000000D+01
0.239072237026D-06 0.000000000000D+00 0.000000000000D+00 0.370586661260D-07 0.000000000000D+00  7 -2 2 23 -11 11 23 21 2 0.32282614D-01 0.31859840D-01 0.37412293D+05 0.37412293D+05 0.37412293D+05 0.11585420D+01  1  2 15  1  7  1       -2 0.549666101359D-04 0.100000000000D+01
  </mgrwgt>
  </event>
  <event>
  8     66 0.53686478E-06 0.10869063E+03 0.75467711E-02 0.10643945E+00
       -2 -1    0    0    0  501 0.00000000E+00 0.00000000E+00 0.10526180E+03 0.10526228E+03 0.32000000E+00 0.0000E+00 0.9000E+01
        2 -1    0    0  501    0 0.00000000E+00 0.00000000E+00 -.10997954E+04 0.10997954E+04 0.32000000E+00 0.0000E+00 0.9000E+01
       25  2    1    2    0    0 0.17241814E+02 -.11190044E+03 -.15885572E+03 0.35677688E+03 0.29872331E+03 0.0000E+00 0.0000E+00
       23  2    1    2    0    0 -.17241814E+02 0.11190044E+03 -.83567784E+03 0.84828081E+03 0.91672689E+02 0.0000E+00 0.0000E+00
       23  1    3    3    0    0 -.73097785E+01 0.34428559E+02 0.27671029E+02 0.10158590E+03 0.91188000E+02 0.0000E+00 0.9000E+01
      -11  1    4    4    0    0 -.45524878E+01 0.27358792E+02 -.53411760E+03 0.53483721E+03 0.51099893E-03 0.0000E+00 0.9000E+01
       11  1    4    4    0    0 -.12689326E+02 0.84541651E+02 -.30156024E+03 0.31344360E+03 0.51099893E-03 0.0000E+00 0.9000E+01
       23  1    3    3    0    0 0.24551592E+02 -.14632900E+03 -.18652675E+03 0.25519098E+03 0.91188000E+02 0.0000E+00 0.9000E+01
#aMCatNLO 1  0  0  2  1 0.16568156D+02 0.00000000D+00  -5  7  0 0.00000000D+00 0.00000000D+00 0.00000000D+00 0.00000000D+00 0.00000000D+00
  <mgrwgt>
 0.2290605235D-03    9    2    0
 0.340245144933804D+03 0.000000000000000D+00 0.000000000000000D+00 0.340245144933804D+03
 0.340245144933804D+03 0.000000000000000D+00 0.000000000000000D+00 -.340245144933804D+03
 0.220336195493274D+03 -.730977847495185D+01 0.344285587269084D+02 0.197469058799310D+03
 0.166514959188838D+03 -.455248782013173D+01 0.273587917814264D+02 -.164188924719570D+03
 0.114337909853902D+03 -.126893258787445D+02 0.845416512023975D+02 -.759265951460635D+02
 0.179301225331594D+03 0.245515921738280D+02 -.146329001710732D+03 0.426464610663235D+02
 0.000000000000000D+00 -.000000000000000D+00 0.000000000000000D+00 -.000000000000000D+00
 0.344990448052145D+03 0.000000000000000D+00 0.000000000000000D+00 0.344990448052145D+03
 0.355121818218960D+03 0.000000000000000D+00 0.000000000000000D+00 -.355121818218960D+03
 0.219546386622887D+03 -.585858622801476D+01 0.292747727487347D+02 0.197469058799310D+03
 0.165893082984942D+03 -.345585887133025D+01 0.234642072344643D+02 -.164188924719570D+03
 0.112306736320093D+03 -.119416150879347D+02 0.818862198510119D+02 -.759265951460635D+02
 0.182945749665403D+03 0.257466610921360D+02 -.150573187446376D+03 0.426464610663235D+02
 0.194203106777796D+02 -.449060090485623D+01 0.159479876121647D+02 -.101313701668149D+02
0.127541892323D-05 0.000000000000D+00 0.000000000000D+00 0.887327541693D-07 0.000000000000D+00  7 -2 2 23 -11 11 23 21 0 0.16194164D-01 0.16919933D+00 0.37080113D+05 0.37080113D+05 0.37080113D+05 0.11588932D+01  1  2  2  2  7  2        2 0.100949945090D-03 0.100000000000D+01
-.429398219197D-07 0.000000000000D+00 -.489794449072D-08 0.887327541693D-07 0.000000000000D+00  7 -2 2 23 -11 11 23 21 2 0.16194164D-01 0.16919933D+00 0.37080113D+05 0.37080113D+05 0.37080113D+05 0.11588932D+01  1  2  3  2  7  2        2 -.456457484152D-05 0.100000000000D+01
0.783476569165D-07 0.000000000000D+00 0.000000000000D+00 0.887327541693D-07 0.000000000000D+00  7 -2 2 23 -11 11 23 21 2 0.16194164D-01 0.16919933D+00 0.37080113D+05 0.37080113D+05 0.37080113D+05 0.11588932D+01  1  2 15  2  7  2        2 0.832848688384D-05 0.100000000000D+01
0.422956593539D-05 0.000000000000D+00 0.000000000000D+00 0.887327541693D-07 0.000000000000D+00  7 -2 2 23 -11 11 23 21 2 0.16194164D-01 0.17774217D+00 0.39381309D+05 0.39381309D+05 0.39381309D+05 0.11565282D+01  1  2 12  2  7  2        2 0.416160134239D-03 0.100000000000D+01
-.417721929279D-05 0.000000000000D+00 0.000000000000D+00 0.887327541693D-07 0.000000000000D+00  7 -2 2 23 -11 11 23 21 2 0.16194164D-01 0.16919933D+00 0.37080113D+05 0.37080113D+05 0.37080113D+05 0.11588932D+01  1  2  4  2  7  2        2 -.444045392807D-03 0.100000000000D+01
-.188234177800D-04 0.000000000000D+00 -.304710611235D-05 0.887327541693D-07 0.000000000000D+00  7 -2 2 23 -11 11 23 21 2 0.16194164D-01 0.17799150D+00 0.37080113D+05 0.37080113D+05 0.37080113D+05 0.11588932D+01  1  2  5  2  7  2        2 -.185679251673D-02 0.100000000000D+01
0.189573547652D-04 0.000000000000D+00 0.304320044395D-05 0.887327541693D-07 0.000000000000D+00  7 -2 2 23 -11 11 23 21 2 0.16194164D-01 0.16919933D+00 0.37080113D+05 0.37080113D+05 0.37080113D+05 0.11588932D+01  1  2  6  2  7  2        2 0.201519849767D-02 0.100000000000D+01
0.605163530945D-07 0.000000000000D+00 0.000000000000D+00 0.887327541693D-07 0.000000000000D+00  7 -2 21 23 -11 11 23 -2 2 0.16194164D-01 0.17774217D+00 0.39381309D+05 0.39381309D+05 0.39381309D+05 0.11565282D+01  1  2 12  4  7  2        2 0.361912606135D-05 0.100000000000D+01
-.163212498137D-06 0.000000000000D+00 -.268657751799D-07 0.887327541693D-07 0.000000000000D+00  7 -2 21 23 -11 11 23 -2 2 0.16194164D-01 0.17799150D+00 0.37080113D+05 0.37080113D+05 0.37080113D+05 0.11588932D+01  1  2  5  4  7  2        2 -.979318202348D-05 0.100000000000D+01
  </mgrwgt>
  </event>
  <event>
  8     66 0.53686478E-06 0.33597874E+03 0.75467711E-02 0.89776454E-01
       -2 -1    0    0    0  501 0.00000000E+00 0.00000000E+00 0.50757802E+03 0.50757812E+03 0.32000000E+00 0.0000E+00 0.9000E+01
        2 -1    0    0  501    0 0.00000000E+00 0.00000000E+00 -.81193934E+03 0.81193940E+03 0.32000000E+00 0.0000E+00 0.9000E+01
       25  2    1    2    0    0 0.39238299E+03 0.44671147E+03 -.55963764E+02 0.66860399E+03 0.30063900E+03 0.0000E+00 0.0000E+00
       23  2    1    2    0    0 -.39238299E+03 -.44671147E+03 -.24839755E+03 0.65091354E+03 0.92040971E+02 0.0000E+00 0.0000E+00
       23  1    3    3    0    0 0.22488674E+03 0.17404913E+03 0.79991151E+02 0.30916174E+03 0.91188000E+02 0.0000E+00 0.9000E+01
      -13  1    4    4    0    0 -.17412313E+03 -.22487241E+03 -.72763571E+02 0.29356602E+03 0.10565837E+00 0.0000E+00 0.9000E+01
       13  1    4    4    0    0 -.21825987E+03 -.22183906E+03 -.17563398E+03 0.35734751E+03 0.10565837E+00 0.0000E+00 0.9000E+01
       23  1    3    3    0    0 0.16749626E+03 0.27266233E+03 -.13595491E+03 0.35944225E+03 0.91188000E+02 0.0000E+00 0.9000E+01
#aMCatNLO 1  0  0  2  1 0.30487701D+03 0.00000000D+00  -5  7  0 0.00000000D+00 0.00000000D+00 0.00000000D+00 0.00000000D+00 0.00000000D+00
  <mgrwgt>
 0.2337714509D-03    9    2    0
 0.641967813399727D+03 0.000000000000000D+00 0.000000000000000D+00 0.641967813399727D+03
 0.641967813399727D+03 0.000000000000000D+00 0.000000000000000D+00 -.641967813399727D+03
 0.336691758095545D+03 0.224886736490058D+03 0.174049132002446D+03 0.155495800668428D+03
 0.284452756234561D+03 -.174123068718924D+03 -.224872409070986D+03 -.518913364198110D+01
 0.325616157186287D+03 -.218259924384125D+03 -.221839056052339D+03 -.957910248322272D+02
 0.337174955283062D+03 0.167496256612992D+03 0.272662333120879D+03 -.545156421942194D+02
 0.000000000000000D+00 0.000000000000000D+00 -.000000000000000D+00 -.000000000000000D+00
 0.759670022718767D+03 0.000000000000000D+00 0.000000000000000D+00 0.759670022718767D+03
 0.892538294651451D+03 0.000000000000000D+00 0.000000000000000D+00 -.892538294651451D+03
 0.359476398989072D+03 0.188802610963359D+03 0.247149064643291D+03 0.155495800668428D+03
 0.262782391294147D+03 -.202487626268843D+03 -.167410929375371D+03 -.518913364198110D+01
 0.310375314765186D+03 -.251224942784151D+03 -.155057872100321D+03 -.957910248322272D+02
 0.387002466872069D+03 0.129960341275987D+03 0.348703330171433D+03 -.545156421942194D+02
 0.332571745449744D+03 0.134949616813648D+03 -.273383593339032D+03 -.132868271932685D+03
0.321222822758D-04 0.000000000000D+00 0.000000000000D+00 0.870609846985D-06 0.000000000000D+00  7 -2 2 23 -13 13 23 21 0 0.78088939D-01 0.12491376D+00 0.37637337D+06 0.37637337D+06 0.37637337D+06 0.10773389D+01  1  2  2  2  7  2        2 0.199117762014D-03 0.100000000000D+01
-.178010494560D-05 0.000000000000D+00 -.123358021930D-06 0.870609846985D-06 0.000000000000D+00  7 -2 2 23 -13 13 23 21 2 0.78088939D-01 0.12491376D+00 0.37637337D+06 0.37637337D+06 0.37637337D+06 0.10773389D+01  1  2  3  2  7  2        2 -.128071922473D-04 0.100000000000D+01
0.192690135880D-05 0.000000000000D+00 0.000000000000D+00 0.870609846985D-06 0.000000000000D+00  7 -2 2 23 -13 13 23 21 2 0.78088939D-01 0.12491376D+00 0.37637337D+06 0.37637337D+06 0.37637337D+06 0.10773389D+01  1  2 15  2  7  2        2 0.138633377795D-04 0.100000000000D+01
0.121469758456D-04 0.000000000000D+00 0.000000000000D+00 0.870609846985D-06 0.000000000000D+00  7 -2 2 23 -13 13 23 21 2 0.78088939D-01 0.18154228D+00 0.61628829D+06 0.61628829D+06 0.61628829D+06 0.10621507D+01  1  2 12  2  7  2        2 0.487335260341D-04 0.100000000000D+01
-.186315269680D-04 0.000000000000D+00 0.000000000000D+00 0.870609846985D-06 0.000000000000D+00  7 -2 2 23 -13 13 23 21 2 0.78088939D-01 0.12491376D+00 0.37637337D+06 0.37637337D+06 0.37637337D+06 0.10773389D+01  1  2  4  2  7  2        2 -.134046898937D-03 0.100000000000D+01
-.279717352081D-04 0.000000000000D+00 -.123661759616D-04 0.870609846985D-06 0.000000000000D+00  7 -2 2 23 -13 13 23 21 2 0.78088939D-01 0.19327081D+00 0.37637337D+06 0.37637337D+06 0.37637337D+06 0.10773389D+01  1  2  5  2  7  2        2 -.106570783812D-03 0.100000000000D+01
0.314196996500D-04 0.000000000000D+00 0.112750416092D-04 0.870609846985D-06 0.000000000000D+00  7 -2 2 23 -13 13 23 21 2 0.78088939D-01 0.12491376D+00 0.37637337D+06 0.37637337D+06 0.37637337D+06 0.10773389D+01  1  2  6  2  7  2        2 0.226053039606D-03 0.100000000000D+01
0.550380567385D-06 0.000000000000D+00 0.000000000000D+00 0.870609846985D-06 0.000000000000D+00  7 -2 21 23 -13 13 23 -2 2 0.78088939D-01 0.18154228D+00 0.61628829D+06 0.61628829D+06 0.61628829D+06 0.10621507D+01  1  2 12  4  7  2        2 0.113761965502D-05 0.100000000000D+01
-.946958006090D-06 0.000000000000D+00 -.627978922356D-06 0.870609846985D-06 0.000000000000D+00  7 -2 21 23 -13 13 23 -2 2 0.78088939D-01 0.19327081D+00 0.37637337D+06 0.37637337D+06 0.37637337D+06 0.10773389D+01  1  2  5  4  7  2        2 -.170895921976D-05 0.100000000000D+01
  </mgrwgt>
  </event>
  <event>
  8     66 0.53686478E-06 0.22919049E+03 0.75467711E-02 0.95350603E-01
       -2 -1    0    0    0  501 0.00000000E+00 0.00000000E+00 0.35594034E+03 0.35594049E+03 0.32000000E+00 0.0000E+00 0.9000E+01
        2 -1    0    0  501    0 0.00000000E+00 0.00000000E+00 -.89706759E+03 0.89706765E+03 0.32000000E+00 0.0000E+00 0.9000E+01
       25  2    1    2    0    0 -.64253218E+02 -.28862064E+03 -.76340820E+03 0.87116390E+03 0.29783236E+03 0.0000E+00 0.0000E+00
       23  2    1    2    0    0 0.64253218E+02 0.28862064E+03 0.22228095E+03 0.38184424E+03 0.94688192E+02 0.0000E+00 0.0000E+00
       23  1    3    3    0    0 -.69761517E+02 -.18905203E+03 -.22288801E+03 0.31400901E+03 0.91188000E+02 0.0000E+00 0.9000E+01
      -13  1    4    4    0    0 0.71969846E+02 0.27559508E+03 0.22880854E+03 0.36535691E+03 0.10565837E+00 0.0000E+00 0.9000E+01
       13  1    4    4    0    0 -.77166277E+01 0.13025554E+02 -.65275957E+01 0.16487331E+02 0.10565837E+00 0.0000E+00 0.9000E+01
       23  1    3    3    0    0 0.55082994E+01 -.99568602E+02 -.54052019E+03 0.55715489E+03 0.91188000E+02 0.0000E+00 0.9000E+01
#aMCatNLO 1  0  0  2  1 0.24251634D+03 0.00000000D+00  -5  7  0 0.00000000D+00 0.00000000D+00 0.00000000D+00 0.00000000D+00 0.00000000D+00
  <mgrwgt>
 0.2683185797D-03    9    2    0
 0.565068733040725D+03 0.000000000000000D+00 0.000000000000000D+00 0.565068733040725D+03
 0.565068733040725D+03 0.000000000000000D+00 0.000000000000000D+00 -.565068733040725D+03
 0.241426441414381D+03 -.697615172662294D+02 -.189052034744328D+03 -.967684563158595D+02
 0.514636878651574D+03 0.719699446805716D+02 0.275595409434110D+03 0.428624094317801D+03
 0.151537287660285D+02 -.771672677108645D+01 0.130252271654586D+02 0.656567394070180D+00
 0.358920417249466D+03 0.550829935674426D+01 -.995686018552409D+02 -.332512205396012D+03
 0.000000000000000D+00 -.000000000000000D+00 -.000000000000000D+00 -.000000000000000D+00
 0.658417854859511D+03 0.000000000000000D+00 0.000000000000000D+00 0.658417854859511D+03
 0.760619143461458D+03 0.000000000000000D+00 0.000000000000000D+00 -.760619143461458D+03
 0.204362431442509D+03 -.614991434328302D+02 -.142486747665767D+03 -.967684563158595D+02
 0.587281449118071D+03 0.923932026671604D+02 0.390697302715762D+03 0.428624094317801D+03
 0.179615023850496D+02 -.710295995004364D+01 0.164843091190763D+02 0.656567394070180D+00
 0.346260036819448D+03 0.185783082472398D+02 -.259083283821288D+02 -.332512205396012D+03
 0.263171578555891D+03 -.423694075315263D+02 -.238786535786942D+03 -.102201288601947D+03
0.275076859107D-04 0.000000000000D+00 0.000000000000D+00 0.294332935677D-07 0.000000000000D+00  7 -2 2 23 -13 13 23 21 0 0.54760068D-01 0.13801041D+00 0.10767895D+06 0.10767895D+06 0.10767895D+06 0.11190948D+01  1  2  2  2  7  2        2 0.330369136154D-03 0.100000000000D+01
-.979358824347D-06 0.000000000000D+00 -.105636756837D-06 0.294332935677D-07 0.000000000000D+00  7 -2 2 23 -13 13 23 21 2 0.54760068D-01 0.13801041D+00 0.10767895D+06 0.10767895D+06 0.10767895D+06 0.11190948D+01  1  2  3  2  7  2        2 -.147306203779D-04 0.100000000000D+01
0.153074413601D-05 0.000000000000D+00 0.000000000000D+00 0.294332935677D-07 0.000000000000D+00  7 -2 2 23 -13 13 23 21 2 0.54760068D-01 0.13801041D+00 0.10767895D+06 0.10767895D+06 0.10767895D+06 0.11190948D+01  1  2 15  2  7  2        2 0.230240543125D-04 0.100000000000D+01
0.257270230980D-05 0.000000000000D+00 0.000000000000D+00 0.294332935677D-07 0.000000000000D+00  7 -2 2 23 -13 13 23 21 2 0.54760068D-01 0.19402148D+00 0.22021401D+06 0.22021401D+06 0.22021401D+06 0.10946283D+01  1  2 12  2  7  2        2 0.218752374220D-04 0.100000000000D+01
-.170408436109D-04 0.000000000000D+00 0.000000000000D+00 0.294332935677D-07 0.000000000000D+00  7 -2 2 23 -13 13 23 21 2 0.54760068D-01 0.13801041D+00 0.10767895D+06 0.10767895D+06 0.10767895D+06 0.11190948D+01  1  2  4  2  7  2        2 -.256312795588D-03 0.100000000000D+01
-.167088570071D-04 0.000000000000D+00 -.111900421669D-04 0.294332935677D-07 0.000000000000D+00  7 -2 2 23 -13 13 23 21 2 0.54760068D-01 0.20413904D+00 0.10767895D+06 0.10767895D+06 0.10767895D+06 0.11190948D+01  1  2  5  2  7  2        2 -.140381450789D-03 0.100000000000D+01
0.203184567977D-04 0.000000000000D+00 0.103841412035D-04 0.294332935677D-07 0.000000000000D+00  7 -2 2 23 -13 13 23 21 2 0.54760068D-01 0.13801041D+00 0.10767895D+06 0.10767895D+06 0.10767895D+06 0.11190948D+01  1  2  6  2  7  2        2 0.305611657659D-03 0.100000000000D+01
0.108986123865D-06 0.000000000000D+00 0.000000000000D+00 0.294332935677D-07 0.000000000000D+00  7 -2 21 23 -13 13 23 -2 2 0.54760068D-01 0.19402148D+00 0.22021401D+06 0.22021401D+06 0.22021401D+06 0.10946283D+01  1  2 12  4  7  2        2 0.446896760808D-06 0.100000000000D+01
-.412014407126D-06 0.000000000000D+00 -.524302392089D-06 0.294332935677D-07 0.000000000000D+00  7 -2 21 23 -13 13 23 -2 2 0.54760068D-01 0.20413904D+00 0.10767895D+06 0.10767895D+06 0.10767895D+06 0.11190948D+01  1  2  5  4  7  2        2 -.158353583831D-05 0.100000000000D+01
  </mgrwgt>
  </event>
  <event>
  8     66 0.53686478E-06 0.21512596E+03 0.75467711E-02 0.93541713E-01
       -2 -1    0    0    0  501 0.00000000E+00 0.00000000E+00 0.29076076E+03 0.29076094E+03 0.32000000E+00 0.0000E+00 0.9000E+01
        2 -1    0    0  501    0 0.00000000E+00 0.00000000E+00 -.27169497E+03 0.27169516E+03 0.32000000E+00 0.0000E+00 0.9000E+01
       25  2    1    2    0    0 0.91291827E+02 0.21322168E+02 0.17377251E+03 0.35968607E+03 0.30064655E+03 0.0000E+00 0.0000E+00
       23  2    1    2    0    0 -.91291827E+02 -.21322168E+02 -.15470672E+03 0.20277003E+03 0.91611594E+02 0.0000E+00 0.0000E+00
       23  1    3    3    0    0 -.69348946E+02 0.24993334E+01 0.12102000E+03 0.16666318E+03 0.91188000E+02 0.0000E+00 0.9000E+01
      -13  1    4    4    0    0 -.10252488E+03 -.38455925E+02 -.13902472E+03 0.17696919E+03 0.10565837E+00 0.0000E+00 0.9000E+01
       13  1    4    4    0    0 0.11233055E+02 0.17133757E+02 -.15681992E+02 0.25800837E+02 0.10565837E+00 0.0000E+00 0.9000E+01
       23  1    3    3    0    0 0.16064077E+03 0.18822835E+02 0.52752506E+02 0.19302289E+03 0.91188000E+02 0.0000E+00 0.9000E+01
#aMCatNLO 1  0  0  2  2 0.45575763D+03 0.00000000D+00  -5  7  0 0.00000000D+00 0.00000000D+00 0.00000000D+00 0.00000000D+00 0.00000000D+00
  <mgrwgt>
 0.3124915026D-03    5    2    0
 0.281066431263090D+03 0.000000000000000D+00 0.000000000000000D+00 0.281066431263090D+03
 0.281066431263090D+03 0.000000000000000D+00 0.000000000000000D+00 -.281066431263090D+03
 0.162654390770264D+03 -.693489427057723D+02 0.249933373702148D+01 0.115436896048484D+03
 0.181786444741326D+03 -.102525034387511D+03 -.384559993411636D+02 -.145107080909938D+03
 0.263473501942195D+02 0.112332061526096D+02 0.171338308505017D+02 -.165659223158932D+02
 0.191344676820370D+03 0.160640770940674D+03 0.188228347536404D+02 0.462361071773476D+02
 0.000000000000000D+00 0.000000000000000D+00 0.000000000000000D+00 -.000000000000000D+00
 0.573237624276139D+03 0.000000000000000D+00 0.000000000000000D+00 0.573237624276139D+03
 0.607481659451331D+03 0.000000000000000D+00 0.000000000000000D+00 -.607481659451331D+03
 0.264898139770416D+03 -.219642340840280D+03 -.169510545607239D+02 0.115436896048484D+03
 0.320465600863372D+03 -.279076829224229D+03 -.613046474312462D+02 -.145107080909938D+03
 0.231038926077005D+02 -.614991005366436D+01 0.148841754149764D+02 -.165659223158932D+02
 0.115209345573383D+03 0.528808059158020D+02 0.487695829664936D+01 0.462361071773476D+02
 0.457042304912599D+03 0.451988274202371D+03 0.584945682803443D+02 -.342440351751918D+02
0.375858513015D-05 0.000000000000D+00 0.000000000000D+00 0.174295418279D-06 0.000000000000D+00  7 -2 2 23 -13 13 23 21 0 0.44732453D-01 0.41799254D-01 0.46279178D+05 0.46279178D+05 0.46279178D+05 0.11502612D+01  1  2  2  2  7  2        2 0.264147532007D-03 0.100000000000D+01
-.190661393481D-06 0.000000000000D+00 -.144339565580D-07 0.174295418279D-06 0.000000000000D+00  7 -2 2 23 -13 13 23 21 2 0.44732453D-01 0.41799254D-01 0.46279178D+05 0.46279178D+05 0.46279178D+05 0.11502612D+01  1  2  3  2  7  2        2 -.177287405887D-04 0.100000000000D+01
0.226924332677D-06 0.000000000000D+00 0.000000000000D+00 0.174295418279D-06 0.000000000000D+00  7 -2 2 23 -13 13 23 21 2 0.44732453D-01 0.41799254D-01 0.46279178D+05 0.46279178D+05 0.46279178D+05 0.11502612D+01  1  2 15  2  7  2        2 0.211006672816D-04 0.100000000000D+01
0.207317290252D-05 0.000000000000D+00 -.142401063176D-05 0.174295418279D-06 0.000000000000D+00  7 -2 2 23 -13 13 23 21 2 0.44732453D-01 0.16216894D+00 0.46279178D+05 0.46279178D+05 0.46279178D+05 0.11502612D+01  1  2  5  2  7  2        2 0.401315830625D-04 0.100000000000D+01
0.357733579903D-06 0.000000000000D+00 -.229458416540D-06 0.174295418279D-06 0.000000000000D+00  7 -2 21 23 -13 13 23 -2 2 0.44732453D-01 0.16216894D+00 0.46279178D+05 0.46279178D+05 0.46279178D+05 0.11502612D+01  1  2  5  4  7  2        2 0.484046088580D-05 0.100000000000D+01
  </mgrwgt>
  </event>
  <event>
  8     66 0.53686478E-06 0.53450716E+03 0.75467711E-02 0.86442486E-01
       -2 -1    0    0    0  501 0.00000000E+00 0.00000000E+00 0.57467639E+03 0.57467648E+03 0.32000000E+00 0.0000E+00 0.9000E+01
        2 -1    0    0  501    0 0.00000000E+00 0.00000000E+00 -.25651872E+04 0.25651872E+04 0.32000000E+00 0.0000E+00 0.9000E+01
       25  2    1    2    0    0 0.96195686E+03 -.43011011E+03 -.28492261E+03 0.11329685E+04 0.30344858E+03 0.0000E+00 0.0000E+00
       23  2    1    2    0    0 -.96195686E+03 0.43011011E+03 -.17055882E+04 0.20068952E+04 0.90782582E+02 0.0000E+00 0.0000E+00
       23  1    3    3    0    0 0.35325352E+03 -.79415983E+02 -.11241685E+02 0.37354594E+03 0.91188000E+02 0.0000E+00 0.9000E+01
      -13  1    4    4    0    0 -.81126122E+03 0.39549269E+03 -.14771096E+04 0.17310148E+04 0.10565837E+00 0.0000E+00 0.9000E+01
       13  1    4    4    0    0 -.15069564E+03 0.34617427E+02 -.22847858E+03 0.27588044E+03 0.10565837E+00 0.0000E+00 0.9000E+01
       23  1    3    3    0    0 0.60870334E+03 -.35069413E+03 -.27368092E+03 0.75942257E+03 0.91188000E+02 0.0000E+00 0.9000E+01
#aMCatNLO 1  0  0  1  2 0.66365433D+02 0.00000000D+00  -5  7  0 0.00000000D+00 0.00000000D+00 0.00000000D+00 0.00000000D+00 0.00000000D+00
  <mgrwgt>
 0.2389470929D-03    9    2    0
 0.121414689816643D+04 0.000000000000000D+00 0.000000000000000D+00 0.121414689816643D+04
 0.121414689816643D+04 0.000000000000000D+00 0.000000000000000D+00 -.121414689816643D+04
 0.473792198412250D+03 0.353253517308307D+03 -.794159828086504D+02 0.291665647816396D+03
 0.102745003384845D+04 -.811262117133677D+03 0.395493176372105D+03 -.491011707398166D+03
 0.169433804253637D+03 -.150694742441304D+03 0.346169378459376D+02 -.692861908216854D+02
 0.757617759818520D+03 0.608703342266674D+03 -.350694131409392D+03 0.268632250403455D+03
 0.000000000000000D+00 -.000000000000000D+00 0.000000000000000D+00 0.000000000000000D+00
 0.125636319526438D+04 0.000000000000000D+00 0.000000000000000D+00 0.125636319526438D+04
 0.124096556305583D+04 0.000000000000000D+00 0.000000000000000D+00 -.124096556305583D+04
 0.479955212633330D+03 0.358668405649501D+03 -.912681733277925D+02 0.291665647816396D+03
 0.100878870152647D+04 -.799701398582441D+03 0.370188898578404D+03 -.491011707398166D+03
 0.166925088038308D+03 -.148785069268686D+03 0.304370159629715D+02 -.692861908216854D+02
 0.773531510738210D+03 0.617396422046230D+03 -.369721677547618D+03 0.268632250403455D+03
 0.681282453838907D+02 -.275783598446053D+02 0.603639363340358D+02 0.153976322085430D+02
0.272058602681D-03 0.000000000000D+00 0.000000000000D+00 0.188865547891D-06 0.000000000000D+00  7 -2 2 23 -13 13 23 21 0 0.88411761D-01 0.39464419D+00 0.11437450D+07 0.11437450D+07 0.11437450D+07 0.10440031D+01  1  2  2  1  7  1       -2 0.114922880396D-03 0.100000000000D+01
-.148184902933D-04 0.000000000000D+00 -.104477666897D-05 0.188865547891D-06 0.000000000000D+00  7 -2 2 23 -13 13 23 21 2 0.88411761D-01 0.39464419D+00 0.11437450D+07 0.11437450D+07 0.11437450D+07 0.10440031D+01  1  2  3  1  7  1       -2 -.682262626756D-05 0.100000000000D+01
0.167323493629D-04 0.000000000000D+00 0.000000000000D+00 0.188865547891D-06 0.000000000000D+00  7 -2 2 23 -13 13 23 21 2 0.88411761D-01 0.39464419D+00 0.11437450D+07 0.11437450D+07 0.11437450D+07 0.10440031D+01  1  2 15  1  7  1       -2 0.770379195329D-05 0.100000000000D+01
0.531616441575D-03 0.000000000000D+00 0.000000000000D+00 0.188865547891D-06 0.000000000000D+00  7 -2 2 23 -13 13 23 21 2 0.92434471D-01 0.39464419D+00 0.12166248D+07 0.12166248D+07 0.12166248D+07 0.10422420D+01  1  2 12  1  7  1       -2 0.218561089172D-03 0.100000000000D+01
-.470063609831D-03 0.000000000000D+00 0.000000000000D+00 0.188865547891D-06 0.000000000000D+00  7 -2 2 23 -13 13 23 21 2 0.88411761D-01 0.39464419D+00 0.11437450D+07 0.11437450D+07 0.11437450D+07 0.10440031D+01  1  2  4  1  7  1       -2 -.216423418877D-03 0.100000000000D+01
-.347677903915D-02 0.000000000000D+00 -.574631409303D-03 0.188865547891D-06 0.000000000000D+00  7 -2 2 23 -13 13 23 21 2 0.93630856D-01 0.39464419D+00 0.11437450D+07 0.11437450D+07 0.11437450D+07 0.10440031D+01  1  2  5  1  7  1       -2 -.139735090865D-02 0.100000000000D+01
0.350491441960D-02 0.000000000000D+00 0.573687550953D-03 0.188865547891D-06 0.000000000000D+00  7 -2 2 23 -13 13 23 21 2 0.88411761D-01 0.39464419D+00 0.11437450D+07 0.11437450D+07 0.11437450D+07 0.10440031D+01  1  2  6  1  7  1       -2 0.161370832733D-02 0.100000000000D+01
0.705176025897D-05 0.000000000000D+00 0.000000000000D+00 0.188865547891D-06 0.000000000000D+00  7 21 2 23 -13 13 23 2 2 0.92434471D-01 0.39464419D+00 0.12166248D+07 0.12166248D+07 0.12166248D+07 0.10422420D+01  1  2 12  3  7  1       -2 0.259726541635D-04 0.100000000000D+01
-.337158779652D-04 0.000000000000D+00 -.568139174843D-05 0.188865547891D-06 0.000000000000D+00  7 21 2 23 -13 13 23 2 2 0.93630856D-01 0.39464419D+00 0.11437450D+07 0.11437450D+07 0.11437450D+07 0.10440031D+01  1  2  5  3  7  1       -2 -.121324696328D-03 0.100000000000D+01
  </mgrwgt>
  </event>
  <event>
  8     66 0.53686478E-06 0.18148790E+03 0.75467711E-02 0.10169758E+00
       -2 -1    0    0    0  502 0.00000000E+00 0.00000000E+00 0.35362467E+03 0.35362481E+03 0.32000000E+00 0.0000E+00 0.9000E+01
        2 -1    0    0  501    0 0.00000000E+00 0.00000000E+00 -.13213215E+04 0.13213215E+04 0.32000000E+00 0.0000E+00 0.9000E+01
       25  2    1    2    0    0 0.14816576E+02 -.53991895E+02 -.10923185E+04 0.11350502E+04 0.30338839E+03 0.0000E+00 0.0000E+00
       23  1    3    3    0    0 -.59136585E+01 -.14923177E+03 -.62969067E+03 0.65355236E+03 0.91188000E+02 0.0000E+00 0.9000E+01
      -13  1    1    2    0    0 0.14233187E+02 0.79006199E-01 -.21779929E+02 0.26018577E+02 0.10565837E+00 0.0000E+00 0.9000E+01
       13  1    1    2    0    0 0.96422658E+02 -.95522512E+01 0.29427882E+03 0.30982028E+03 0.10565837E+00 0.0000E+00 0.9000E+01
       23  1    3    3    0    0 0.20730234E+02 0.95239877E+02 -.46262785E+03 0.48149783E+03 0.91188000E+02 0.0000E+00 0.9000E+01
       21  1    1    2  501  502 -.12547242E+03 0.63465140E+02 -.14787717E+03 0.20405728E+03 0.75000000E+00 0.0000E+00 0.9000E+01
#aMCatNLO 2  0  0  1  2 0.14060993D+03 0.00000000D+00  -5  7  0 0.00000000D+00 0.00000000D+00 0.00000000D+00 0.00000000D+00 0.00000000D+00
  <mgrwgt>
 0.2154336831D-03    1    2    0
 0.606555685488964D+03 0.000000000000000D+00 0.000000000000000D+00 0.606555685488964D+03
 0.606555685488964D+03 0.000000000000000D+00 0.000000000000000D+00 -.606555685488964D+03
 0.359687710471100D+03 -.432372474311296D+02 -.130353147983039D+03 -.319685149741793D+03
 0.153601869196182D+02 0.125798152990054D+02 0.915269200133434D+00 -.876617770409679D+01
 0.564055781421152D+03 0.379340784977928D+02 0.200318599995178D+02 0.562422132235307D+03
 0.274007692166058D+03 -.727664636566857D+01 0.109406018783388D+03 -.233970804789417D+03
 0.000000000000000D+00 -.000000000000000D+00 0.000000000000000D+00 -.000000000000000D+00
 0.663305095985780D+03 0.000000000000000D+00 0.000000000000000D+00 0.663305095985780D+03
 0.704428021912446D+03 0.000000000000000D+00 0.000000000000000D+00 -.704428021912446D+03
 0.364443328762404D+03 -.591365823529961D+01 -.149231773480935D+03 -.319685149741793D+03
 0.167162733545160D+02 0.142331191366580D+02 0.790124344318847D-01 -.876617770409679D+01
 0.570707668051861D+03 0.964227256180779D+02 -.955225258593017D+01 0.562422132235307D+03
 0.269365856908046D+03 0.207302336418356D+02 0.952398731790082D+02 -.233970804789417D+03
 0.146499990821398D+03 -.125472420161272D+03 0.634651404534249D+02 -.411229259266663D+02
0.243096586440D-04 0.000000000000D+00 0.000000000000D+00 0.619712536334D-10 0.215491513547D-13  7 -2 2 23 -13 13 23 21 2 0.54403732D-01 0.20327995D+00 0.78455978D+05 0.78455978D+05 0.78455978D+05 0.11304731D+01  1  2  1  1  7  1       -2 0.215433683107D-03 0.100000000000D+01
  </mgrwgt>
  </event>
  <event>
  8     66 0.53686478E-06 0.31792166E+03 0.75467711E-02 0.98023415E-01
       -2 -1    0    0    0  501 0.00000000E+00 0.00000000E+00 0.49319890E+02 0.49320928E+02 0.32000000E+00 0.0000E+00 0.9000E+01
        2 -1    0    0  501    0 0.00000000E+00 0.00000000E+00 -.26287637E+04 0.26287638E+04 0.32000000E+00 0.0000E+00 0.9000E+01
       25  2    1    2    0    0 -.26610668E+03 0.93710237E+02 -.12571009E+04 0.13230396E+04 0.30089310E+03 0.0000E+00 0.0000E+00
       23  2    1    2    0    0 0.26610668E+03 -.93710237E+02 -.13223429E+04 0.13550451E+04 0.89230170E+02 0.0000E+00 0.0000E+00
       23  1    3    3    0    0 -.18480711E+03 0.59617694E+02 -.37632872E+03 0.43318183E+03 0.91188000E+02 0.0000E+00 0.9000E+01
      -13  1    4    4    0    0 0.51648579E+02 0.15350751E+02 -.19451614E+03 0.20184093E+03 0.10565837E+00 0.0000E+00 0.9000E+01
       13  1    4    4    0    0 0.21445810E+03 -.10906099E+03 -.11278268E+04 0.11532042E+04 0.10565837E+00 0.0000E+00 0.9000E+01
       23  1    3    3    0    0 -.81299566E+02 0.34092543E+02 -.88077218E+03 0.88985775E+03 0.91188000E+02 0.0000E+00 0.9000E+01
#aMCatNLO 1  0  0  2  1 0.10797849D+03 0.00000000D+00  -5  7  0 0.00000000D+00 0.00000000D+00 0.00000000D+00 0.00000000D+00 0.00000000D+00
  <mgrwgt>
 0.2707685752D-03    4    2    0
 0.360071874980559D+03 0.000000000000000D+00 0.000000000000000D+00 0.360071874980559D+03
 0.360071874980559D+03 0.000000000000000D+00 0.000000000000000D+00 -.360071874980559D+03
 0.262973623404844D+03 -.184807110124836D+03 0.596176940033452D+02 0.152091873128393D+03
 0.538829184204288D+02 0.516483506817399D+02 0.153509253032135D+02 -.407261210726519D+00
 0.248856906239092D+03 0.214458325836675D+03 -.109061162089242D+03 -.635849761025906D+02
 0.154430301896752D+03 -.812995663935791D+02 0.340925427826836D+02 -.880996358150758D+02
 0.000000000000000D+00 -.000000000000000D+00 0.000000000000000D+00 0.000000000000000D+00
 0.560605841473075D+03 0.000000000000000D+00 0.000000000000000D+00 0.560605841473075D+03
 0.378930069730587D+03 0.000000000000000D+00 0.000000000000000D+00 -.378930069730587D+03
 0.252733449696355D+03 -.178769160090548D+03 0.216470501509330D+02 0.152091873128393D+03
 0.534282588674557D+02 0.529047606873047D+02 0.744978392526355D+01 -.407261210726519D+00
 0.272838376201185D+03 0.220566386425326D+03 -.147472707717076D+03 -.635849761025906D+02
 0.149193828152142D+03 -.777447046861080D+02 0.117372090895528D+02 -.880996358150758D+02
 0.211341998286523D+03 -.169572823359756D+02 0.106638664551327D+03 0.181675771742488D+03
0.796692034037D-05 0.000000000000D+00 0.000000000000D+00 0.399841790952D-07 0.000000000000D+00  7 -2 2 23 -13 13 23 21 0 0.75877568D-02 0.40442527D+00 0.10107418D+06 0.10107418D+06 0.10107418D+06 0.11213415D+01  1  2  2  2  7  2        2 0.294061128771D-03 0.100000000000D+01
-.434265480915D-06 0.000000000000D+00 -.305950718453D-07 0.399841790952D-07 0.000000000000D+00  7 -2 2 23 -13 13 23 21 2 0.75877568D-02 0.40442527D+00 0.10107418D+06 0.10107418D+06 0.10107418D+06 0.11213415D+01  1  2  3  2  7  2        2 -.201547869767D-04 0.100000000000D+01
0.497189346346D-06 0.000000000000D+00 0.000000000000D+00 0.399841790952D-07 0.000000000000D+00  7 -2 2 23 -13 13 23 21 2 0.75877568D-02 0.40442527D+00 0.10107418D+06 0.10107418D+06 0.10107418D+06 0.11213415D+01  1  2 15  2  7  2        2 0.230751597884D-04 0.100000000000D+01
-.564797290794D-06 0.000000000000D+00 0.000000000000D+00 0.399841790952D-07 0.000000000000D+00  7 -2 2 23 -13 13 23 21 2 0.75877568D-02 0.40442527D+00 0.10107418D+06 0.10107418D+06 0.10107418D+06 0.11213415D+01  1  2  4  2  7  2        2 -.262129263808D-04 0.100000000000D+01
  </mgrwgt>
  </event>
  <event>
  8     66 0.53686478E-06 0.43645532E+03 0.75467711E-02 0.87181967E-01
       -2 -1    0    0    0  501 0.00000000E+00 0.00000000E+00 0.31751455E+03 0.31751471E+03 0.32000000E+00 0.0000E+00 0.9000E+01
        2 -1    0    0  501    0 0.00000000E+00 0.00000000E+00 -.87575123E+03 0.87575129E+03 0.32000000E+00 0.0000E+00 0.9000E+01
       25  2    1    2    0    0 0.15223372E+03 0.35207149E+03 -.62569001E+03 0.79324220E+03 0.30102452E+03 0.0000E+00 0.0000E+00
       23  2    1    2    0    0 -.15223372E+03 -.35207149E+03 0.67453331E+02 0.40002380E+03 0.91321657E+02 0.0000E+00 0.0000E+00
       23  1    3    3    0    0 -.35577685E+02 0.35218672E+02 -.95198079E+02 0.14101082E+03 0.91188000E+02 0.0000E+00 0.9000E+01
      -13  1    4    4    0    0 -.10511305E+03 -.30592353E+03 0.79197348E+02 0.33303181E+03 0.10565837E+00 0.0000E+00 0.9000E+01
       13  1    4    4    0    0 -.47120677E+02 -.46147960E+02 -.11744017E+02 0.66991981E+02 0.10565837E+00 0.0000E+00 0.9000E+01
       23  1    3    3    0    0 0.18781141E+03 0.31685282E+03 -.53049193E+03 0.65223138E+03 0.91188000E+02 0.0000E+00 0.9000E+01
#aMCatNLO 1  0  0  2  1 0.89382945D+03 0.00000000D+00  -5  7  0 0.00000000D+00 0.00000000D+00 0.00000000D+00 0.00000000D+00 0.00000000D+00
  <mgrwgt>
 0.2402582191D-03    5    2    0
 0.527317634270609D+03 0.000000000000000D+00 0.000000000000000D+00 0.527317634270609D+03
 0.527317634270609D+03 0.000000000000000D+00 0.000000000000000D+00 -.527317634270609D+03
 0.109156562356544D+03 -.355776846009073D+02 0.352186722470935D+02 -.330723032927587D+02
 0.418729499046616D+03 -.105113123090765D+03 -.305923877773852D+03 0.265887581006983D+03
 0.695812291043507D+02 -.471205990433742D+02 -.461476119150352D+02 0.221719305430311D+02
 0.457167978033708D+03 0.187811406735047D+03 0.316852817441794D+03 -.254987208257255D+03
 0.000000000000000D+00 -.000000000000000D+00 -.000000000000000D+00 -.000000000000000D+00
 0.878974021258359D+03 0.000000000000000D+00 0.000000000000000D+00 0.878974021258359D+03
 0.175507604367371D+04 0.000000000000000D+00 0.000000000000000D+00 -.175507604367371D+04
 0.169536875516908D+03 -.246385440416816D+02 0.136845408101454D+03 -.330723032927587D+02
 0.281563747366414D+03 -.776255499579270D+02 -.505589961431420D+02 0.265887581006983D+03
 0.480491341704868D+02 -.425034286940655D+02 -.325320453967173D+01 0.221719305430311D+02
 0.883306984657211D+03 0.240427084179368D+03 0.805662658076190D+03 -.254987208257255D+03
 0.125159332322105D+04 -.956595614856944D+02 -.888695865494831D+03 -.876102022415355D+03
0.154923486343D-04 0.000000000000D+00 0.000000000000D+00 0.557816949683D-06 0.000000000000D+00  7 -2 2 23 -13 13 23 21 0 0.48848409D-01 0.13473097D+00 0.19049324D+06 0.19049324D+06 0.19049324D+06 0.10994535D+01  1  2  2  2  7  2        2 0.237119488861D-03 0.100000000000D+01
-.823258797661D-06 0.000000000000D+00 -.594946979849D-07 0.557816949683D-06 0.000000000000D+00  7 -2 2 23 -13 13 23 21 2 0.48848409D-01 0.13473097D+00 0.19049324D+06 0.19049324D+06 0.19049324D+06 0.10994535D+01  1  2  3  2  7  2        2 -.152314095560D-04 0.100000000000D+01
0.916375470529D-06 0.000000000000D+00 0.000000000000D+00 0.557816949683D-06 0.000000000000D+00  7 -2 2 23 -13 13 23 21 2 0.48848409D-01 0.13473097D+00 0.19049324D+06 0.19049324D+06 0.19049324D+06 0.10994535D+01  1  2 15  2  7  2        2 0.169541948878D-04 0.100000000000D+01
0.234352214539D-05 0.000000000000D+00 -.531643797940D-05 0.557816949683D-06 0.000000000000D+00  7 -2 2 23 -13 13 23 21 2 0.48848409D-01 0.52572235D+00 0.19049324D+06 0.19049324D+06 0.19049324D+06 0.10994535D+01  1  2  5  2  7  2        2 0.140474665995D-05 0.100000000000D+01
0.463030786805D-06 0.000000000000D+00 -.860969250142D-06 0.557816949683D-06 0.000000000000D+00  7 -2 21 23 -13 13 23 -2 2 0.48848409D-01 0.52572235D+00 0.19049324D+06 0.19049324D+06 0.19049324D+06 0.10994535D+01  1  2  5  4  7  2        2 0.111982540593D-07 0.100000000000D+01
  </mgrwgt>
  </event>
  <event>
  8     66 -.53686478E-06 0.21487991E+03 0.75467711E-02 0.10423042E+00
       -2 -1    0    0    0  501 0.00000000E+00 0.00000000E+00 0.49733733E+02 0.49734763E+02 0.32000000E+00 0.0000E+00 0.9000E+01
        2 -1    0    0  501    0 0.00000000E+00 0.00000000E+00 -.11501017E+04 0.11501018E+04 0.32000000E+00 0.0000E+00 0.9000E+01
       25  2    1    2    0    0 -.89851835E+02 -.81912983E+02 -.68528057E+03 0.75748955E+03 0.29899476E+03 0.0000E+00 0.0000E+00
       23  2    1    2    0    0 0.89851835E+02 0.81912983E+02 -.41508744E+03 0.44234700E+03 0.92683319E+02 0.0000E+00 0.0000E+00
       23  1    3    3    0    0 -.70652630E+01 0.74809986E+02 -.19182455E+03 0.22529617E+03 0.91188000E+02 0.0000E+00 0.9000E+01
      -13  1    4    4    0    0 0.10184369E+03 0.86312168E+02 -.32487271E+03 0.35123242E+03 0.10565837E+00 0.0000E+00 0.9000E+01
       13  1    4    4    0    0 -.11991853E+02 -.43991854E+01 -.90214732E+02 0.91114579E+02 0.10565837E+00 0.0000E+00 0.9000E+01
       23  1    3    3    0    0 -.82786572E+02 -.15672297E+03 -.49345602E+03 0.53219339E+03 0.91188000E+02 0.0000E+00 0.9000E+01
#aMCatNLO 1  0  0  1  1 0.39990300D+00 0.00000000D+00  -5  7  0 0.00000000D+00 0.00000000D+00 0.00000000D+00 0.00000000D+00 0.00000000D+00
  <mgrwgt>
 -.1342414969D-03    9    2    0
 0.239164164699547D+03 0.000000000000000D+00 0.000000000000000D+00 0.239164164699547D+03
 0.239164164699547D+03 0.000000000000000D+00 0.000000000000000D+00 -.239164164699547D+03
 0.123850016483599D+03 -.706526664976312D+01 0.748099804001159D+02 0.371096224541515D+02
 0.133678128079650D+03 0.101843839364535D+03 0.863122895825952D+02 -.691830740717836D+01
 0.210172051622431D+02 -.119919976215517D+02 -.439930066565867D+01 -.166901485772192D+02
 0.199782979673603D+03 -.827865750932202D+02 -.156722969317052D+03 -.135011664697539D+02
 0.000000000000000D+00 0.000000000000000D+00 -.000000000000000D+00 0.000000000000000D+00
 0.239447163821899D+03 0.000000000000000D+00 0.000000000000000D+00 0.239447163821899D+03
 0.239305564669952D+03 0.000000000000000D+00 0.000000000000000D+00 -.239305564669952D+03
 0.123902764009137D+03 -.712954988057619D+01 0.748911812225880D+02 0.371096224541515D+02
 0.133681902529726D+03 0.101774468734168D+03 0.863999166693164D+02 -.691830740717836D+01
 0.210205517844976D+02 -.120029049575957D+02 -.438552281649722D+01 -.166901485772192D+02
 0.199723278243731D+03 -.828902330741231D+02 -.156592031385050D+03 -.135011664697539D+02
 0.424231924759290D+00 0.248219178126552D+00 -.313543690357535D+00 0.141599151947068D+00
0.349047235024D-06 0.000000000000D+00 0.000000000000D+00 0.191245489627D-07 0.000000000000D+00  7 -2 2 23 -13 13 23 21 0 0.76514262D-02 0.17693881D+00 0.53767957D+05 0.53767957D+05 0.53767957D+05 0.11445303D+01  1  2  2  1  7  1       -2 0.822151131408D-04 0.100000000000D+01
-.193689521208D-07 0.000000000000D+00 -.134043328874D-08 0.191245489627D-07 0.000000000000D+00  7 -2 2 23 -13 13 23 21 2 0.76514262D-02 0.17693881D+00 0.53767957D+05 0.53767957D+05 0.53767957D+05 0.11445303D+01  1  2  3  1  7  1       -2 -.597624147168D-05 0.100000000000D+01
0.222482689127D-07 0.000000000000D+00 0.000000000000D+00 0.191245489627D-07 0.000000000000D+00  7 -2 2 23 -13 13 23 21 2 0.76514262D-02 0.17693881D+00 0.53767957D+05 0.53767957D+05 0.53767957D+05 0.11445303D+01  1  2 15  1  7  1       -2 0.686464742747D-05 0.100000000000D+01
-.415544179311D-04 0.000000000000D+00 0.000000000000D+00 0.191245489627D-07 0.000000000000D+00  7 -2 2 23 -13 13 23 21 2 0.76514262D-02 0.17693881D+00 0.53767957D+05 0.53767957D+05 0.53767957D+05 0.11445303D+01  1  2  4  1  7  1       -2 -.128215111598D-01 0.100000000000D+01
-.334825422340D-03 0.000000000000D+00 -.249909142565D-04 0.191245489627D-07 0.000000000000D+00  7 -2 2 23 -13 13 23 21 2 0.76651248D-02 0.17693881D+00 0.53767957D+05 0.53767957D+05 0.53767957D+05 0.11445303D+01  1  2  5  1  7  1       -2 -.103032099043D+00 0.100000000000D+01
0.334869628705D-03 0.000000000000D+00 0.249908742765D-04 0.191245489627D-07 0.000000000000D+00  7 -2 2 23 -13 13 23 21 2 0.76514262D-02 0.17693881D+00 0.53767957D+05 0.53767957D+05 0.53767957D+05 0.11445303D+01  1  2  6  1  7  1       -2 0.103323181873D+00 0.100000000000D+01
0.415544521214D-04 0.000000000000D+00 0.000000000000D+00 0.191245489627D-07 0.835382429113D-06  7 -2 2 23 -13 13 23 21 2 0.76604800D-02 0.17704342D+00 0.53861825D+05 0.53861825D+05 0.53861825D+05 0.11444641D+01  1  2 11  1  7  1       -2 0.127859821243D-01 0.100000000000D+01
-.111965699250D-06 0.000000000000D+00 -.835920059473D-08 0.191245489627D-07 0.000000000000D+00  7 21 2 23 -13 13 23 2 2 0.76651248D-02 0.17693881D+00 0.53767957D+05 0.53767957D+05 0.53767957D+05 0.11445303D+01  1  2  5  3  7  1       -2 -.532064093040D-03 0.100000000000D+01
0.124507822002D-07 0.000000000000D+00 0.000000000000D+00 0.191245489627D-07 0.184951775199D-09  7 21 2 23 -13 13 23 2 2 0.76604800D-02 0.17704342D+00 0.53861825D+05 0.53861825D+05 0.53861825D+05 0.11444641D+01  1  2 11  3  7  1       -2 0.591652820912D-04 0.100000000000D+01
  </mgrwgt>
  </event>
  <event>
  7     66 0.53686478E-06 0.24830532E+03 0.75467711E-02 0.93220262E-01
       -2 -1    0    0    0  501 0.00000000E+00 0.00000000E+00 0.23934786E+03 0.23934808E+03 0.32000000E+00 0.0000E+00 0.9000E+01
        2 -1    0    0  501    0 0.00000000E+00 0.00000000E+00 -.28514477E+03 0.28514495E+03 0.32000000E+00 0.0000E+00 0.9000E+01
       23  2    1    2    0    0 0.84129671E+02 -.86490945E+02 0.48708020E+02 0.15939153E+03 0.92058150E+02 0.0000E+00 0.0000E+00
       23  1    1    2    0    0 -.15204001E+03 -.38258292E+02 -.70611158E+02 0.19463054E+03 0.91188000E+02 0.0000E+00 0.9000E+01
      -13  1    3    3    0    0 0.10085928E+03 -.68706253E+02 0.23467163E+02 0.12427334E+03 0.10565837E+00 0.0000E+00 0.9000E+01
       13  1    3    3    0    0 -.16729611E+02 -.17784691E+02 0.25240857E+02 0.35118188E+02 0.10565837E+00 0.0000E+00 0.9000E+01
       23  1    1    2    0    0 0.67910335E+02 0.12474924E+03 -.23893771E+02 0.17047096E+03 0.91188000E+02 0.0000E+00 0.9000E+01
#aMCatNLO 1  0  0  1  2 0.46234883D+03 0.00000000D+00  -5  7  0 0.00000000D+00 0.00000000D+00 0.00000000D+00 0.00000000D+00 0.00000000D+00
  <mgrwgt>
 0.2362380329D-03    3    2    0
 0.261244896170578D+03 0.000000000000000D+00 0.000000000000000D+00 0.261244896170578D+03
 0.261244896170578D+03 0.000000000000000D+00 0.000000000000000D+00 -.261244896170578D+03
 0.189184371723714D+03 -.152037424242273D+03 -.382510095892579D+02 -.538233876272568D+02
 0.126813558823677D+03 0.100863748383585D+03 -.687107541499796D+02 0.344530873461319D+02
 0.374658827114119D+02 -.167284906737187D+02 -.177859342813922D+02 0.284167293836320D+02
 0.169025979082352D+03 0.679021665324068D+02 0.124747698020630D+03 -.904642910250710D+01
 0.000000000000000D+00 -.000000000000000D+00 0.000000000000000D+00 -.000000000000000D+00
 0.455004885522013D+03 0.000000000000000D+00 0.000000000000000D+00 0.455004885522013D+03
 0.852232673995600D+03 0.000000000000000D+00 0.000000000000000D+00 -.852232673995600D+03
 0.130853665279448D+03 -.346364847071642D+02 -.686351749799049D+02 -.538233876272568D+02
 0.270975766069064D+03 0.246786529677807D+03 -.106476567086944D+03 0.344530873461319D+02
 0.396409458619971D+02 0.115569412826127D+02 -.251063973552848D+02 0.284167293836320D+02
 0.256212951614498D+03 0.223894405636854D+03 0.843758405944848D+02 -.904642910250710D+01
 0.609554230692606D+03 -.447601391890110D+03 0.115842298827649D+03 -.397227788473587D+03
0.244558370923D-05 0.000000000000D+00 0.000000000000D+00 0.553335428553D-09 0.000000000000D+00  7 -2 2 23 -13 13 23 21 0 0.36822779D-01 0.43868457D-01 0.61655533D+05 0.61655533D+05 0.61655533D+05 0.11393759D+01  1  2  2  1  7  1       -2 0.233929042119D-03 0.100000000000D+01
-.135439472519D-06 0.000000000000D+00 -.939168538044D-08 0.553335428553D-09 0.000000000000D+00  7 -2 2 23 -13 13 23 21 2 0.36822779D-01 0.43868457D-01 0.61655533D+05 0.61655533D+05 0.61655533D+05 0.11393759D+01  1  2  3  1  7  1       -2 -.168182542109D-04 0.100000000000D+01
0.154034059600D-06 0.000000000000D+00 0.000000000000D+00 0.553335428553D-09 0.000000000000D+00  7 -2 2 23 -13 13 23 21 2 0.36822779D-01 0.43868457D-01 0.61655533D+05 0.61655533D+05 0.61655533D+05 0.11393759D+01  1  2 15  1  7  1       -2 0.191272449849D-04 0.100000000000D+01
  </mgrwgt>
  </event>
  <event>
  8     66 0.53686478E-06 0.16355277E+03 0.75467711E-02 0.10117844E+00
       -2 -1    0    0    0  501 0.00000000E+00 0.00000000E+00 0.21827770E+02 0.21830116E+02 0.32000000E+00 0.0000E+00 0.9000E+01
        2 -1    0    0  501    0 0.00000000E+00 0.00000000E+00 -.24943623E+04 0.24943623E+04 0.32000000E+00 0.0000E+00 0.9000E+01
       25  2    1    2    0    0 0.51297040E+02 -.33661111E+01 -.22442556E+04 0.22649912E+04 0.30142887E+03 0.0000E+00 0.0000E+00
       23  2    1    2    0    0 -.51297040E+02 0.33661111E+01 -.22827894E+03 0.25120121E+03 0.91367713E+02 0.0000E+00 0.0000E+00
       23  1    3    3    0    0 0.89153828E+02 0.75059328E+01 -.44441667E+03 0.46241342E+03 0.91188000E+02 0.0000E+00 0.9000E+01
      -11  1    4    4    0    0 -.47854216E+02 0.40524384E+02 -.10401863E+03 0.12145833E+03 0.51099893E-03 0.0000E+00 0.9000E+01
       11  1    4    4    0    0 -.34428239E+01 -.37158273E+02 -.12426031E+03 0.12974288E+03 0.51099893E-03 0.0000E+00 0.9000E+01
       23  1    3    3    0    0 -.37856787E+02 -.10872044E+02 -.17998389E+04 0.18025778E+04 0.91188000E+02 0.0000E+00 0.9000E+01
#aMCatNLO 1  0  0  1  2 0.19743785D+03 0.00000000D+00  -5  7  0 0.00000000D+00 0.00000000D+00 0.00000000D+00 0.00000000D+00 0.00000000D+00
  <mgrwgt>
 0.2763122179D-03    5    2    0
 0.233343833020868D+03 0.000000000000000D+00 0.000000000000000D+00 0.233343833020868D+03
 0.233343833020868D+03 0.000000000000000D+00 0.000000000000000D+00 -.233343833020868D+03
 0.138605742777582D+03 0.891538278647283D+02 0.750593279286181D+01 0.537731953383906D+02
 0.103758666482080D+03 -.478542164930269D+02 0.405243839217394D+02 0.826656466843482D+02
 0.411841747274242D+02 -.344282395210461D+01 -.371582728303943D+02 0.174225707481933D+02
 0.183139082054650D+03 -.378567874195968D+02 -.108720438842069D+02 -.153861412770932D+03
 0.000000000000000D+00 -.000000000000000D+00 -.000000000000000D+00 0.000000000000000D+00
 0.503166413908173D+03 0.000000000000000D+00 0.000000000000000D+00 0.503166413908173D+03
 0.292379853970050D+03 0.000000000000000D+00 0.000000000000000D+00 -.292379853970050D+03
 0.154566087908153D+03 0.905602948553292D+02 0.669529733921200D+02 0.537731953383906D+02
 0.129322789811341D+03 -.467360279766503D+02 0.877867786845642D+02 0.826656466843482D+02
 0.289678454596618D+02 -.310627558561822D+01 -.229334068791629D+02 0.174225707481933D+02
 0.193877014803336D+03 -.360480846737850D+02 0.655762668694806D+02 -.153861412770932D+03
 0.288812529895732D+03 -.466990661927575D+01 -.197382612067002D+03 0.210786559938123D+03
0.181244336173D-05 0.000000000000D+00 0.000000000000D+00 0.321640886059D-07 0.000000000000D+00  7 -2 2 23 -11 11 23 21 0 0.33583005D-02 0.38374823D+00 0.26749508D+05 0.26749508D+05 0.26749508D+05 0.11719853D+01  1  2  2  1  7  1       -2 0.275033737392D-03 0.100000000000D+01
-.852297504858D-07 0.000000000000D+00 -.696025973634D-08 0.321640886059D-07 0.000000000000D+00  7 -2 2 23 -11 11 23 21 2 0.33583005D-02 0.38374823D+00 0.26749508D+05 0.26749508D+05 0.26749508D+05 0.11719853D+01  1  2  3  1  7  1       -2 -.177646682917D-04 0.100000000000D+01
0.109880399175D-06 0.000000000000D+00 0.000000000000D+00 0.321640886059D-07 0.000000000000D+00  7 -2 2 23 -11 11 23 21 2 0.33583005D-02 0.38374823D+00 0.26749508D+05 0.26749508D+05 0.26749508D+05 0.11719853D+01  1  2 15  1  7  1       -2 0.229026699243D-04 0.100000000000D+01
-.192976438831D-06 0.000000000000D+00 -.577973166017D-06 0.321640886059D-07 0.000000000000D+00  7 -2 2 23 -11 11 23 21 2 0.98159605D-02 0.38374823D+00 0.26749508D+05 0.26749508D+05 0.26749508D+05 0.11719853D+01  1  2  5  1  7  1       -2 -.823824559440D-05 0.100000000000D+01
0.683281497220D-08 0.000000000000D+00 -.701861113283D-07 0.321640886059D-07 0.000000000000D+00  7 21 2 23 -11 11 23 2 2 0.98159605D-02 0.38374823D+00 0.26749508D+05 0.26749508D+05 0.26749508D+05 0.11719853D+01  1  2  5  3  7  1       -2 0.437872448964D-05 0.100000000000D+01
  </mgrwgt>
  </event>
  <event>
  8     66 0.53686478E-06 0.21643854E+03 0.75467711E-02 0.10278411E+00
       -2 -1    0    0    0  501 0.00000000E+00 0.00000000E+00 0.75844982E+03 0.75844989E+03 0.32000000E+00 0.0000E+00 0.9000E+01
        2 -1    0    0  501    0 0.00000000E+00 0.00000000E+00 -.74281329E+02 0.74282019E+02 0.32000000E+00 0.0000E+00 0.9000E+01
       25  2    1    2    0    0 0.74072228E+02 0.80848848E+02 0.38251080E+03 0.49859860E+03 0.30043772E+03 0.0000E+00 0.0000E+00
       23  2    1    2    0    0 -.74072228E+02 -.80848848E+02 0.30165769E+03 0.33413331E+03 0.92868037E+02 0.0000E+00 0.0000E+00
       23  1    3    3    0    0 -.11105170E+02 -.63293444E+02 0.22562427E+03 0.25169614E+03 0.91188000E+02 0.0000E+00 0.9000E+01
      -11  1    4    4    0    0 -.52271982E+01 -.57851168E+02 0.67850315E+02 0.89318232E+02 0.51099893E-03 0.0000E+00 0.9000E+01
       11  1    4    4    0    0 -.68845030E+02 -.22997680E+02 0.23380738E+03 0.24481507E+03 0.51099893E-03 0.0000E+00 0.9000E+01
       23  1    3    3    0    0 0.85177399E+02 0.14414229E+03 0.15688653E+03 0.24690246E+03 0.91188000E+02 0.0000E+00 0.9000E+01
#aMCatNLO 1  0  0  1  2 0.77015195D+02 0.00000000D+00  -5  7  0 0.00000000D+00 0.00000000D+00 0.00000000D+00 0.00000000D+00 0.00000000D+00
  <mgrwgt>
 0.2212782783D-03    3    2    0
 0.237358328210505D+03 0.000000000000000D+00 0.000000000000000D+00 0.237358328210505D+03
 0.237358328210505D+03 0.000000000000000D+00 0.000000000000000D+00 -.237358328210505D+03
 0.116343908034712D+03 -.111051701187498D+02 -.632934440293574D+02 0.330343568474675D+02
 0.588921694257252D+02 -.522719838241968D+01 -.578511683090204D+02 -.970599515869208D+01
 0.924797630328469D+02 -.688450302023497D+02 -.229976801849478D+02 0.573059778134877D+02
 0.207000815927726D+03 0.851773987035192D+02 0.144142292523326D+03 -.806343395022631D+02
 0.000000000000000D+00 0.000000000000000D+00 0.000000000000000D+00 -.000000000000000D+00
 0.242550918200545D+03 0.000000000000000D+00 0.000000000000000D+00 0.242550918200545D+03
 0.950204826995525D+03 0.000000000000000D+00 0.000000000000000D+00 -.950204826995525D+03
 0.128284927397646D+03 -.151307656837388D+02 -.825927505954198D+02 0.330343568474675D+02
 0.690229983864452D+02 -.733216172956311D+01 -.679426770785947D+02 -.970599515869208D+01
 0.996219139215523D+02 -.720062424012624D+02 -.381530037544081D+02 0.573059778134877D+02
 0.183993484943853D+03 0.787432229419303D+02 0.113295892650771D+03 -.806343395022631D+02
 0.711832420546573D+03 0.157259468726340D+02 0.753925387776514D+02 -.707653908794980D+03
0.546306125322D-05 0.000000000000D+00 0.000000000000D+00 0.325462748832D-07 0.000000000000D+00  7 -2 2 23 -11 11 23 21 0 0.11668465D+00 0.11427955D-01 0.46845640D+05 0.46845640D+05 0.46845640D+05 0.11497931D+01  1  2  2  1  7  1       -2 0.218758102593D-03 0.100000000000D+01
-.300362079293D-06 0.000000000000D+00 -.209795936694D-07 0.325462748832D-07 0.000000000000D+00  7 -2 2 23 -11 11 23 21 2 0.11668465D+00 0.11427955D-01 0.46845640D+05 0.46845640D+05 0.46845640D+05 0.11497931D+01  1  2  3  1  7  1       -2 -.159005647598D-04 0.100000000000D+01
0.347968263989D-06 0.000000000000D+00 0.000000000000D+00 0.325462748832D-07 0.000000000000D+00  7 -2 2 23 -11 11 23 21 2 0.11668465D+00 0.11427955D-01 0.46845640D+05 0.46845640D+05 0.46845640D+05 0.11497931D+01  1  2 15  1  7  1       -2 0.184207404908D-04 0.100000000000D+01
  </mgrwgt>
  </event>
  <event>
  9     66 0.53686478E-06 0.22541985E+03 0.75467711E-02 0.10029036E+00
       -2 -1    0    0    0  502 0.00000000E+00 0.00000000E+00 0.66224919E+02 0.66225692E+02 0.32000000E+00 0.0000E+00 0.9000E+01
        2 -1    0    0  501    0 0.00000000E+00 0.00000000E+00 -.18210758E+04 0.18210758E+04 0.32000000E+00 0.0000E+00 0.9000E+01
       25  2    1    2    0    0 -.10530085E+03 -.18834145E+03 -.74662856E+03 0.83278147E+03 0.29918223E+03 0.0000E+00 0.0000E+00
       23  2    1    2    0    0 0.41802862E+01 0.80809616E+02 -.73101508E+03 0.74046132E+03 0.85745249E+02 0.0000E+00 0.0000E+00
       23  1    3    3    0    0 0.33575013E+02 -.17525913E+03 -.36603910E+03 0.41730435E+03 0.91188000E+02 0.0000E+00 0.9000E+01
      -13  1    4    4    0    0 -.68574733E+01 -.13370371E+02 -.23396082E+03 0.23444289E+03 0.10565837E+00 0.0000E+00 0.9000E+01
       13  1    4    4    0    0 0.11037759E+02 0.94179987E+02 -.49705425E+03 0.50601842E+03 0.10565837E+00 0.0000E+00 0.9000E+01
       23  1    3    3    0    0 -.13887587E+03 -.13082318E+02 -.38058946E+03 0.41547713E+03 0.91188000E+02 0.0000E+00 0.9000E+01
       21  1    1    2  501  502 0.10112057E+03 0.10753184E+03 -.27720721E+03 0.31405869E+03 0.75000000E+00 0.0000E+00 0.9000E+01
#aMCatNLO 2  0  0  1  2 0.14760916D+03 0.00000000D+00  -5  7  0 0.00000000D+00 0.00000000D+00 0.00000000D+00 0.00000000D+00 0.00000000D+00
  <mgrwgt>
 0.4596990884D-04    2    2    0
 0.259746844379172D+03 0.000000000000000D+00 0.000000000000000D+00 0.259746844379172D+03
 0.259746844379172D+03 0.000000000000000D+00 0.000000000000000D+00 -.259746844379172D+03
 0.192870292432958D+03 0.724185288082426D+02 -.133952851835749D+03 0.754711105622174D+02
 0.404116882405097D+02 0.108581617954482D+01 -.492359180008129D+01 -.400959323804618D+02
 0.140260319795040D+03 0.353132625917957D+02 0.119994745645662D+03 -.634601592462746D+02
 0.145951388289836D+03 -.108817607579583D+03 0.188816979901683D+02 0.280849810645189D+02
 0.000000000000000D+00 0.000000000000000D+00 0.000000000000000D+00 0.000000000000000D+00
 0.374118265612257D+03 0.000000000000000D+00 0.000000000000000D+00 0.374118265612257D+03
 0.322359862433710D+03 0.000000000000000D+00 0.000000000000000D+00 -.322359862433710D+03
 0.214135904933457D+03 0.335750111250907D+02 -.175259135385651D+03 0.754711105622174D+02
 0.428191571019985D+02 -.685749975462227D+01 -.133705317239975D+02 -.400959323804618D+02
 0.114100504930359D+03 0.110377865497755D+02 0.941801501479053D+02 -.634601592462746D+02
 0.169001983238348D+03 -.138875864518874D+03 -.130823196427836D+02 0.280849810645189D+02
 0.156420577841803D+03 0.101120566598630D+03 0.107531836604527D+03 0.517584031785471D+02
-.250640896289D-06 0.000000000000D+00 0.000000000000D+00 0.415391211491D-08 0.000000000000D+00  7 -2 2 23 -13 13 23 21 2 0.10737326D-01 0.22574749D+00 0.97502509D+05 0.97502509D+05 0.97502509D+05 0.11226245D+01  1  2 13  1  7  1       -2 -.295777952551D-04 0.100000000000D+01
0.912715573238D-06 0.000000000000D+00 0.000000000000D+00 0.415391211491D-08 0.140260959898D-11  7 -2 2 23 -13 13 23 21 2 0.10188484D-01 0.28016482D+00 0.97502509D+05 0.97502509D+05 0.97502509D+05 0.11226245D+01  1  2  1  1  7  1       -2 0.755477040906D-04 0.100000000000D+01
  </mgrwgt>
  </event>
  <event>
  8     66 0.53686478E-06 0.42961357E+03 0.75467711E-02 0.87961952E-01
       -2 -1    0    0    0  501 0.00000000E+00 0.00000000E+00 0.29438219E+03 0.29438236E+03 0.32000000E+00 0.0000E+00 0.9000E+01
        2 -1    0    0  501    0 0.00000000E+00 0.00000000E+00 -.26901837E+04 0.26901837E+04 0.32000000E+00 0.0000E+00 0.9000E+01
       25  2    1    2    0    0 0.49956528E+03 -.69695919E+03 -.10839780E+04 0.14146719E+04 0.30161377E+03 0.0000E+00 0.0000E+00
       23  2    1    2    0    0 -.49956528E+03 0.69695919E+03 -.13118235E+04 0.15698941E+04 0.91482402E+02 0.0000E+00 0.0000E+00
       23  1    3    3    0    0 0.44012805E+03 -.64829586E+03 -.91954695E+03 0.12115618E+04 0.91188000E+02 0.0000E+00 0.9000E+01
      -13  1    4    4    0    0 -.27176517E+03 0.33900416E+03 -.73518876E+03 0.85398047E+03 0.10565837E+00 0.0000E+00 0.9000E+01
       13  1    4    4    0    0 -.22780011E+03 0.35795503E+03 -.57663475E+03 0.71591364E+03 0.10565837E+00 0.0000E+00 0.9000E+01
       23  1    3    3    0    0 0.59437229E+02 -.48663336E+02 -.16443102E+03 0.20311011E+03 0.91188000E+02 0.0000E+00 0.9000E+01
#aMCatNLO 1  0  0  1  2 0.11256488D+03 0.00000000D+00  -5  7  0 0.00000000D+00 0.00000000D+00 0.00000000D+00 0.00000000D+00 0.00000000D+00
  <mgrwgt>
 0.1769916571D-03    9    2    0
 0.889911481988316D+03 0.000000000000000D+00 0.000000000000000D+00 0.889911481988316D+03
 0.889911481988316D+03 0.000000000000000D+00 0.000000000000000D+00 -.889911481988316D+03
 0.793862302040834D+03 0.440128051085981D+03 -.648295855291406D+03 0.888925526510129D+02
 0.442400664713654D+03 -.271765231813160D+03 0.339004135338010D+03 -.832958770909524D+02
 0.424305747125078D+03 -.227800047788575D+03 0.357955056093210D+03 -.326849938052861D+01
 0.119254250097065D+03 0.594372285157536D+02 -.486633361398139D+02 -.232817617953197D+01
 0.000000000000000D+00 0.000000000000000D+00 -.000000000000000D+00 0.000000000000000D+00
 0.101761376609307D+04 0.000000000000000D+00 0.000000000000000D+00 0.101761376609307D+04
 0.916845197763596D+03 0.000000000000000D+00 0.000000000000000D+00 -.916845197763596D+03
 0.745937162442205D+03 0.414571469474759D+03 -.606906590629114D+03 0.888925526510129D+02
 0.470557569869761D+03 -.286917913813605D+03 0.363544129582961D+03 -.832958770909524D+02
 0.451985436541163D+03 -.242344154126526D+03 0.381509452986166D+03 -.326849938052861D+01
 0.114898825091773D+03 0.555509093465291D+02 -.423693843467250D+02 -.232817617953197D+01
 0.151079969911761D+03 0.591396891188424D+02 -.957776075932884D+02 0.100768568329472D+03
0.843172561285D-04 0.000000000000D+00 0.000000000000D+00 0.469424773976D-06 0.000000000000D+00  7 -2 2 23 -13 13 23 21 0 0.45289583D-01 0.41387442D+00 0.78046870D+06 0.78046870D+06 0.78046870D+06 0.10551055D+01  1  2  2  1  7  1       -2 0.128412167127D-03 0.100000000000D+01
-.468398874440D-05 0.000000000000D+00 -.323800464777D-06 0.469424773976D-06 0.000000000000D+00  7 -2 2 23 -13 13 23 21 2 0.45289583D-01 0.41387442D+00 0.78046870D+06 0.78046870D+06 0.78046870D+06 0.10551055D+01  1  2  3  1  7  1       -2 -.794140535423D-05 0.100000000000D+01
0.532158575187D-05 0.000000000000D+00 0.000000000000D+00 0.469424773976D-06 0.000000000000D+00  7 -2 2 23 -13 13 23 21 2 0.45289583D-01 0.41387442D+00 0.78046870D+06 0.78046870D+06 0.78046870D+06 0.10551055D+01  1  2 15  1  7  1       -2 0.902241057547D-05 0.100000000000D+01
0.206814736362D-03 0.000000000000D+00 0.000000000000D+00 0.469424773976D-06 0.000000000000D+00  7 -2 2 23 -13 13 23 21 2 0.52407260D-01 0.41387442D+00 0.88657470D+06 0.88657470D+06 0.88657470D+06 0.10513622D+01  1  2 12  1  7  1       -2 0.258198575084D-03 0.100000000000D+01
-.209245885672D-03 0.000000000000D+00 0.000000000000D+00 0.469424773976D-06 0.000000000000D+00  7 -2 2 23 -13 13 23 21 2 0.45289583D-01 0.41387442D+00 0.78046870D+06 0.78046870D+06 0.78046870D+06 0.10551055D+01  1  2  4  1  7  1       -2 -.354763106297D-03 0.100000000000D+01
-.393040320830D-03 0.000000000000D+00 -.695809727449D-04 0.469424773976D-06 0.000000000000D+00  7 -2 2 23 -13 13 23 21 2 0.53355970D-01 0.41387442D+00 0.78046870D+06 0.78046870D+06 0.78046870D+06 0.10551055D+01  1  2  5  1  7  1       -2 -.480645711301D-03 0.100000000000D+01
0.399984538297D-03 0.000000000000D+00 0.686566378138D-04 0.469424773976D-06 0.000000000000D+00  7 -2 2 23 -13 13 23 21 2 0.45289583D-01 0.41387442D+00 0.78046870D+06 0.78046870D+06 0.78046870D+06 0.10551055D+01  1  2  6  1  7  1       -2 0.678148374680D-03 0.100000000000D+01
0.461447652584D-05 0.000000000000D+00 0.000000000000D+00 0.469424773976D-06 0.000000000000D+00  7 21 2 23 -13 13 23 2 2 0.52407260D-01 0.41387442D+00 0.88657470D+06 0.88657470D+06 0.88657470D+06 0.10513622D+01  1  2 12  3  7  1       -2 0.578739281416D-04 0.100000000000D+01
-.906149577170D-05 0.000000000000D+00 -.170434647026D-05 0.469424773976D-06 0.000000000000D+00  7 21 2 23 -13 13 23 2 2 0.53355970D-01 0.41387442D+00 0.78046870D+06 0.78046870D+06 0.78046870D+06 0.10551055D+01  1  2  5  3  7  1       -2 -.111313575541D-03 0.100000000000D+01
  </mgrwgt>
  </event>
  <event>
  8     66 0.53686478E-06 0.24071699E+03 0.75467711E-02 0.98188151E-01
       -2 -1    0    0    0  501 0.00000000E+00 0.00000000E+00 0.10746915E+03 0.10746962E+03 0.32000000E+00 0.0000E+00 0.9000E+01
        2 -1    0    0  501    0 0.00000000E+00 0.00000000E+00 -.10954118E+04 0.10954119E+04 0.32000000E+00 0.0000E+00 0.9000E+01
       25  2    1    2    0    0 0.21987551E+03 -.12445512E+03 -.41905286E+03 0.57380080E+03 0.29967939E+03 0.0000E+00 0.0000E+00
       23  2    1    2    0    0 -.21987551E+03 0.12445512E+03 -.56888981E+03 0.62908069E+03 0.90953715E+02 0.0000E+00 0.0000E+00
       23  1    3    3    0    0 0.19204306E+02 -.13460633E+03 -.23532356E+03 0.28667071E+03 0.91188000E+02 0.0000E+00 0.9000E+01
      -11  1    4    4    0    0 -.45334750E+02 -.12013304E+02 -.94047065E+02 0.10509239E+03 0.51099893E-03 0.0000E+00 0.9000E+01
       11  1    4    4    0    0 -.17454076E+03 0.13646843E+03 -.47484275E+03 0.52398830E+03 0.51099893E-03 0.0000E+00 0.9000E+01
       23  1    3    3    0    0 0.20067120E+03 0.10151204E+02 -.18372930E+03 0.28713009E+03 0.91188000E+02 0.0000E+00 0.9000E+01
#aMCatNLO 1  0  0  2  1 0.80308631D+02 0.00000000D+00  -5  7  0 0.00000000D+00 0.00000000D+00 0.00000000D+00 0.00000000D+00 0.00000000D+00
  <mgrwgt>
 0.2700328764D-03    9    2    0
 0.343108271874848D+03 0.000000000000000D+00 0.000000000000000D+00 0.343108271874848D+03
 0.343108271874848D+03 0.000000000000000D+00 0.000000000000000D+00 -.343108271874848D+03
 0.163716114569103D+03 0.192043064195637D+02 -.134606326008190D+03 0.215497388053983D+00
 0.488192484072742D+02 -.453347499394072D+02 -.120133041912021D+02 -.135558100234622D+02
 0.234879817694983D+03 -.174540758562587D+03 0.136468426624210D+03 -.779770536474546D+02
 0.238801363078336D+03 0.200671202082431D+03 0.101512035751821D+02 0.913173662828629D+02
 0.000000000000000D+00 -.000000000000000D+00 -.000000000000000D+00 -.000000000000000D+00
 0.368673975760197D+03 0.000000000000000D+00 0.000000000000000D+00 0.368673975760197D+03
 0.414876644215581D+03 0.000000000000000D+00 0.000000000000000D+00 -.414876644215581D+03
 0.155719909323710D+03 0.328149469526855D+02 -.121887536824536D+03 0.215497388053983D+00
 0.443160542399480D+02 -.413664087679049D+02 -.830499269430210D+01 -.135558100234622D+02
 0.232462737869135D+03 -.154628065397623D+03 0.155076319899153D+03 -.779770536474546D+02
 0.258401161834035D+03 0.221856179143795D+03 0.299480130235193D+02 0.913173662828629D+02
 0.926507567089502D+02 -.586766519309529D+02 -.548318034038340D+02 -.462026684553844D+02
0.229696860758D-05 0.000000000000D+00 0.000000000000D+00 0.359819026727D-06 0.000000000000D+00  7 -2 2 23 -11 11 23 21 0 0.16533755D-01 0.16852494D+00 0.10654532D+06 0.10654532D+06 0.10654532D+06 0.11194695D+01  1  2  2  2  7  2        2 0.175241403613D-03 0.100000000000D+01
-.127223291375D-06 0.000000000000D+00 -.882096425883D-08 0.359819026727D-06 0.000000000000D+00  7 -2 2 23 -11 11 23 21 2 0.16533755D-01 0.16852494D+00 0.10654532D+06 0.10654532D+06 0.10654532D+06 0.11194695D+01  1  2  3  2  7  2        2 -.121638996469D-04 0.100000000000D+01
0.147618021138D-06 0.000000000000D+00 0.000000000000D+00 0.359819026727D-06 0.000000000000D+00  7 -2 2 23 -11 11 23 21 2 0.16533755D-01 0.16852494D+00 0.10654532D+06 0.10654532D+06 0.10654532D+06 0.11194695D+01  1  2 15  2  7  2        2 0.141138527056D-04 0.100000000000D+01
0.265539972001D-05 0.000000000000D+00 0.000000000000D+00 0.359819026727D-06 0.000000000000D+00  7 -2 2 23 -11 11 23 21 2 0.16533755D-01 0.20907046D+00 0.13650892D+06 0.13650892D+06 0.13650892D+06 0.11107964D+01  1  2 12  2  7  2        2 0.176546073989D-03 0.100000000000D+01
-.270180984947D-05 0.000000000000D+00 0.000000000000D+00 0.359819026727D-06 0.000000000000D+00  7 -2 2 23 -11 11 23 21 2 0.16533755D-01 0.16852494D+00 0.10654532D+06 0.10654532D+06 0.10654532D+06 0.11194695D+01  1  2  4  2  7  2        2 -.258321754756D-03 0.100000000000D+01
-.535776619641D-05 0.000000000000D+00 -.135655166756D-05 0.359819026727D-06 0.000000000000D+00  7 -2 2 23 -11 11 23 21 2 0.16533755D-01 0.21198395D+00 0.10654532D+06 0.10654532D+06 0.10654532D+06 0.11194695D+01  1  2  5  2  7  2        2 -.354746618786D-03 0.100000000000D+01
0.555703653395D-05 0.000000000000D+00 0.132161608603D-05 0.359819026727D-06 0.000000000000D+00  7 -2 2 23 -11 11 23 21 2 0.16533755D-01 0.16852494D+00 0.10654532D+06 0.10654532D+06 0.10654532D+06 0.11194695D+01  1  2  6  2  7  2        2 0.531311790493D-03 0.100000000000D+01
0.804591776454D-07 0.000000000000D+00 0.000000000000D+00 0.359819026727D-06 0.000000000000D+00  7 -2 21 23 -11 11 23 -2 2 0.16533755D-01 0.20907046D+00 0.13650892D+06 0.13650892D+06 0.13650892D+06 0.11107964D+01  1  2 12  4  7  2        2 0.232044351713D-05 0.100000000000D+01
-.150398513728D-06 0.000000000000D+00 -.430731033171D-07 0.359819026727D-06 0.000000000000D+00  7 -2 21 23 -11 11 23 -2 2 0.16533755D-01 0.21198395D+00 0.10654532D+06 0.10654532D+06 0.10654532D+06 0.11194695D+01  1  2  5  4  7  2        2 -.426841472707D-05 0.100000000000D+01
  </mgrwgt>
  </event>
  <event>
  8     66 0.53686478E-06 0.36420136E+03 0.75467711E-02 0.88961892E-01
       -2 -1    0    0    0  501 0.00000000E+00 0.00000000E+00 0.11062433E+03 0.11062480E+03 0.32000000E+00 0.0000E+00 0.9000E+01
        2 -1    0    0  501    0 0.00000000E+00 0.00000000E+00 -.17032521E+04 0.17032521E+04 0.32000000E+00 0.0000E+00 0.9000E+01
       25  2    1    2    0    0 -.33835711E+02 0.32677053E+03 -.12627500E+04 0.13391583E+04 0.30146884E+03 0.0000E+00 0.0000E+00
       23  2    1    2    0    0 0.33835711E+02 -.32677053E+03 -.32987775E+03 0.47471865E+03 0.92815021E+02 0.0000E+00 0.0000E+00
       23  1    3    3    0    0 -.85266959E+02 0.19311880E+03 -.10017087E+04 0.10277650E+04 0.91188000E+02 0.0000E+00 0.9000E+01
      -11  1    4    4    0    0 0.15420219E+02 -.19666306E+03 -.25852666E+03 0.32519252E+03 0.51099893E-03 0.0000E+00 0.9000E+01
       11  1    4    4    0    0 0.18415492E+02 -.13010747E+03 -.71351096E+02 0.14952613E+03 0.51099893E-03 0.0000E+00 0.9000E+01
       23  1    3    3    0    0 0.51431247E+02 0.13365173E+03 -.26104137E+03 0.31139333E+03 0.91188000E+02 0.0000E+00 0.9000E+01
#aMCatNLO 1  0  0  2  1 0.69185158D+03 0.00000000D+00  -5  7  0 0.00000000D+00 0.00000000D+00 0.00000000D+00 0.00000000D+00 0.00000000D+00
  <mgrwgt>
 0.2589076116D-03    5    2    0
 0.434075543306469D+03 0.000000000000000D+00 0.000000000000000D+00 0.434075543306469D+03
 0.434075543306469D+03 0.000000000000000D+00 0.000000000000000D+00 -.434075543306469D+03
 0.309727337942630D+03 -.852669586059824D+02 0.193118800564745D+03 -.207486016790405D+03
 0.205174513515492D+03 0.154202187346321D+02 -.196663060218046D+03 0.564131065991610D+02
 0.181519397011579D+03 0.184154924739995D+02 -.130107471881755D+03 0.125228618490047D+03
 0.171729838143237D+03 0.514312473973507D+02 0.133651731535055D+03 0.258442917011967D+02
 0.000000000000000D+00 0.000000000000000D+00 0.000000000000000D+00 -.000000000000000D+00
 0.683109037431336D+03 0.000000000000000D+00 0.000000000000000D+00 0.683109037431336D+03
 0.148954189357360D+04 0.000000000000000D+00 0.000000000000000D+00 -.148954189357360D+04
 0.379494084148429D+03 -.295118257679542D+03 0.745337197535351D+02 -.207486016790405D+03
 0.328764218852994D+03 -.147151246721665D+03 -.288530732488085D+03 0.564131065991610D+02
 0.270343905190797D+03 -.119165984148050D+03 -.207853526327824D+03 0.125228618490047D+03
 0.131508108398511D+03 -.408973932550537D+02 0.814776474989273D+02 0.258442917011967D+02
 0.106254061441421D+04 0.602332881804311D+03 0.340372891563447D+03 -.806432856142268D+03
0.765051476851D-05 0.000000000000D+00 0.000000000000D+00 0.575637035492D-07 0.000000000000D+00  7 -2 2 23 -11 11 23 21 0 0.17019166D-01 0.26203883D+00 0.13264263D+06 0.13264263D+06 0.13264263D+06 0.11117914D+01  1  2  2  2  7  2        2 0.256059775346D-03 0.100000000000D+01
-.409109749257D-06 0.000000000000D+00 -.293799911379D-07 0.575637035492D-07 0.000000000000D+00  7 -2 2 23 -11 11 23 21 2 0.17019166D-01 0.26203883D+00 0.13264263D+06 0.13264263D+06 0.13264263D+06 0.11117914D+01  1  2  3  2  7  2        2 -.169253295935D-04 0.100000000000D+01
0.477954417823D-06 0.000000000000D+00 0.000000000000D+00 0.575637035492D-07 0.000000000000D+00  7 -2 2 23 -11 11 23 21 2 0.17019166D-01 0.26203883D+00 0.13264263D+06 0.13264263D+06 0.13264263D+06 0.11117914D+01  1  2 15  2  7  2        2 0.197735108171D-04 0.100000000000D+01
-.173506488058D-06 0.000000000000D+00 -.212074816301D-05 0.575637035492D-07 0.000000000000D+00  7 -2 2 23 -11 11 23 21 2 0.17019166D-01 0.91544676D+00 0.13264263D+06 0.13264263D+06 0.13264263D+06 0.11117914D+01  1  2  5  2  7  2        2 -.345208002246D-09 0.100000000000D+01
0.428980913952D-07 0.000000000000D+00 -.310271191880D-06 0.575637035492D-07 0.000000000000D+00  7 -2 21 23 -11 11 23 -2 2 0.17019166D-01 0.91544676D+00 0.13264263D+06 0.13264263D+06 0.13264263D+06 0.11117914D+01  1  2  5  4  7  2        2 0.195871175334D-12 0.100000000000D+01
  </mgrwgt>
  </event>
  <event>
  8     66 0.53686478E-06 0.21377297E+03 0.75467711E-02 0.85542471E-01
       -2 -1    0    0    0  501 0.00000000E+00 0.00000000E+00 0.44384069E+03 0.44384080E+03 0.32000000E+00 0.0000E+00 0.9000E+01
        2 -1    0    0  501    0 0.00000000E+00 0.00000000E+00 -.14219068E+03 0.14219104E+03 0.32000000E+00 0.0000E+00 0.9000E+01
       25  2    1    2    0    0 0.93078747E+02 0.57194690E+02 0.91521916E+02 0.33238691E+03 0.30028305E+03 0.0000E+00 0.0000E+00
       23  2    1    2    0    0 -.93078747E+02 -.57194690E+02 0.21012809E+03 0.25364493E+03 0.90813290E+02 0.0000E+00 0.0000E+00
       23  1    3    3    0    0 0.76147425E+02 -.86141671E+02 0.61172448E+02 0.15898471E+03 0.91188000E+02 0.0000E+00 0.9000E+01
      -13  1    4    4    0    0 -.45493863E+02 -.35854620E+02 0.28266313E+02 0.64453401E+02 0.10565837E+00 0.0000E+00 0.9000E+01
       13  1    4    4    0    0 -.47584884E+02 -.21340070E+02 0.18186177E+03 0.18919153E+03 0.10565837E+00 0.0000E+00 0.9000E+01
       23  1    3    3    0    0 0.16931322E+02 0.14333636E+03 0.30349468E+02 0.17340220E+03 0.91188000E+02 0.0000E+00 0.9000E+01
#aMCatNLO 1  0  0  2  1 0.11732560D+04 0.00000000D+00  -5  7  0 0.00000000D+00 0.00000000D+00 0.00000000D+00 0.00000000D+00 0.00000000D+00
  <mgrwgt>
 0.3208670741D-03    3    2    0
 0.251217335115956D+03 0.000000000000000D+00 0.000000000000000D+00 0.251217335115956D+03
 0.251217335115956D+03 0.000000000000000D+00 0.000000000000000D+00 -.251217335115956D+03
 0.148710740750530D+03 0.761474252400477D+02 -.861416675958821D+02 -.241001204080670D+02
 0.582069232755538D+02 -.454938604584119D+02 -.358546402280531D+02 -.572707184463729D+01
 0.111484533760423D+03 -.475848888009835D+02 -.213400514670089D+02 0.985346732321289D+02
 0.184032472445405D+03 0.169313240193477D+02 0.143336359290944D+03 -.687074809794245D+02
 0.000000000000000D+00 0.000000000000000D+00 -.000000000000000D+00 0.000000000000000D+00
 0.164248200907116D+04 0.000000000000000D+00 0.000000000000000D+00 0.164248200907116D+04
 0.980805512112168D+03 0.000000000000000D+00 0.000000000000000D+00 -.980805512112168D+03
 0.126258090085510D+03 -.839301266019424D+02 -.878642668791343D+00 -.241001204080670D+02
 0.202263693287818D+03 -.197131042387227D+03 0.449127420432124D+02 -.572707184463729D+01
 0.357845629654213D+03 -.320813033738671D+03 0.124191023093652D+03 0.985346732321289D+02
 0.589943737760595D+03 -.433651443987530D+03 0.383332844358443D+03 -.687074809794245D+02
 0.134697637039519D+04 0.103552564671537D+04 -.551557966826516D+03 0.661676496958995D+03
0.506391341140D-05 0.000000000000D+00 0.000000000000D+00 0.214906564355D-06 0.000000000000D+00  7 -2 2 23 -13 13 23 21 0 0.68283219D-01 0.21875526D-01 0.45698882D+05 0.45698882D+05 0.45698882D+05 0.11507474D+01  1  2  2  2  7  2        2 0.316485313262D-03 0.100000000000D+01
-.272417588732D-06 0.000000000000D+00 -.194467608588D-07 0.214906564355D-06 0.000000000000D+00  7 -2 2 23 -13 13 23 21 2 0.68283219D-01 0.21875526D-01 0.45698882D+05 0.45698882D+05 0.45698882D+05 0.11507474D+01  1  2  3  2  7  2        2 -.225456336635D-04 0.100000000000D+01
0.325362151464D-06 0.000000000000D+00 0.000000000000D+00 0.214906564355D-06 0.000000000000D+00  7 -2 2 23 -13 13 23 21 2 0.68283219D-01 0.21875526D-01 0.45698882D+05 0.45698882D+05 0.45698882D+05 0.11507474D+01  1  2 15  2  7  2        2 0.269273944793D-04 0.100000000000D+01
  </mgrwgt>
  </event>
  <event>
  9     66 0.53686478E-06 0.36660304E+03 0.75467711E-02 0.98093278E-01
       21 -1    0    0  502  501 0.00000000E+00 0.00000000E+00 0.12463188E+03 0.12463414E+03 0.75000000E+00 0.0000E+00 0.9000E+01
        2 -1    0    0  501    0 0.00000000E+00 0.00000000E+00 -.23535392E+04 0.23535393E+04 0.32000000E+00 0.0000E+00 0.9000E+01
       25  2    1    2    0    0 0.33504426E+03 0.69418679E+01 -.42060546E+03 0.61586239E+03 0.30012444E+03 0.0000E+00 0.0000E+00
       23  2    1    2    0    0 -.34479551E+03 -.35184570E+00 -.11401461E+04 0.11940515E+04 0.83317245E+02 0.0000E+00 0.0000E+00
       23  1    3    3    0    0 0.19140537E+03 -.15496409E+02 -.38618937E+03 0.44083289E+03 0.91188000E+02 0.0000E+00 0.9000E+01
      -11  1    4    4    0    0 -.33659349E+03 0.84615794E+01 -.10390635E+04 0.10922544E+04 0.51099893E-03 0.0000E+00 0.9000E+01
       11  1    4    4    0    0 -.82020250E+01 -.88134251E+01 -.10108268E+03 0.10179714E+03 0.51099893E-03 0.0000E+00 0.9000E+01
       23  1    3    3    0    0 0.14363889E+03 0.22438277E+02 -.34416093E+02 0.17502950E+03 0.91188000E+02 0.0000E+00 0.9000E+01
        2  1    1    2  502    0 0.97512532E+01 -.65900222E+01 -.66815576E+03 0.66825949E+03 0.32000000E+00 0.0000E+00 0.9000E+01
#aMCatNLO 2  0  0  1  2 0.11769254D+02 0.00000000D+00  -5  7  0 0.00000000D+00 0.00000000D+00 0.00000000D+00 0.00000000D+00 0.00000000D+00
  <mgrwgt>
 0.5974143519D-04    1    2    0
 0.458176905473574D+03 0.000000000000000D+00 0.000000000000000D+00 0.458176905473574D+03
 0.458176905473574D+03 0.000000000000000D+00 0.000000000000000D+00 -.458176905473574D+03
 0.215083367080214D+03 0.193682530123388D+03 -.170353451069999D+02 -.119364145642883D+02
 0.383943934504477D+03 -.332488759198568D+03 0.568755097655718D+01 -.191916183823209D+03
 0.288722615636717D+02 -.789468298198888D+01 -.902113078631567D+01 -.262659602480314D+02
 0.288454247798785D+03 0.146700912057169D+03 0.203689249167584D+02 0.230118558635529D+03
 0.000000000000000D+00 0.000000000000000D+00 -.000000000000000D+00 -.000000000000000D+00
 0.458405302786419D+03 0.000000000000000D+00 0.000000000000000D+00 0.458405302786419D+03
 0.639889332789297D+03 0.000000000000000D+00 0.000000000000000D+00 -.639889332789297D+03
 0.212917549216109D+03 0.191405367541719D+03 -.154964093829173D+02 -.119364145642883D+02
 0.387554636259303D+03 -.336593487974283D+03 0.846157941065766D+01 -.191916183823209D+03
 0.288937769052101D+02 -.820202499057815D+01 -.881342510893590D+01 -.262659602480314D+02
 0.287063425062605D+03 0.143638892187984D+03 0.224382772776634D+02 0.230118558635529D+03
 0.181865248132489D+03 0.975125323515846D+01 -.659002219646784D+01 -.181484030002878D+03
0.310286340798D-06 0.000000000000D+00 0.000000000000D+00 0.317245597802D-07 0.179177981076D-12  7 21 2 23 -11 11 23 2 2 0.19174305D-01 0.36208302D+00 0.13864594D+06 0.13864594D+06 0.13864594D+06 0.11102597D+01  1  2  1  3  7  1       -2 0.597414351893D-04 0.100000000000D+01
  </mgrwgt>
  </event>
  <event>
  9     66 -.53686478E-06 0.26457920E+03 0.75467711E-02 0.10175426E+00
       -2 -1    0    0    0  502 0.00000000E+00 0.00000000E+00 0.10241358E+03 0.10241408E+03 0.32000000E+00 0.0000E+00 0.9000E+01
        2 -1    0    0  501    0 0.00000000E+00 0.00000000E+00 -.22664150E+04 0.22664150E+04 0.32000000E+00 0.0000E+00 0.9000E+01
       25  2    1    2    0    0 0.18661715E+02 0.21191951E+03 -.27767657E+03 0.46100730E+03 0.30027540E+03 0.0000E+00 0.0000E+00
       23  2    1    2    0    0 -.46023301E+02 -.20664599E+03 -.18342359E+04 0.18487431E+04 0.92785533E+02 0.0000E+00 0.0000E+00
       23  1    3    3    0    0 0.95667442E+01 0.20562316E+03 -.73024548E+02 0.23668596E+03 0.91188000E+02 0.0000E+00 0.9000E+01
      -13  1    4    4    0    0 -.11875597E+02 -.20628708E+02 -.61474315E+02 0.65921741E+02 0.10565837E+00 0.0000E+00 0.9000E+01
       13  1    4    4    0    0 -.34147704E+02 -.18601728E+03 -.17727616E+04 0.17828214E+04 0.10565837E+00 0.0000E+00 0.9000E+01
       23  1    3    3    0    0 0.90949704E+01 0.62963511E+01 -.20465202E+03 0.22432134E+03 0.91188000E+02 0.0000E+00 0.9000E+01
       21  1    1    2  501  502 0.27361587E+02 -.52735195E+01 -.52088928E+02 0.59078637E+02 0.75000000E+00 0.0000E+00 0.9000E+01
#aMCatNLO 2  0  0  1  2 0.27865147D+02 0.00000000D+00  -5  7  0 0.00000000D+00 0.00000000D+00 0.00000000D+00 0.00000000D+00 0.00000000D+00
  <mgrwgt>
 -.7246028319D-04    3    2    0
 0.467438860082565D+03 0.000000000000000D+00 0.000000000000000D+00 0.467438860082565D+03
 0.467438860082565D+03 0.000000000000000D+00 0.000000000000000D+00 -.467438860082565D+03
 0.418922645458586D+03 0.218350113538149D+02 0.203258643910071D+03 0.354104627884242D+03
 0.237654535757203D+02 -.111769389837602D+02 -.207631435180425D+02 -.296052189017247D+01
 0.400054782796957D+03 -.224450339602552D+02 -.188273012173814D+03 -.352268821464862D+03
 0.921348383338668D+02 0.117869615902005D+02 0.577751178178499D+01 0.112471547079180D+01
 0.000000000000000D+00 0.000000000000000D+00 -.000000000000000D+00 0.000000000000000D+00
 0.484163620332996D+03 0.000000000000000D+00 0.000000000000000D+00 0.484163620332996D+03
 0.479398867174472D+03 0.000000000000000D+00 0.000000000000000D+00 -.479398867174472D+03
 0.419616188764693D+03 0.956674419831711D+01 0.205623161258192D+03 0.354104627884242D+03
 0.239860075493689D+02 -.118755681446751D+02 -.206284936322886D+02 -.296052189017247D+01
 0.399827338084199D+03 -.341477329306206D+02 -.186017499281526D+03 -.352268821464862D+03
 0.918633705707599D+02 0.909497036588713D+01 0.629635114762197D+01 0.112471547079180D+01
 0.282695825384477D+02 0.273615865110915D+02 -.527351949199950D+01 0.476475315852400D+01
-.114297516473D-04 0.000000000000D+00 0.000000000000D+00 0.950606001948D-06 0.000000000000D+00  7 -2 2 23 -13 13 23 21 2 0.15944456D-01 0.33997693D+00 0.77782214D+05 0.77782214D+05 0.77782214D+05 0.11307881D+01  1  2 13  1  7  1       -2 -.294905266702D-03 0.100000000000D+01
-.487827377335D-05 0.000000000000D+00 0.000000000000D+00 0.950606001948D-06 0.000000000000D+00  7 -2 2 23 -13 13 23 21 2 0.15211550D-01 0.33997693D+00 0.70002154D+05 0.70002154D+05 0.70002154D+05 0.11346585D+01  1  2  8  1  7  1       -2 -.137145747366D-03 0.100000000000D+01
0.146831050912D-04 0.000000000000D+00 0.000000000000D+00 0.950606001948D-06 0.835312388595D-08  7 -2 2 23 -13 13 23 21 2 0.15755813D-01 0.34867567D+00 0.77782214D+05 0.77782214D+05 0.77782214D+05 0.11307881D+01  1  2  1  1  7  1       -2 0.359590730879D-03 0.100000000000D+01
  </mgrwgt>
  </event>
  <event>
  8     66 0.53686478E-06 0.12355102E+03 0.75467711E-02 0.98055869E-01
       -2 -1    0    0    0  501 0.00000000E+00 0.00000000E+00 0.10976280E+03 0.10976327E+03 0.32000000E+00 0.0000E+00 0.9000E+01
        2 -1    0    0  501    0 0.00000000E+00 0.00000000E+00 -.21401243E+04 0.21401243E+04 0.32000000E+00 0.0000E+00 0.9000E+01
       25  2    1    2    0    0 -.37215900E+02 -.29873477E+03 -.38100529E+03 0.57071508E+03 0.29987194E+03 0.0000E+00 0.0000E+00
       23  2    1    2    0    0 0.37215900E+02 0.29873477E+03 -.16493562E+04 0.16791725E+04 0.92827510E+02 0.0000E+00 0.0000E+00
       23  1    3    3    0    0 -.13458101E+03 -.18313956E+03 -.25705344E+03 0.35502657E+03 0.91188000E+02 0.0000E+00 0.9000E+01
      -11  1    4    4    0    0 0.14340706E+02 0.24722500E+03 -.11328982E+04 0.11596483E+04 0.51099893E-03 0.0000E+00 0.9000E+01
       11  1    4    4    0    0 0.22875194E+02 0.51509770E+02 -.51645805E+03 0.51952425E+03 0.51099893E-03 0.0000E+00 0.9000E+01
       23  1    3    3    0    0 0.97365110E+02 -.11559521E+03 -.12395185E+03 0.21568851E+03 0.91188000E+02 0.0000E+00 0.9000E+01
#aMCatNLO 1  0  0  2  1 0.22934987D+02 0.00000000D+00  -5  7  0 0.00000000D+00 0.00000000D+00 0.00000000D+00 0.00000000D+00 0.00000000D+00
  <mgrwgt>
 0.1641715697D-03    6    2    0
 0.484671636198960D+03 0.000000000000000D+00 0.000000000000000D+00 0.484671636198960D+03
 0.484671636198960D+03 0.000000000000000D+00 0.000000000000000D+00 -.484671636198960D+03
 0.285614489866445D+03 -.134581010716253D+03 -.183139561046755D+03 0.146997408861054D+03
 0.318654343128364D+03 0.143407060688529D+02 0.247225004626791D+03 -.200536110541966D+03
 0.124078468453530D+03 0.228751941950803D+02 0.515097701845708D+02 -.110539293465463D+03
 0.240995970949581D+03 0.973651104523194D+02 -.115595213764607D+03 0.164077995146375D+03
 0.000000000000000D+00 0.000000000000000D+00 0.000000000000000D+00 0.000000000000000D+00
 0.496536336764708D+03 0.000000000000000D+00 0.000000000000000D+00 0.496536336764708D+03
 0.496019042620345D+03 0.000000000000000D+00 0.000000000000000D+00 -.496019042620345D+03
 0.290521287417798D+03 -.135783065965471D+03 -.189847538525121D+03 0.146997408861054D+03
 0.312925962674697D+03 0.130229708199296D+02 0.239871483748297D+03 -.200536110541966D+03
 0.122818096989431D+03 0.223600668167676D+02 0.486351412068595D+02 -.110539293465463D+03
 0.243349212101970D+03 0.963545679852903D+02 -.121234468794003D+03 0.164077995146375D+03
 0.229408202011576D+02 0.404546034348312D+01 0.225753823639679D+02 0.517294144362420D+00
0.635150510401D-05 0.000000000000D+00 0.000000000000D+00 0.564470278127D-06 0.000000000000D+00  7 -2 2 23 -11 11 23 21 0 0.16886623D-01 0.32924993D+00 0.13155075D+06 0.13155075D+06 0.13155075D+06 0.11120781D+01  1  2  2  2  7  2        2 0.125144868523D-03 0.100000000000D+01
-.316805607353D-06 0.000000000000D+00 -.243914519891D-07 0.564470278127D-06 0.000000000000D+00  7 -2 2 23 -11 11 23 21 2 0.16886623D-01 0.32924993D+00 0.13155075D+06 0.13155075D+06 0.13155075D+06 0.11120781D+01  1  2  3  2  7  2        2 -.771968984598D-05 0.100000000000D+01
0.401716175176D-06 0.000000000000D+00 0.000000000000D+00 0.564470278127D-06 0.000000000000D+00  7 -2 2 23 -11 11 23 21 2 0.16886623D-01 0.32924993D+00 0.13155075D+06 0.13155075D+06 0.13155075D+06 0.11120781D+01  1  2 15  2  7  2        2 0.978872913387D-05 0.100000000000D+01
0.959766272094D-05 0.000000000000D+00 0.000000000000D+00 0.564470278127D-06 0.000000000000D+00  7 -2 2 23 -11 11 23 21 2 0.16886623D-01 0.34089325D+00 0.13949893D+06 0.13949893D+06 0.13949893D+06 0.11100479D+01  1  2 12  2  7  2        2 0.211290954418D-03 0.100000000000D+01
-.717518266253D-05 0.000000000000D+00 0.000000000000D+00 0.564470278127D-06 0.000000000000D+00  7 -2 2 23 -11 11 23 21 2 0.16886623D-01 0.32924993D+00 0.13155075D+06 0.13155075D+06 0.13155075D+06 0.11120781D+01  1  2  4  2  7  2        2 -.174839660212D-03 0.100000000000D+01
0.139795394988D-06 0.000000000000D+00 0.000000000000D+00 0.564470278127D-06 0.000000000000D+00  7 -2 21 23 -11 11 23 -2 2 0.16886623D-01 0.34089325D+00 0.13949893D+06 0.13949893D+06 0.13949893D+06 0.11100479D+01  1  2 12  4  7  2        2 0.506367698463D-06 0.100000000000D+01
  </mgrwgt>
  </event>
  <event>
  8     66 0.53686478E-06 0.22622531E+03 0.75467711E-02 0.10039665E+00
       -2 -1    0    0    0  501 0.00000000E+00 0.00000000E+00 0.42594883E+03 0.42594895E+03 0.32000000E+00 0.0000E+00 0.9000E+01
        2 -1    0    0  501    0 0.00000000E+00 0.00000000E+00 -.79377058E+03 0.79377065E+03 0.32000000E+00 0.0000E+00 0.9000E+01
       25  2    1    2    0    0 -.66780674E+02 -.94459323E+02 -.74659775E+03 0.81305826E+03 0.30045518E+03 0.0000E+00 0.0000E+00
       23  2    1    2    0    0 0.66780674E+02 0.94459323E+02 0.37877599E+03 0.40666134E+03 0.92303673E+02 0.0000E+00 0.0000E+00
       23  1    3    3    0    0 -.97161093E+02 0.53092617E+02 -.28620109E+03 0.32013344E+03 0.91188000E+02 0.0000E+00 0.9000E+01
      -11  1    4    4    0    0 0.71954479E+02 0.48745375E+02 0.32233131E+03 0.33384283E+03 0.51099893E-03 0.0000E+00 0.9000E+01
       11  1    4    4    0    0 -.51738042E+01 0.45713948E+02 0.56444678E+02 0.72818506E+02 0.51099893E-03 0.0000E+00 0.9000E+01
       23  1    3    3    0    0 0.30380419E+02 -.14755194E+03 -.46039666E+03 0.49292482E+03 0.91188000E+02 0.0000E+00 0.9000E+01
#aMCatNLO 1  0  0  1  2 0.13056331D+03 0.00000000D+00  -5  7  0 0.00000000D+00 0.00000000D+00 0.00000000D+00 0.00000000D+00 0.00000000D+00
  <mgrwgt>
 0.3961126032D-03    4    2    0
 0.581468625218855D+03 0.000000000000000D+00 0.000000000000000D+00 0.581468625218855D+03
 0.581468625218855D+03 0.000000000000000D+00 0.000000000000000D+00 -.581468625218855D+03
 0.245242848872245D+03 -.971610934805352D+02 0.530926173223039D+02 -.198921339927391D+03
 0.452092415518451D+03 0.719544786034435D+02 0.487453747682546D+02 0.443659772367202D+03
 0.942267003303774D+02 -.517380419242407D+01 0.457139477474877D+02 0.822322186656129D+02
 0.371375285716637D+03 0.303804190695158D+02 -.147551939838046D+03 -.326970651105423D+03
 0.000000000000000D+00 -.000000000000000D+00 0.000000000000000D+00 -.000000000000000D+00
 0.616009320577730D+03 0.000000000000000D+00 0.000000000000000D+00 0.616009320577730D+03
 0.723096143897992D+03 0.000000000000000D+00 0.000000000000000D+00 -.723096143897992D+03
 0.234451253077557D+03 -.721758140384743D+02 0.432792226710638D+02 -.198921339927391D+03
 0.460451194665551D+03 0.119485096576104D+03 0.300769138745242D+02 0.443659772367202D+03
 0.924017578488662D+02 0.454689939866851D+01 0.418959756152036D+02 0.822322186656129D+02
 0.382939284879705D+03 0.696695415685454D+02 -.162983412817085D+03 -.326970651105423D+03
 0.168861974004043D+03 -.121525723504843D+03 0.477313006562934D+02 -.107086823320262D+03
0.471161178381D-04 0.000000000000D+00 0.000000000000D+00 0.140578065650D-05 0.000000000000D+00  7 -2 2 23 -11 11 23 21 0 0.65530603D-01 0.12211857D+00 0.51177893D+05 0.51177893D+05 0.51177893D+05 0.11464070D+01  1  2  2  1  7  1       -2 0.468765501209D-03 0.100000000000D+01
0.218697567750D-06 0.000000000000D+00 -.180938298457D-06 0.140578065650D-05 0.000000000000D+00  7 -2 2 23 -11 11 23 21 2 0.65530603D-01 0.12211857D+00 0.51177893D+05 0.51177893D+05 0.51177893D+05 0.11464070D+01  1  2  3  1  7  1       -2 0.285961607769D-05 0.100000000000D+01
0.286607749796D-05 0.000000000000D+00 0.000000000000D+00 0.140578065650D-05 0.000000000000D+00  7 -2 2 23 -11 11 23 21 2 0.65530603D-01 0.12211857D+00 0.51177893D+05 0.51177893D+05 0.51177893D+05 0.11464070D+01  1  2 15  1  7  1       -2 0.374758685129D-04 0.100000000000D+01
-.864111956984D-05 0.000000000000D+00 0.000000000000D+00 0.140578065650D-05 0.000000000000D+00  7 -2 2 23 -11 11 23 21 2 0.65530603D-01 0.12211857D+00 0.51177893D+05 0.51177893D+05 0.51177893D+05 0.11464070D+01  1  2  4  1  7  1       -2 -.112988382566D-03 0.100000000000D+01
  </mgrwgt>
  </event>
  <event>
  8     66 0.53686478E-06 0.31361487E+03 0.75467711E-02 0.90743659E-01
       -2 -1    0    0    0  501 0.00000000E+00 0.00000000E+00 0.77454575E+02 0.77455236E+02 0.32000000E+00 0.0000E+00 0.9000E+01
        2 -1    0    0  501    0 0.00000000E+00 0.00000000E+00 -.14240631E+04 0.14240631E+04 0.32000000E+00 0.0000E+00 0.9000E+01
       25  2    1    2    0    0 -.12394669E+03 -.21384167E+03 -.65326770E+03 0.75978851E+03 0.29904656E+03 0.0000E+00 0.0000E+00
       23  2    1    2    0    0 0.12394669E+03 0.21384167E+03 -.69334084E+03 0.74172988E+03 0.91381901E+02 0.0000E+00 0.0000E+00
       23  1    3    3    0    0 -.84761579E+02 -.24428114E+03 -.54328437E+03 0.60854824E+03 0.91188000E+02 0.0000E+00 0.9000E+01
      -13  1    4    4    0    0 0.87625190E+02 0.11979171E+03 -.28745456E+03 0.32350945E+03 0.10565837E+00 0.0000E+00 0.9000E+01
       13  1    4    4    0    0 0.36321499E+02 0.94049968E+02 -.40588628E+03 0.41822043E+03 0.10565837E+00 0.0000E+00 0.9000E+01
       23  1    3    3    0    0 -.39185110E+02 0.30439470E+02 -.10998333E+03 0.15124027E+03 0.91188000E+02 0.0000E+00 0.9000E+01
#aMCatNLO 1  0  0  1  2 0.58381072D+03 0.00000000D+00  -5  7  0 0.00000000D+00 0.00000000D+00 0.00000000D+00 0.00000000D+00 0.00000000D+00
  <mgrwgt>
 0.2737460704D-03    5    2    0
 0.332115532210431D+03 0.000000000000000D+00 0.000000000000000D+00 0.332115532210431D+03
 0.332115532210431D+03 0.000000000000000D+00 0.000000000000000D+00 -.332115532210431D+03
 0.274234389156103D+03 -.847615793825319D+02 -.244281144511734D+03 0.560766871673542D+01
 0.148542646507421D+03 0.876252581867990D+02 0.119791740944498D+03 0.605563874513874D+01
 0.122541268424598D+03 0.363214311637360D+02 0.940499335234472D+02 -.696543330279075D+02
 0.118912760332740D+03 -.391851099680031D+02 0.304394700437894D+02 0.579910255660333D+02
 0.000000000000000D+00 -.000000000000000D+00 0.000000000000000D+00 0.000000000000000D+00
 0.106084443362456D+04 0.000000000000000D+00 0.000000000000000D+00 0.106084443362456D+04
 0.579891221133726D+03 0.000000000000000D+00 0.000000000000000D+00 -.579891221133726D+03
 0.491445805534763D+03 0.893199507003113D+02 -.474546340089321D+03 0.560766871673542D+01
 0.160220972099293D+03 0.157824335469545D+03 0.269363745412660D+02 0.605563874513874D+01
 0.116458403198248D+03 0.906592980876674D+02 0.221748784928902D+02 -.696543330279075D+02
 0.116203868370637D+03 0.142699261637963D+02 -.402678263801226D+02 0.579910255660333D+02
 0.756406605555344D+03 -.352073510421320D+03 0.465702913435287D+03 0.480953212490833D+03
0.300754896522D-05 0.000000000000D+00 0.000000000000D+00 0.167244403138D-06 0.000000000000D+00  7 -2 2 23 -13 13 23 21 0 0.11916142D-01 0.21908669D+00 0.98354286D+05 0.98354286D+05 0.98354286D+05 0.11223139D+01  1  2  2  1  7  1       -2 0.252686739011D-03 0.100000000000D+01
-.166418645309D-06 0.000000000000D+00 -.115497799323D-07 0.167244403138D-06 0.000000000000D+00  7 -2 2 23 -13 13 23 21 2 0.11916142D-01 0.21908669D+00 0.98354286D+05 0.98354286D+05 0.98354286D+05 0.11223139D+01  1  2  3  1  7  1       -2 -.176116653247D-04 0.100000000000D+01
0.183219807637D-06 0.000000000000D+00 0.000000000000D+00 0.167244403138D-06 0.000000000000D+00  7 -2 2 23 -13 13 23 21 2 0.11916142D-01 0.21908669D+00 0.98354286D+05 0.98354286D+05 0.98354286D+05 0.11223139D+01  1  2 15  1  7  1       -2 0.193896899412D-04 0.100000000000D+01
0.155857394359D-05 0.000000000000D+00 -.138370758087D-05 0.167244403138D-06 0.000000000000D+00  7 -2 2 23 -13 13 23 21 2 0.69187517D-01 0.21908669D+00 0.98354286D+05 0.98354286D+05 0.98354286D+05 0.11223139D+01  1  2  5  1  7  1       -2 0.721143627856D-05 0.100000000000D+01
0.256388972988D-06 0.000000000000D+00 -.298205363345D-06 0.167244403138D-06 0.000000000000D+00  7 21 2 23 -13 13 23 2 2 0.69187517D-01 0.21908669D+00 0.98354286D+05 0.98354286D+05 0.98354286D+05 0.11223139D+01  1  2  5  3  7  1       -2 0.120698705414D-04 0.100000000000D+01
  </mgrwgt>
  </event>
  <event>
  8     66 -.53686478E-06 0.17314543E+03 0.75467711E-02 0.10342336E+00
       -2 -1    0    0    0  501 0.00000000E+00 0.00000000E+00 0.76398852E+02 0.76399522E+02 0.32000000E+00 0.0000E+00 0.9000E+01
        2 -1    0    0  501    0 0.00000000E+00 0.00000000E+00 -.11265024E+04 0.11265024E+04 0.32000000E+00 0.0000E+00 0.9000E+01
       25  2    1    2    0    0 0.11326068E+03 0.10802628E+03 -.38121310E+03 0.50967346E+03 0.29990990E+03 0.0000E+00 0.0000E+00
       23  2    1    2    0    0 -.11326068E+03 -.10802628E+03 -.66889040E+03 0.69322847E+03 0.93025135E+02 0.0000E+00 0.0000E+00
       23  1    3    3    0    0 0.36593189E+02 -.66615088E+02 -.86073629E+02 0.14663067E+03 0.91188000E+02 0.0000E+00 0.9000E+01
      -13  1    4    4    0    0 -.76890799E+02 -.60144778E+02 -.56348901E+03 0.57188238E+03 0.10565837E+00 0.0000E+00 0.9000E+01
       13  1    4    4    0    0 -.36369877E+02 -.47881499E+02 -.10540140E+03 0.12134608E+03 0.10565837E+00 0.0000E+00 0.9000E+01
       23  1    3    3    0    0 0.76667486E+02 0.17464136E+03 -.29513947E+03 0.36304279E+03 0.91188000E+02 0.0000E+00 0.9000E+01
#aMCatNLO 1  0  0  1  2 0.40303594D+01 0.00000000D+00  -5  7  0 0.00000000D+00 0.00000000D+00 0.00000000D+00 0.00000000D+00 0.00000000D+00
  <mgrwgt>
 -.3301278768D-04    9    2    0
 0.293366523579714D+03 0.000000000000000D+00 0.000000000000000D+00 0.293366523579714D+03
 0.293366523579714D+03 0.000000000000000D+00 0.000000000000000D+00 -.293366523579714D+03
 0.146567663727922D+03 0.365931900660527D+02 -.666150872391624D+02 0.859662567497845D+02
 0.163953126597165D+03 -.768908536648787D+02 -.601447986922172D+02 -.131723299130963D+03
 0.601380451981185D+02 -.363698240690117D+02 -.478814801574407D+02 0.108822579122310D+01
 0.216074211636221D+03 0.766674876678378D+02 0.174641366088820D+03 0.446688165899549D+02
 0.000000000000000D+00 0.000000000000000D+00 0.000000000000000D+00 0.000000000000000D+00
 0.638320878202941D+03 0.000000000000000D+00 0.000000000000000D+00 0.638320878202941D+03
 0.293385217448839D+03 0.000000000000000D+00 0.000000000000000D+00 -.293385217448839D+03
 0.146961849579671D+03 0.363704048114035D+02 -.675983005863504D+02 0.859662567497845D+02
 0.164476644032165D+03 -.771401277813365D+02 -.612449147604719D+02 -.131723299130963D+03
 0.605154467804303D+02 -.364613985707777D+02 -.482856239260227D+02 0.108822579122310D+01
 0.214792949182897D+03 0.763404648446082D+02 0.173198123334084D+03 0.446688165899549D+02
 0.344959206076618D+03 0.890656696102437D+00 0.393071593876070D+01 0.344935660754102D+03
0.171132312804D-06 0.000000000000D+00 0.000000000000D+00 0.157777960510D-06 0.000000000000D+00  7 -2 2 23 -13 13 23 21 0 0.11753725D-01 0.17330811D+00 0.59502755D+05 0.59502755D+05 0.59502755D+05 0.11407073D+01  1  2  2  1  7  1       -2 0.215872203761D-04 0.100000000000D+01
-.911371642341D-08 0.000000000000D+00 -.657193141339D-09 0.157777960510D-06 0.000000000000D+00  7 -2 2 23 -13 13 23 21 2 0.11753725D-01 0.17330811D+00 0.59502755D+05 0.59502755D+05 0.59502755D+05 0.11407073D+01  1  2  3  1  7  1       -2 -.149592092903D-05 0.100000000000D+01
0.106139107246D-07 0.000000000000D+00 0.000000000000D+00 0.157777960510D-06 0.000000000000D+00  7 -2 2 23 -13 13 23 21 2 0.11753725D-01 0.17330811D+00 0.59502755D+05 0.59502755D+05 0.59502755D+05 0.11407073D+01  1  2 15  1  7  1       -2 0.174216208341D-05 0.100000000000D+01
0.390242646982D-04 0.000000000000D+00 0.000000000000D+00 0.157777960510D-06 0.000000000000D+00  7 -2 2 23 -13 13 23 21 2 0.25574224D-01 0.17330811D+00 0.60595952D+05 0.60595952D+05 0.60595952D+05 0.11400247D+01  1  2 12  1  7  1       -2 0.181732778360D-02 0.100000000000D+01
-.358023224018D-03 0.000000000000D+00 -.531724067111D-07 0.157777960510D-06 0.000000000000D+00  7 -2 2 23 -13 13 23 21 2 0.25574816D-01 0.17330811D+00 0.59502755D+05 0.59502755D+05 0.59502755D+05 0.11407073D+01  1  2  5  1  7  1       -2 -.166978961522D-01 0.100000000000D+01
0.319055552153D-03 0.000000000000D+00 0.000000000000D+00 0.157777960510D-06 0.887151772884D-07  7 -2 2 23 -13 13 23 21 2 0.25574315D-01 0.17331915D+00 0.60595952D+05 0.60595952D+05 0.60595952D+05 0.11400247D+01  1  2 11  1  7  1       -2 0.148566539378D-01 0.100000000000D+01
0.328593894653D-05 0.000000000000D+00 0.000000000000D+00 0.157777960510D-06 0.000000000000D+00  7 21 2 23 -13 13 23 2 2 0.25574224D-01 0.17330811D+00 0.60595952D+05 0.60595952D+05 0.60595952D+05 0.11400247D+01  1  2 12  3  7  1       -2 0.189756609267D-02 0.100000000000D+01
-.301440350237D-04 0.000000000000D+00 -.447738682856D-08 0.157777960510D-06 0.000000000000D+00  7 21 2 23 -13 13 23 2 2 0.25574816D-01 0.17330811D+00 0.59502755D+05 0.59502755D+05 0.59502755D+05 0.11407073D+01  1  2  5  3  7  1       -2 -.174420934036D-01 0.100000000000D+01
0.268669996895D-04 0.000000000000D+00 0.000000000000D+00 0.157777960510D-06 0.747051445891D-08  7 21 2 23 -13 13 23 2 2 0.25574315D-01 0.17331915D+00 0.60595952D+05 0.60595952D+05 0.60595952D+05 0.11400247D+01  1  2 11  3  7  1       -2 0.155135954926D-01 0.100000000000D+01
  </mgrwgt>
  </event>
  <event>
  8     66 0.53686478E-06 0.14775949E+03 0.75467711E-02 0.10102738E+00
       -2 -1    0    0    0  501 0.00000000E+00 0.00000000E+00 0.30113796E+03 0.30113813E+03 0.32000000E+00 0.0000E+00 0.9000E+01
        2 -1    0    0  501    0 0.00000000E+00 0.00000000E+00 -.55442479E+03 0.55442488E+03 0.32000000E+00 0.0000E+00 0.9000E+01
       25  2    1    2    0    0 -.48318696E+02 -.18591195E+03 -.44461909E+03 0.56993922E+03 0.30041078E+03 0.0000E+00 0.0000E+00
       23  2    1    2    0    0 0.48318696E+02 0.18591195E+03 0.19133226E+03 0.28562379E+03 0.89860812E+02 0.0000E+00 0.0000E+00
       23  1    3    3    0    0 0.95710990E+02 -.91789449E+02 -.22152292E+03 0.27381299E+03 0.91188000E+02 0.0000E+00 0.9000E+01
      -13  1    4    4    0    0 0.41632825E+02 0.17691654E+03 0.13045029E+03 0.22371867E+03 0.10565837E+00 0.0000E+00 0.9000E+01
       13  1    4    4    0    0 0.66858715E+01 0.89954092E+01 0.60881968E+02 0.61905116E+02 0.10565837E+00 0.0000E+00 0.9000E+01
       23  1    3    3    0    0 -.14402969E+03 -.94122503E+02 -.22309617E+03 0.29612624E+03 0.91188000E+02 0.0000E+00 0.9000E+01
#aMCatNLO 1  0  0  2  1 0.39287596D+02 0.00000000D+00  -5  7  0 0.00000000D+00 0.00000000D+00 0.00000000D+00 0.00000000D+00 0.00000000D+00
  <mgrwgt>
 0.3290719888D-03    9    2    0
 0.408605510806150D+03 0.000000000000000D+00 0.000000000000000D+00 0.408605510806150D+03
 0.408605510806150D+03 0.000000000000000D+00 0.000000000000000D+00 -.408605510806150D+03
 0.218004189268839D+03 0.957109895004222D+02 -.917894494456830D+02 -.147053319085535D+03
 0.274649966982899D+03 0.416328731402408D+02 0.176916774960572D+03 0.205912027272198D+03
 0.836798707271650D+02 0.668582323915068D+01 0.899517717597480D+01 0.829259146473688D+02
 0.240876994633398D+03 -.144029685879814D+03 -.941225026908633D+02 -.141784622834032D+03
 0.000000000000000D+00 -.000000000000000D+00 0.000000000000000D+00 -.000000000000000D+00
 0.420018993274247D+03 0.000000000000000D+00 0.000000000000000D+00 0.420018993274247D+03
 0.444344668974944D+03 0.000000000000000D+00 0.000000000000000D+00 -.444344668974944D+03
 0.224523898153860D+03 0.104599731377570D+03 -.976214476427845D+02 -.147053319085535D+03
 0.271974835990886D+03 0.526125305119995D+02 0.169712904842404D+03 0.205912027272198D+03
 0.838080296175116D+02 0.100500316499205D+02 0.678788421399507D+01 0.829259146473688D+02
 0.237848092657079D+03 -.134413881025882D+03 -.100431534649141D+03 -.141784622834032D+03
 0.462088058298540D+02 -.328484125136081D+02 0.215521932355262D+02 -.243256757006978D+02
0.681769303078D-05 0.000000000000D+00 0.000000000000D+00 0.405106578109D-06 0.000000000000D+00  7 -2 2 23 -13 13 23 21 0 0.46328937D-01 0.85296142D-01 0.75246824D+05 0.75246824D+05 0.75246824D+05 0.11320008D+01  1  2  2  2  7  2        2 0.205106178440D-03 0.100000000000D+01
-.305634713508D-06 0.000000000000D+00 -.261817363780D-07 0.405106578109D-06 0.000000000000D+00  7 -2 2 23 -13 13 23 21 2 0.46328937D-01 0.85296142D-01 0.75246824D+05 0.75246824D+05 0.75246824D+05 0.11320008D+01  1  2  3  2  7  2        2 -.117824993085D-04 0.100000000000D+01
0.429655061716D-06 0.000000000000D+00 0.000000000000D+00 0.405106578109D-06 0.000000000000D+00  7 -2 2 23 -13 13 23 21 2 0.46328937D-01 0.85296142D-01 0.75246824D+05 0.75246824D+05 0.75246824D+05 0.11320008D+01  1  2 15  2  7  2        2 0.165635977978D-04 0.100000000000D+01
0.204662022198D-04 0.000000000000D+00 0.000000000000D+00 0.405106578109D-06 0.000000000000D+00  7 -2 2 23 -13 13 23 21 2 0.46328937D-01 0.93875359D-01 0.86945262D+05 0.86945262D+05 0.86945262D+05 0.11267420D+01  1  2 12  2  7  2        2 0.699096937439D-03 0.100000000000D+01
-.203191936717D-04 0.000000000000D+00 0.000000000000D+00 0.405106578109D-06 0.000000000000D+00  7 -2 2 23 -13 13 23 21 2 0.46328937D-01 0.85296142D-01 0.75246824D+05 0.75246824D+05 0.75246824D+05 0.11320008D+01  1  2  4  2  7  2        2 -.783323604310D-03 0.100000000000D+01
-.456927990972D-04 0.000000000000D+00 -.903063029187D-05 0.405106578109D-06 0.000000000000D+00  7 -2 2 23 -13 13 23 21 2 0.46328937D-01 0.94615132D-01 0.75246824D+05 0.75246824D+05 0.75246824D+05 0.11320008D+01  1  2  5  2  7  2        2 -.156501354299D-02 0.100000000000D+01
0.464276962310D-04 0.000000000000D+00 0.898230156142D-05 0.405106578109D-06 0.000000000000D+00  7 -2 2 23 -13 13 23 21 2 0.46328937D-01 0.85296142D-01 0.75246824D+05 0.75246824D+05 0.75246824D+05 0.11320008D+01  1  2  6  2  7  2        2 0.178983039086D-02 0.100000000000D+01
0.320399927489D-06 0.000000000000D+00 0.000000000000D+00 0.405106578109D-06 0.000000000000D+00  7 -2 21 23 -13 13 23 -2 2 0.46328937D-01 0.93875359D-01 0.86945262D+05 0.86945262D+05 0.86945262D+05 0.11267420D+01  1  2 12  4  7  2        2 0.166394402856D-04 0.100000000000D+01
-.733816251542D-06 0.000000000000D+00 -.151327982578D-06 0.405106578109D-06 0.000000000000D+00  7 -2 21 23 -13 13 23 -2 2 0.46328937D-01 0.94615132D-01 0.75246824D+05 0.75246824D+05 0.75246824D+05 0.11320008D+01  1  2  5  4  7  2        2 -.380449094291D-04 0.100000000000D+01
  </mgrwgt>
  </event>
  <event>
  8     66 0.53686478E-06 0.32084906E+03 0.75467711E-02 0.95510013E-01
       -2 -1    0    0    0  501 0.00000000E+00 0.00000000E+00 0.72904485E+02 0.72905188E+02 0.32000000E+00 0.0000E+00 0.9000E+01
        2 -1    0    0  501    0 0.00000000E+00 0.00000000E+00 -.24187683E+04 0.24187684E+04 0.32000000E+00 0.0000E+00 0.9000E+01
       25  2    1    2    0    0 -.23043476E+03 0.10855949E+03 -.55710982E+03 0.68252873E+03 0.30097971E+03 0.0000E+00 0.0000E+00
       23  2    1    2    0    0 0.23043476E+03 -.10855949E+03 -.17887540E+04 0.18091448E+04 0.92079390E+02 0.0000E+00 0.0000E+00
       23  1    3    3    0    0 -.16574235E+02 -.46896540E+02 -.86885948E+02 0.13541939E+03 0.91188000E+02 0.0000E+00 0.9000E+01
      -11  1    4    4    0    0 0.22058308E+03 -.92246523E+02 -.14271970E+04 0.14470859E+04 0.51099893E-03 0.0000E+00 0.9000E+01
       11  1    4    4    0    0 0.98516748E+01 -.16312968E+02 -.36155705E+03 0.36205893E+03 0.51099893E-03 0.0000E+00 0.9000E+01
       23  1    3    3    0    0 -.21386052E+03 0.15545603E+03 -.47022387E+03 0.54710935E+03 0.91188000E+02 0.0000E+00 0.9000E+01
#aMCatNLO 1  0  0  1  2 0.24262319D+03 0.00000000D+00  -5  7  0 0.00000000D+00 0.00000000D+00 0.00000000D+00 0.00000000D+00 0.00000000D+00
  <mgrwgt>
 0.4310930365D-03    4    2    0
 0.419928521190380D+03 0.000000000000000D+00 0.000000000000000D+00 0.419928521190380D+03
 0.419928521190380D+03 0.000000000000000D+00 0.000000000000000D+00 -.419928521190380D+03
 0.159072663601858D+03 -.165742346631237D+02 -.468965396960261D+02 0.120477675406113D+03
 0.306785303212207D+03 0.220583081516581D+03 -.922465232349671D+02 -.192226182833442D+03
 0.642597976025195D+02 0.985167480586541D+01 -.163129682755129D+02 -.613689918238711D+02
 0.309739277964176D+03 -.213860521659323D+03 0.155456031206506D+03 0.133117499251200D+03
 0.000000000000000D+00 0.000000000000000D+00 0.000000000000000D+00 -.000000000000000D+00
 0.513861746568363D+03 0.000000000000000D+00 0.000000000000000D+00 0.513861746568363D+03
 0.628816856173009D+03 0.000000000000000D+00 0.000000000000000D+00 -.628816856173009D+03
 0.176565616282691D+03 -.575443300847557D+02 -.709503017126949D+02 0.120477675406113D+03
 0.277869878958202D+03 0.149216434629603D+03 -.134146263093533D+03 -.192226182833442D+03
 0.668191619212007D+02 -.614863803479840D+01 -.257068374696366D+02 -.613689918238711D+02
 0.352945471720298D+03 -.294751942740292D+03 0.107964245506529D+03 0.133117499251200D+03
 0.268478473858980D+03 0.209228476230243D+03 0.122839156769336D+03 -.114955109604646D+03
0.188863182405D-04 0.000000000000D+00 0.000000000000D+00 0.190888860775D-06 0.000000000000D+00  7 -2 2 23 -11 11 23 21 0 0.11216130D-01 0.37211826D+00 0.10294412D+06 0.10294412D+06 0.10294412D+06 0.11206894D+01  1  2  2  1  7  1       -2 0.504050875648D-03 0.100000000000D+01
-.956849269210D-06 0.000000000000D+00 -.725284349255D-07 0.190888860775D-06 0.000000000000D+00  7 -2 2 23 -11 11 23 21 2 0.11216130D-01 0.37211826D+00 0.10294412D+06 0.10294412D+06 0.10294412D+06 0.11206894D+01  1  2  3  1  7  1       -2 -.320731143808D-04 0.100000000000D+01
0.120949039509D-05 0.000000000000D+00 0.000000000000D+00 0.190888860775D-06 0.000000000000D+00  7 -2 2 23 -11 11 23 21 2 0.11216130D-01 0.37211826D+00 0.10294412D+06 0.10294412D+06 0.10294412D+06 0.11206894D+01  1  2 15  1  7  1       -2 0.405415199995D-04 0.100000000000D+01
-.242921974827D-05 0.000000000000D+00 0.000000000000D+00 0.190888860775D-06 0.000000000000D+00  7 -2 2 23 -11 11 23 21 2 0.11216130D-01 0.37211826D+00 0.10294412D+06 0.10294412D+06 0.10294412D+06 0.11206894D+01  1  2  4  1  7  1       -2 -.814262448116D-04 0.100000000000D+01
  </mgrwgt>
  </event>
  <event>
  8     66 0.53686478E-06 0.63370615E+03 0.75467711E-02 0.90586909E-01
       -2 -1    0    0    0  501 0.00000000E+00 0.00000000E+00 0.37916366E+03 0.37916380E+03 0.32000000E+00 0.0000E+00 0.9000E+01
        2 -1    0    0  501    0 0.00000000E+00 0.00000000E+00 -.17033047E+04 0.17033047E+04 0.32000000E+00 0.0000E+00 0.9000E+01
       25  2    1    2    0    0 -.59814090E+03 0.16794874E+02 -.13132629E+04 0.14768101E+04 0.31345507E+03 0.0000E+00 0.0000E+00
       23  2    1    2    0    0 0.59814090E+03 -.16794874E+02 -.10878086E+02 0.60565836E+03 0.93000610E+02 0.0000E+00 0.0000E+00
       23  1    3    3    0    0 -.35761193E+03 0.12541317E+03 -.86385890E+03 0.94772475E+03 0.91188000E+02 0.0000E+00 0.9000E+01
      -13  1    4    4    0    0 0.40120720E+03 -.85783530E+01 -.50952551E+02 0.40452068E+03 0.10565837E+00 0.0000E+00 0.9000E+01
       13  1    4    4    0    0 0.19693369E+03 -.82165207E+01 0.40074466E+02 0.20113768E+03 0.10565837E+00 0.0000E+00 0.9000E+01
       23  1    3    3    0    0 -.24052897E+03 -.10861830E+03 -.44940401E+03 0.52908537E+03 0.91188000E+02 0.0000E+00 0.9000E+01
#aMCatNLO 1  0  0  1  1 0.16971417D+03 0.00000000D+00  -5  7  0 0.00000000D+00 0.00000000D+00 0.00000000D+00 0.00000000D+00 0.00000000D+00
  <mgrwgt>
 0.1064552798D-03    4    2    0
 0.803636362022872D+03 0.000000000000000D+00 0.000000000000000D+00 0.803636362022872D+03
 0.803636362022872D+03 0.000000000000000D+00 0.000000000000000D+00 -.803636362022872D+03
 0.516238423561451D+03 -.357611928813190D+03 0.125413161680954D+03 -.338485015716957D+03
 0.482141947822344D+03 0.401207468781321D+03 -.857835350474414D+01 0.267244900222918D+03
 0.293619568538927D+03 0.196933430449690D+03 -.821652020584093D+01 0.217628499503190D+03
 0.315272784123022D+03 -.240528970417821D+03 -.108618287970369D+03 -.146388384009151D+03
 0.000000000000000D+00 -.000000000000000D+00 -.000000000000000D+00 -.000000000000000D+00
 0.875665018747853D+03 0.000000000000000D+00 0.000000000000000D+00 0.875665018747853D+03
 0.914685146304131D+03 0.000000000000000D+00 0.000000000000000D+00 -.914685146304131D+03
 0.523998859195469D+03 -.345939480355546D+03 0.178922673690562D+03 -.338485015716957D+03
 0.492966223153848D+03 0.412149106862377D+03 0.415809353906050D+02 0.267244900222918D+03
 0.298836077071217D+03 0.203581344441484D+03 0.222592308650271D+02 0.217628499503190D+03
 0.300406905787914D+03 -.233620460632575D+03 -.769478986203083D+02 -.146388384009151D+03
 0.174142099843536D+03 -.361705103157388D+02 -.165814941325886D+03 -.390201275562775D+02
0.612907178825D-04 0.000000000000D+00 0.000000000000D+00 0.315338253914D-08 0.000000000000D+00  7 -2 2 23 -13 13 23 21 0 0.58332884D-01 0.26204688D+00 0.40158349D+06 0.40158349D+06 0.40158349D+06 0.10753040D+01  1  2  2  1  7  1       -2 0.211780055852D-03 0.100000000000D+01
-.317139520588D-05 0.000000000000D+00 -.235372494886D-06 0.315338253914D-08 0.000000000000D+00  7 -2 2 23 -13 13 23 21 2 0.58332884D-01 0.26204688D+00 0.40158349D+06 0.40158349D+06 0.40158349D+06 0.10753040D+01  1  2  3  1  7  1       -2 -.126707755567D-04 0.100000000000D+01
0.374501742820D-05 0.000000000000D+00 0.000000000000D+00 0.315338253914D-08 0.000000000000D+00  7 -2 2 23 -13 13 23 21 2 0.58332884D-01 0.26204688D+00 0.40158349D+06 0.40158349D+06 0.40158349D+06 0.10753040D+01  1  2 15  1  7  1       -2 0.149625865615D-04 0.100000000000D+01
-.269355831131D-04 0.000000000000D+00 0.000000000000D+00 0.315338253914D-08 0.000000000000D+00  7 -2 2 23 -13 13 23 21 2 0.58332884D-01 0.26204688D+00 0.40158349D+06 0.40158349D+06 0.40158349D+06 0.10753040D+01  1  2  4  1  7  1       -2 -.107616587010D-03 0.100000000000D+01
  </mgrwgt>
  </event>
  <event>
  8     66 0.53686478E-06 0.19146767E+03 0.75467711E-02 0.98790618E-01
       -2 -1    0    0    0  501 0.00000000E+00 0.00000000E+00 0.41590086E+02 0.41591317E+02 0.32000000E+00 0.0000E+00 0.9000E+01
        2 -1    0    0  501    0 0.00000000E+00 0.00000000E+00 -.28191585E+04 0.28191586E+04 0.32000000E+00 0.0000E+00 0.9000E+01
       25  2    1    2    0    0 -.13724190E+03 0.19450480E+03 -.21547169E+04 0.21878996E+04 0.29568974E+03 0.0000E+00 0.0000E+00
       23  2    1    2    0    0 0.13724190E+03 -.19450480E+03 -.62285159E+03 0.67285028E+03 0.90088513E+02 0.0000E+00 0.0000E+00
       23  1    3    3    0    0 -.18454986E+03 0.10697351E+03 -.16143581E+04 0.16309413E+04 0.91188000E+02 0.0000E+00 0.9000E+01
      -11  1    4    4    0    0 0.13680169E+03 -.19966711E+03 -.56360707E+03 0.61337964E+03 0.51099893E-03 0.0000E+00 0.9000E+01
       11  1    4    4    0    0 0.44021198E+00 0.51623166E+01 -.59244525E+02 0.59470640E+02 0.51099893E-03 0.0000E+00 0.9000E+01
       23  1    3    3    0    0 0.47307966E+02 0.87531286E+02 -.54035872E+03 0.55695832E+03 0.91188000E+02 0.0000E+00 0.9000E+01
#aMCatNLO 1  0  0  1  2 0.83827098D+02 0.00000000D+00  -5  7  0 0.00000000D+00 0.00000000D+00 0.00000000D+00 0.00000000D+00 0.00000000D+00
  <mgrwgt>
 0.2817931178D-03    7    2    0
 0.342419088069124D+03 0.000000000000000D+00 0.000000000000000D+00 0.342419088069124D+03
 0.342419088069124D+03 0.000000000000000D+00 0.000000000000000D+00 -.342419088069124D+03
 0.265354368994382D+03 -.184549863438105D+03 0.106973512057636D+03 -.128824319999905D+03
 0.276369699000000D+03 0.136801685354767D+03 -.199667114872467D+03 0.133411216349867D+03
 0.814046717257491D+01 0.440211976921766D+00 0.516231662230609D+01 -.627884593649236D+01
 0.134973640971291D+03 0.473079661064162D+02 0.875312861925249D+02 0.169194958653118D+01
 0.000000000000000D+00 -.000000000000000D+00 0.000000000000000D+00 0.000000000000000D+00
 0.124166334011241D+04 0.000000000000000D+00 0.000000000000000D+00 0.124166334011241D+04
 0.346933896988515D+03 0.000000000000000D+00 0.000000000000000D+00 -.346933896988515D+03
 0.246059467517016D+03 -.171632351444062D+03 0.785916072179541D+02 -.128824319999905D+03
 0.307613511256911D+03 0.151552185994860D+03 -.232076398153785D+03 0.133411216349867D+03
 0.764842120801988D+01 0.839014552190755D+00 0.428608157438631D+01 -.627884593649236D+01
 0.128628098113835D+03 0.539661329043863D+02 0.729021953464035D+02 0.169194958653118D+01
 0.898647739005147D+03 -.347249820073743D+02 0.762965140150411D+02 0.894729443123899D+03
0.160045964932D-04 0.000000000000D+00 0.000000000000D+00 0.776050890088D-08 0.000000000000D+00  7 -2 2 23 -11 11 23 21 0 0.63985708D-02 0.43371679D+00 0.94299966D+05 0.94299966D+05 0.94299966D+05 0.11238197D+01  1  2  2  1  7  1       -2 0.591029819151D-03 0.100000000000D+01
-.876319533475D-06 0.000000000000D+00 -.614618646408D-07 0.776050890088D-08 0.000000000000D+00  7 -2 2 23 -11 11 23 21 2 0.63985708D-02 0.43371679D+00 0.94299966D+05 0.94299966D+05 0.94299966D+05 0.11238197D+01  1  2  3  1  7  1       -2 -.408714859347D-04 0.100000000000D+01
0.102988558667D-05 0.000000000000D+00 0.000000000000D+00 0.776050890088D-08 0.000000000000D+00  7 -2 2 23 -11 11 23 21 2 0.63985708D-02 0.43371679D+00 0.94299966D+05 0.94299966D+05 0.94299966D+05 0.11238197D+01  1  2 15  1  7  1       -2 0.480337966483D-04 0.100000000000D+01
0.335174814005D-03 0.000000000000D+00 0.000000000000D+00 0.776050890088D-08 0.000000000000D+00  7 -2 2 23 -11 11 23 21 2 0.23096482D-01 0.43371679D+00 0.12377406D+06 0.12377406D+06 0.12377406D+06 0.11141990D+01  1  2 12  1  7  1       -2 0.200363221710D-02 0.100000000000D+01
-.345535441705D-03 0.000000000000D+00 -.553843908483D-05 0.776050890088D-08 0.000000000000D+00  7 -2 2 23 -11 11 23 21 2 0.23332177D-01 0.43371679D+00 0.94299966D+05 0.94299966D+05 0.94299966D+05 0.11238197D+01  1  2  5  1  7  1       -2 -.209784110578D-02 0.100000000000D+01
0.505870645290D-04 0.000000000000D+00 0.000000000000D+00 0.776050890088D-08 0.000000000000D+00  7 21 2 23 -11 11 23 2 2 0.23096482D-01 0.43371679D+00 0.12377406D+06 0.12377406D+06 0.12377406D+06 0.11141990D+01  1  2 12  3  7  1       -2 0.375493622167D-02 0.100000000000D+01
-.525027754619D-04 0.000000000000D+00 -.843862980986D-06 0.776050890088D-08 0.000000000000D+00  7 21 2 23 -11 11 23 2 2 0.23332177D-01 0.43371679D+00 0.94299966D+05 0.94299966D+05 0.94299966D+05 0.11238197D+01  1  2  5  3  7  1       -2 -.397712634503D-02 0.100000000000D+01
  </mgrwgt>
  </event>
  <event>
  6     66 0.53686478E-06 0.22543587E+03 0.75467711E-02 0.77964263E-01
       -2 -1    0    0    0  501 0.00000000E+00 0.00000000E+00 0.14371846E+03 0.14371881E+03 0.32000000E+00 0.0000E+00 0.9000E+01
        2 -1    0    0  501    0 0.00000000E+00 0.00000000E+00 -.12906725E+04 0.12906726E+04 0.32000000E+00 0.0000E+00 0.9000E+01
       23  1    1    2    0    0 -.37180407E+02 -.73639722E+00 -.83325578E+03 0.83905504E+03 0.91188000E+02 0.0000E+00 0.9000E+01
      -13  1    1    2    0    0 0.50257882E+02 0.14858009E+03 0.63781039E+02 0.16932197E+03 0.10565837E+00 0.0000E+00 0.9000E+01
       13  1    1    2    0    0 0.45448758E+01 -.81002333E+02 -.18644054E+03 0.20332762E+03 0.10565837E+00 0.0000E+00 0.9000E+01
       23  1    1    2    0    0 -.17622351E+02 -.66841363E+02 -.19103880E+03 0.22268676E+03 0.91188000E+02 0.0000E+00 0.9000E+01
#aMCatNLO 1  0  0  2  1 0.29746217D+04 0.00000000D+00  -5  7  0 0.00000000D+00 0.00000000D+00 0.00000000D+00 0.00000000D+00 0.00000000D+00
  <mgrwgt>
 0.7031884148D-02    3    2    0
 0.430689852584256D+03 0.000000000000000D+00 0.000000000000000D+00 0.430689852584256D+03
 0.430689852584256D+03 0.000000000000000D+00 0.000000000000000D+00 -.430689852584256D+03
 0.287721962896314D+03 -.371828117314024D+02 -.739362768584186D+00 -.270343426854347D+03
 0.366887184467550D+03 0.502599388227137D+02 0.148573562172362D+03 0.331671586512138D+03
 0.903192675117782D+02 0.454619772667025D+01 -.809916362198667D+02 -.397146954227646D+02
 0.116451290292869D+03 -.176233248179815D+02 -.668425631839114D+02 -.216134642350263D+02
 0.000000000000000D+00 0.000000000000000D+00 0.000000000000000D+00 0.000000000000000D+00
 0.543573698916368D+04 0.000000000000000D+00 0.000000000000000D+00 0.543573698916368D+04
 0.211746770694453D+04 0.000000000000000D+00 0.000000000000000D+00 -.211746770694453D+04
 0.116242662083632D+04 -.112145189354560D+04 -.110365209665820D+03 -.270343426854347D+03
 0.109473651073878D+04 -.104258902833625D+04 0.380802394677122D+02 0.331671586512138D+03
 0.337230473994385D+03 -.315130675976539D+03 -.113312808704595D+03 -.397146954227646D+02
 0.502435292273877D+03 -.480361829102514D+03 -.113628090203896D+03 -.216134642350263D+02
 0.445637579826485D+04 0.295953342696090D+04 0.299225869106599D+03 0.331826928221915D+04
0.181826137965D-03 0.000000000000D+00 0.000000000000D+00 0.293812243876D-13 0.000000000000D+00  7 -2 2 23 -13 13 23 21 0 0.22110562D-01 0.19856504D+00 0.50821333D+05 0.50821333D+05 0.50821333D+05 0.11466735D+01  1  2  2  2  7  2        2 0.675464362204D-02 0.100000000000D+01
-.495453768242D-05 0.000000000000D+00 -.698260245708D-06 0.293812243876D-13 0.000000000000D+00  7 -2 2 23 -13 13 23 21 2 0.22110562D-01 0.19856504D+00 0.50821333D+05 0.50821333D+05 0.50821333D+05 0.11466735D+01  1  2  3  2  7  2        2 -.242007494428D-03 0.100000000000D+01
0.106303893133D-04 0.000000000000D+00 0.000000000000D+00 0.293812243876D-13 0.000000000000D+00  7 -2 2 23 -13 13 23 21 2 0.22110562D-01 0.19856504D+00 0.50821333D+05 0.50821333D+05 0.50821333D+05 0.11466735D+01  1  2 15  2  7  2        2 0.519248020177D-03 0.100000000000D+01
  </mgrwgt>
  </event>
  <event>
  8     66 0.53686478E-06 0.22052034E+03 0.75467711E-02 0.98512140E-01
       -2 -1    0    0    0  501 0.00000000E+00 0.00000000E+00 0.14203740E+03 0.14203776E+03 0.32000000E+00 0.0000E+00 0.9000E+01
        2 -1    0    0  501    0 0.00000000E+00 0.00000000E+00 -.55139803E+03 0.55139812E+03 0.32000000E+00 0.0000E+00 0.9000E+01
       25  2    1    2    0    0 0.62834500E+02 0.11861075E+03 -.10069657E+03 0.34387413E+03 0.30015486E+03 0.0000E+00 0.0000E+00
       23  2    1    2    0    0 -.62834500E+02 -.11861075E+03 -.30866406E+03 0.34956175E+03 0.94356916E+02 0.0000E+00 0.0000E+00
       23  1    3    3    0    0 -.70612394E+02 0.21178985E+02 -.10159420E+03 0.15514926E+03 0.91188000E+02 0.0000E+00 0.9000E+01
      -13  1    4    4    0    0 -.52947440E+02 -.86103843E+02 -.29685218E+03 0.31358975E+03 0.10565837E+00 0.0000E+00 0.9000E+01
       13  1    4    4    0    0 -.98870604E+01 -.32506906E+02 -.11811883E+02 0.35971998E+02 0.10565837E+00 0.0000E+00 0.9000E+01
       23  1    3    3    0    0 0.13344689E+03 0.97431764E+02 0.89763113E+00 0.18872488E+03 0.91188000E+02 0.0000E+00 0.9000E+01
#aMCatNLO 1  0  0  1  2 0.24985547D+03 0.00000000D+00  -5  7  0 0.00000000D+00 0.00000000D+00 0.00000000D+00 0.00000000D+00 0.00000000D+00
  <mgrwgt>
 0.2987967168D-03    3    2    0
 0.279855854298292D+03 0.000000000000000D+00 0.000000000000000D+00 0.279855854298292D+03
 0.279855854298292D+03 0.000000000000000D+00 0.000000000000000D+00 -.279855854298292D+03
 0.117913196161804D+03 -.706123921665817D+02 0.211789861882999D+02 -.123939945796634D+02
 0.171400532616689D+03 -.529474955687945D+02 -.861039154633826D+02 -.138422617502169D+03
 0.359271692656480D+02 -.988700691810750D+01 -.325068370813041D+02 0.116753641747646D+02
 0.234470810552443D+03 0.133446894653484D+03 0.974317663563867D+02 0.139141247907068D+03
 0.000000000000000D+00 -.000000000000000D+00 -.000000000000000D+00 -.000000000000000D+00
 0.403555034611075D+03 0.000000000000000D+00 0.000000000000000D+00 0.403555034611075D+03
 0.467235657602222D+03 0.000000000000000D+00 0.000000000000000D+00 -.467235657602222D+03
 0.119798001785002D+03 -.429041453360587D+02 0.635761991551941D+02 -.123939945796634D+02
 0.142597632284346D+03 -.163470378177211D+02 -.301004659687476D+02 -.138422617502169D+03
 0.247827725267807D+02 -.281049530746083D+01 -.216788560959180D+02 0.116753641747646D+02
 0.325769351221315D+03 0.198749971752414D+03 0.197353947795414D+03 0.139141247907068D+03
 0.257842934395854D+03 -.136688293291174D+03 -.209150824885943D+03 -.636806229911467D+02
0.256035376391D-05 0.000000000000D+00 0.000000000000D+00 0.622924984160D-07 0.000000000000D+00  7 -2 2 23 -13 13 23 21 0 0.21851942D-01 0.84830501D-01 0.48629221D+05 0.48629221D+05 0.48629221D+05 0.11483588D+01  1  2  2  1  7  1       -2 0.294314650041D-03 0.100000000000D+01
-.132422104837D-06 0.000000000000D+00 -.983243261004D-08 0.622924984160D-07 0.000000000000D+00  7 -2 2 23 -13 13 23 21 2 0.21851942D-01 0.84830501D-01 0.48629221D+05 0.48629221D+05 0.48629221D+05 0.11483588D+01  1  2  3  1  7  1       -2 -.200737081530D-04 0.100000000000D+01
0.161989373199D-06 0.000000000000D+00 0.000000000000D+00 0.622924984160D-07 0.000000000000D+00  7 -2 2 23 -13 13 23 21 2 0.21851942D-01 0.84830501D-01 0.48629221D+05 0.48629221D+05 0.48629221D+05 0.11483588D+01  1  2 15  1  7  1       -2 0.245557749251D-04 0.100000000000D+01
  </mgrwgt>
  </event>
  <event>
  8     66 0.53686478E-06 0.21495351E+03 0.75467711E-02 0.93838043E-01
       -2 -1    0    0    0  501 0.00000000E+00 0.00000000E+00 0.12815595E+03 0.12815635E+03 0.32000000E+00 0.0000E+00 0.9000E+01
        2 -1    0    0  501    0 0.00000000E+00 0.00000000E+00 -.86110166E+03 0.86110172E+03 0.32000000E+00 0.0000E+00 0.9000E+01
       25  2    1    2    0    0 -.14549823E+03 0.53634559E+01 -.12343977E+03 0.35593203E+03 0.30041926E+03 0.0000E+00 0.0000E+00
       23  2    1    2    0    0 0.14549823E+03 -.53634559E+01 -.60950594E+03 0.63332604E+03 0.91683569E+02 0.0000E+00 0.0000E+00
       23  1    3    3    0    0 -.29296688E+02 -.44054412E+02 -.16401680E+03 0.19497654E+03 0.91188000E+02 0.0000E+00 0.9000E+01
      -11  1    4    4    0    0 0.38560413E+02 0.37246247E+02 -.25586255E+03 0.26141888E+03 0.51099893E-03 0.0000E+00 0.9000E+01
       11  1    4    4    0    0 0.10693781E+03 -.42609703E+02 -.35364340E+03 0.37190716E+03 0.51099893E-03 0.0000E+00 0.9000E+01
       23  1    3    3    0    0 -.11620154E+03 0.49417868E+02 0.40577032E+02 0.16095549E+03 0.91188000E+02 0.0000E+00 0.9000E+01
#aMCatNLO 1  0  0  1  1 0.44154753D+03 0.00000000D+00  -5  7  0 0.00000000D+00 0.00000000D+00 0.00000000D+00 0.00000000D+00 0.00000000D+00
  <mgrwgt>
 0.1993898371D-03    3    2    0
 0.332198023834568D+03 0.000000000000000D+00 0.000000000000000D+00 0.332198023834568D+03
 0.332198023834568D+03 0.000000000000000D+00 0.000000000000000D+00 -.332198023834568D+03
 0.109372565670360D+03 -.292966877651892D+02 -.440544124842297D+02 -.291207761568189D+02
 0.106980437688603D+03 0.385604128648065D+02 0.372462472606319D+02 -.925776737272036D+02
 0.163623409228967D+03 0.106937814113630D+03 -.426097031371009D+02 -.116281284645797D+03
 0.284419635081206D+03 -.116201539213247D+03 0.494178683606988D+02 0.237979734529820D+03
 0.000000000000000D+00 -.000000000000000D+00 -.000000000000000D+00 -.000000000000000D+00
 0.597388666224875D+03 0.000000000000000D+00 0.000000000000000D+00 0.597388666224875D+03
 0.644391834091646D+03 0.000000000000000D+00 0.000000000000000D+00 -.644391834091646D+03
 0.100265164250519D+03 -.230424615611091D+02 0.189440539329049D+02 -.291207761568189D+02
 0.155614944966814D+03 0.463945509462187D+02 0.116159076557894D+03 -.925776737272036D+02
 0.175303822910959D+03 0.117049198058332D+03 0.592416947953136D+02 -.116281284645797D+03
 0.366554323879999D+03 -.967807107495656D+02 0.245042773798879D+03 0.237979734529820D+03
 0.444042244308232D+03 -.436205766938762D+02 -.439387599084991D+03 -.470031678667709D+02
0.241577666962D-05 0.000000000000D+00 0.000000000000D+00 0.295111589927D-06 0.000000000000D+00  7 -2 2 23 -11 11 23 21 0 0.19716335D-01 0.13247721D+00 0.46205011D+05 0.46205011D+05 0.46205011D+05 0.11503230D+01  1  2  2  1  7  1       -2 0.193902264593D-03 0.100000000000D+01
-.103288209877D-06 0.000000000000D+00 -.927721849996D-08 0.295111589927D-06 0.000000000000D+00  7 -2 2 23 -11 11 23 21 2 0.19716335D-01 0.13247721D+00 0.46205011D+05 0.46205011D+05 0.46205011D+05 0.11503230D+01  1  2  3  1  7  1       -2 -.109702479376D-04 0.100000000000D+01
0.154955368702D-06 0.000000000000D+00 0.000000000000D+00 0.295111589927D-06 0.000000000000D+00  7 -2 2 23 -11 11 23 21 2 0.19716335D-01 0.13247721D+00 0.46205011D+05 0.46205011D+05 0.46205011D+05 0.11503230D+01  1  2 15  1  7  1       -2 0.164578204613D-04 0.100000000000D+01
  </mgrwgt>
  </event>
  <event>
  8     66 0.53686478E-06 0.23268859E+03 0.75467711E-02 0.95813374E-01
       -2 -1    0    0    0  501 0.00000000E+00 0.00000000E+00 0.46005182E+02 0.46006295E+02 0.32000000E+00 0.0000E+00 0.9000E+01
        2 -1    0    0  501    0 0.00000000E+00 0.00000000E+00 -.12683295E+04 0.12683295E+04 0.32000000E+00 0.0000E+00 0.9000E+01
       25  2    1    2    0    0 0.78657390E+02 -.95096100E+02 -.72151086E+03 0.79051231E+03 0.29849881E+03 0.0000E+00 0.0000E+00
       23  2    1    2    0    0 -.78657390E+02 0.95096100E+02 -.50081345E+03 0.52382351E+03 0.91360346E+02 0.0000E+00 0.0000E+00
       23  1    3    3    0    0 -.53942735E+02 0.39627266E+02 -.25572023E+03 0.27962158E+03 0.91188000E+02 0.0000E+00 0.9000E+01
      -13  1    4    4    0    0 0.75628542E+01 -.58980266E+01 -.12261583E+03 0.12299039E+03 0.10565837E+00 0.0000E+00 0.9000E+01
       13  1    4    4    0    0 -.86220244E+02 0.10099413E+03 -.37819762E+03 0.40083312E+03 0.10565837E+00 0.0000E+00 0.9000E+01
       23  1    3    3    0    0 0.13260013E+03 -.13472337E+03 -.46579062E+03 0.51089073E+03 0.91188000E+02 0.0000E+00 0.9000E+01
#aMCatNLO 1  0  0  1  1 0.33499202D+03 0.00000000D+00  -5  7  0 0.00000000D+00 0.00000000D+00 0.00000000D+00 0.00000000D+00 0.00000000D+00
  <mgrwgt>
 0.3464300130D-03    3    2    0
 0.241558454936133D+03 0.000000000000000D+00 0.000000000000000D+00 0.241558454936133D+03
 0.241558454936133D+03 0.000000000000000D+00 0.000000000000000D+00 -.241558454936133D+03
 0.113727342322141D+03 -.539427334746909D+02 0.396272641234794D+02 0.117693878780495D+02
 0.243715233233610D+02 0.756297503875394D+01 -.589816469555368D+01 -.224050041483691D+02
 0.133610030726838D+03 -.862203701147668D+02 0.100994270853952D+03 -.147595847765981D+02
 0.211408013499925D+03 0.132600128550704D+03 -.134723370281878D+03 0.253952010469178D+02
 0.000000000000000D+00 0.000000000000000D+00 -.000000000000000D+00 -.000000000000000D+00
 0.416349755722908D+03 0.000000000000000D+00 0.000000000000000D+00 0.416349755722908D+03
 0.523151395401635D+03 0.000000000000000D+00 0.000000000000000D+00 -.523151395401635D+03
 0.184669454909966D+03 -.124730941493367D+03 0.100455114234659D+03 0.117693878780495D+02
 0.230143939918946D+02 -.367831241199206D+01 0.376140103226162D+01 -.224050041483691D+02
 0.253571656885506D+03 -.178070879563785D+03 0.179920820596904D+03 -.147595847765981D+02
 0.126640405786863D+03 0.524054279144100D+02 -.658125817967618D+02 0.253952010469178D+02
 0.351605239550313D+03 0.254074705554734D+03 -.218324754067062D+03 -.106801639678727D+03
0.150759037090D-05 0.000000000000D+00 0.000000000000D+00 0.238637203482D-07 0.000000000000D+00  7 -2 2 23 -13 13 23 21 0 0.70778091D-02 0.19512770D+00 0.54143979D+05 0.54143979D+05 0.54143979D+05 0.11442661D+01  1  2  2  1  7  1       -2 0.342726615770D-03 0.100000000000D+01
-.836124996715D-07 0.000000000000D+00 -.578954398193D-08 0.238637203482D-07 0.000000000000D+00  7 -2 2 23 -13 13 23 21 2 0.70778091D-02 0.19512770D+00 0.54143979D+05 0.54143979D+05 0.54143979D+05 0.11442661D+01  1  2  3  1  7  1       -2 -.248879856722D-04 0.100000000000D+01
0.960542577681D-07 0.000000000000D+00 0.000000000000D+00 0.238637203482D-07 0.000000000000D+00  7 -2 2 23 -13 13 23 21 2 0.70778091D-02 0.19512770D+00 0.54143979D+05 0.54143979D+05 0.54143979D+05 0.11442661D+01  1  2 15  1  7  1       -2 0.285913828732D-04 0.100000000000D+01
  </mgrwgt>
  </event>
  <event>
  9     66 0.53686478E-06 0.18188787E+03 0.75467711E-02 0.10694599E+00
       -4 -1    0    0    0  502 0.00000000E+00 0.00000000E+00 0.42130632E+03 0.42130917E+03 0.15500000E+01 0.0000E+00 0.9000E+01
        4 -1    0    0  501    0 0.00000000E+00 0.00000000E+00 -.15976006E+03 0.15976758E+03 0.15500000E+01 0.0000E+00 0.9000E+01
       25  2    1    2    0    0 0.58660448E+02 0.81567664E+02 0.56489923E+02 0.32117006E+03 0.29977452E+03 0.0000E+00 0.0000E+00
       23  2    1    2    0    0 -.62124540E+02 -.60978780E+02 0.20243558E+03 0.23885122E+03 0.92151359E+02 0.0000E+00 0.0000E+00
       23  1    3    3    0    0 -.58840938E+02 0.33643255E+02 -.57890250E+02 0.12751728E+03 0.91188000E+02 0.0000E+00 0.9000E+01
      -13  1    4    4    0    0 -.65446154E+02 -.54324860E+02 0.81866841E+02 0.11805329E+03 0.10565837E+00 0.0000E+00 0.9000E+01
       13  1    4    4    0    0 0.33216148E+01 -.66539197E+01 0.12056874E+03 0.12079793E+03 0.10565837E+00 0.0000E+00 0.9000E+01
       23  1    3    3    0    0 0.11750139E+03 0.47924409E+02 0.11438017E+03 0.19365278E+03 0.91188000E+02 0.0000E+00 0.9000E+01
       21  1    1    2  501  502 0.34640917E+01 -.20588884E+02 0.26207598E+01 0.21055474E+02 0.75000000E+00 0.0000E+00 0.9000E+01
#aMCatNLO 2  0  0  1  2 0.20878268D+02 0.00000000D+00  -5  7  0 0.00000000D+00 0.00000000D+00 0.00000000D+00 0.00000000D+00 0.00000000D+00
  <mgrwgt>
 0.1829540261D-04    2    2    0
 0.248065274482218D+03 0.000000000000000D+00 0.000000000000000D+00 0.248065274482218D+03
 0.248065274482218D+03 0.000000000000000D+00 0.000000000000000D+00 -.248065274482218D+03
 0.172344048216512D+03 -.576323553259923D+02 0.264600454302015D+02 -.131778591687215D+03
 0.923279830632715D+02 -.648084212584513D+02 -.581157969990525D+02 0.307714011654293D+02
 0.737297450028144D+02 0.383499164720993D+01 -.970466316046947D+01 0.729875855895212D+02
 0.157728772681838D+03 0.118605784937234D+03 0.413604147293205D+02 0.280196049322643D+02
 0.000000000000000D+00 0.000000000000000D+00 -.000000000000000D+00 -.000000000000000D+00
 0.255456665958018D+03 0.000000000000000D+00 0.000000000000000D+00 0.255456665958018D+03
 0.263479751327716D+03 0.000000000000000D+00 0.000000000000000D+00 -.263479751327716D+03
 0.173997048905752D+03 -.588409350151876D+02 0.336432582159274D+02 -.131778591687215D+03
 0.904504627059441D+02 -.654462384826122D+02 -.543249200874943D+02 0.307714011654293D+02
 0.733654907398158D+02 0.332169329546053D+01 -.665386616616182D+01 0.729875855895212D+02
 0.158756654098791D+03 0.117501388543299D+03 0.479244124270698D+02 0.280196049322643D+02
 0.223667608354305D+02 0.346409165904071D+01 -.205888843893410D+02 -.802308536969798D+01
-.466798950736D-07 0.000000000000D+00 0.000000000000D+00 0.129327181944D-06 0.000000000000D+00  7 -4 4 23 -13 13 23 21 2 0.62940200D-01 0.23140733D-01 0.33083199D+05 0.33083199D+05 0.33083199D+05 0.11634144D+01  1  2  8  1  7  1       -4 -.611281307361D-06 0.100000000000D+01
0.173757366312D-05 0.000000000000D+00 0.000000000000D+00 0.129327181944D-06 0.212902608394D-08  7 -4 4 23 -13 13 23 21 2 0.64815576D-01 0.24578670D-01 0.36720979D+05 0.36720979D+05 0.36720979D+05 0.11592769D+01  1  2  1  1  7  1       -4 0.189066839214D-04 0.100000000000D+01
  </mgrwgt>
  </event>
  <event>
  7     66 0.53686478E-06 0.82473838E+02 0.75467711E-02 0.10714148E+00
       -2 -1    0    0    0  501 0.00000000E+00 0.00000000E+00 0.31827061E+02 0.31828670E+02 0.32000000E+00 0.0000E+00 0.9000E+01
        2 -1    0    0  501    0 0.00000000E+00 0.00000000E+00 -.16631582E+04 0.16631582E+04 0.32000000E+00 0.0000E+00 0.9000E+01
       25  2    1    2    0    0 0.10694908E+02 0.56357279E+02 -.98779678E+03 0.10295077E+04 0.28434672E+03 0.0000E+00 0.0000E+00
       23  1    3    3    0    0 0.83288746E+02 0.77262912E+02 -.32416312E+03 0.35539211E+03 0.91188000E+02 0.0000E+00 0.9000E+01
      -13  1    1    2    0    0 -.17978606E+02 -.19458692E+01 0.14694083E+01 0.18143511E+02 0.10565837E+00 0.0000E+00 0.9000E+01
       13  1    1    2    0    0 0.72836974E+01 -.54411409E+02 -.64500376E+03 0.64733571E+03 0.10565837E+00 0.0000E+00 0.9000E+01
       23  1    3    3    0    0 -.72593838E+02 -.20905634E+02 -.66363366E+03 0.67411557E+03 0.91188000E+02 0.0000E+00 0.9000E+01
#aMCatNLO 1  0  0  2  1 0.42585181D+02 0.00000000D+00  -5  7  0 0.00000000D+00 0.00000000D+00 0.00000000D+00 0.00000000D+00 0.00000000D+00
  <mgrwgt>
 0.1073329513D-02    9    2    0
 0.230075698567909D+03 0.000000000000000D+00 0.000000000000000D+00 0.230075698567909D+03
 0.230075698567909D+03 0.000000000000000D+00 0.000000000000000D+00 -.230075698567909D+03
 0.159957512608651D+03 0.833117685561453D+02 0.773842320720525D+02 0.658937352303906D+02
 0.719683170061775D+02 -.179851243491001D+02 -.205752720528067D+01 0.696544365898440D+02
 0.978447569003617D+02 0.724842028940866D+01 -.545199966058308D+02 -.809235863410611D+02
 0.130380810620627D+03 -.725750644964538D+02 -.208067082609411D+02 -.546245854791735D+02
 0.000000000000000D+00 -.000000000000000D+00 0.000000000000000D+00 -.000000000000000D+00
 0.239795133054073D+03 0.000000000000000D+00 0.000000000000000D+00 0.239795133054073D+03
 0.282954563217114D+03 0.000000000000000D+00 0.000000000000000D+00 -.282954563217114D+03
 0.167413656650800D+03 0.983135666634347D+02 0.755284009925642D+02 0.658937352303906D+02
 0.706473733489504D+02 -.114497541194031D+02 -.286599983646090D+01 0.696544365898440D+02
 0.995480664575511D+02 0.162939550276750D+02 -.556389947671051D+02 -.809235863410611D+02
 0.124508643899093D+03 -.608947441278893D+02 -.222516484876617D+02 -.546245854791735D+02
 0.606319559147925D+02 -.422630234438173D+02 0.522824209866353D+01 -.431594301630415D+02
0.308678145345D-05 0.000000000000D+00 0.000000000000D+00 0.265839545770D-12 0.000000000000D+00  7 -2 2 23 -13 13 23 21 0 0.48965970D-02 0.25587062D+00 0.28433226D+05 0.28433226D+05 0.28433226D+05 0.11695035D+01  1  2  2  2  7  2        2 0.745038559103D-03 0.100000000000D+01
-.151353330959D-06 0.000000000000D+00 -.118540535495D-07 0.265839545770D-12 0.000000000000D+00  7 -2 2 23 -13 13 23 21 2 0.48965970D-02 0.25587062D+00 0.28433226D+05 0.28433226D+05 0.28433226D+05 0.11695035D+01  1  2  3  2  7  2        2 -.499652282015D-04 0.100000000000D+01
0.192865777849D-06 0.000000000000D+00 0.000000000000D+00 0.265839545770D-12 0.000000000000D+00  7 -2 2 23 -13 13 23 21 2 0.48965970D-02 0.25587062D+00 0.28433226D+05 0.28433226D+05 0.28433226D+05 0.11695035D+01  1  2 15  2  7  2        2 0.636694451414D-04 0.100000000000D+01
0.518097109774D-05 0.000000000000D+00 0.000000000000D+00 0.265839545770D-12 0.000000000000D+00  7 -2 2 23 -13 13 23 21 2 0.48965970D-02 0.31920361D+00 0.35749500D+05 0.35749500D+05 0.35749500D+05 0.11603360D+01  1  2 12  2  7  2        2 0.102388880649D-02 0.100000000000D+01
-.543081621185D-05 0.000000000000D+00 0.000000000000D+00 0.265839545770D-12 0.000000000000D+00  7 -2 2 23 -13 13 23 21 2 0.48965970D-02 0.25587062D+00 0.28433226D+05 0.28433226D+05 0.28433226D+05 0.11695035D+01  1  2  4  2  7  2        2 -.179283778973D-02 0.100000000000D+01
-.784233605498D-05 0.000000000000D+00 -.167523029045D-05 0.265839545770D-12 0.000000000000D+00  7 -2 2 23 -13 13 23 21 2 0.48965970D-02 0.31957631D+00 0.28433226D+05 0.28433226D+05 0.28433226D+05 0.11695035D+01  1  2  5  2  7  2        2 -.157305075063D-02 0.100000000000D+01
0.805544232243D-05 0.000000000000D+00 0.163466448558D-05 0.265839545770D-12 0.000000000000D+00  7 -2 2 23 -13 13 23 21 2 0.48965970D-02 0.25587062D+00 0.28433226D+05 0.28433226D+05 0.28433226D+05 0.11695035D+01  1  2  6  2  7  2        2 0.265928745243D-02 0.100000000000D+01
0.160035446990D-06 0.000000000000D+00 0.000000000000D+00 0.265839545770D-12 0.000000000000D+00  7 -2 21 23 -13 13 23 -2 2 0.48965970D-02 0.31920361D+00 0.35749500D+05 0.35749500D+05 0.35749500D+05 0.11603360D+01  1  2 12  4  7  2        2 0.655000571327D-05 0.100000000000D+01
-.220102404131D-06 0.000000000000D+00 -.519516650404D-07 0.265839545770D-12 0.000000000000D+00  7 -2 21 23 -13 13 23 -2 2 0.48965970D-02 0.31957631D+00 0.28433226D+05 0.28433226D+05 0.28433226D+05 0.11695035D+01  1  2  5  4  7  2        2 -.925098689075D-05 0.100000000000D+01
  </mgrwgt>
  </event>
  <event>
  8     66 0.53686478E-06 0.41427578E+03 0.75467711E-02 0.96388045E-01
       -2 -1    0    0    0  501 0.00000000E+00 0.00000000E+00 0.56001984E+03 0.56001993E+03 0.32000000E+00 0.0000E+00 0.9000E+01
        2 -1    0    0  501    0 0.00000000E+00 0.00000000E+00 -.31872532E+03 0.31872548E+03 0.32000000E+00 0.0000E+00 0.9000E+01
       25  2    1    2    0    0 -.30126867E+03 0.20199568E+03 0.12790923E+03 0.48807571E+03 0.30048638E+03 0.0000E+00 0.0000E+00
       23  2    1    2    0    0 0.30126867E+03 -.20199568E+03 0.11338529E+03 0.39066970E+03 0.90562263E+02 0.0000E+00 0.0000E+00
       23  1    3    3    0    0 -.16826288E+03 -.13412692E+02 0.41566405E+01 0.19189796E+03 0.91188000E+02 0.0000E+00 0.9000E+01
      -13  1    4    4    0    0 0.19981730E+02 0.20878966E+01 -.92834594E+01 0.22131937E+02 0.10565837E+00 0.0000E+00 0.9000E+01
       13  1    4    4    0    0 0.28128694E+03 -.20408357E+03 0.12266875E+03 0.36853776E+03 0.10565837E+00 0.0000E+00 0.9000E+01
       23  1    3    3    0    0 -.13300579E+03 0.21540837E+03 0.12375259E+03 0.29617775E+03 0.91188000E+02 0.0000E+00 0.9000E+01
#aMCatNLO 1  0  0  1  1 0.29575805D+02 0.00000000D+00  -5  7  0 0.00000000D+00 0.00000000D+00 0.00000000D+00 0.00000000D+00 0.00000000D+00
  <mgrwgt>
 0.3079493443D-03    4    2    0
 0.422483860741412D+03 0.000000000000000D+00 0.000000000000000D+00 0.422483860741412D+03
 0.422483860741412D+03 0.000000000000000D+00 0.000000000000000D+00 -.422483860741412D+03
 0.198382106824471D+03 -.168262882411327D+03 -.134126921697887D+02 -.504768368215165D+02
 0.256672703977189D+02 0.199813745118840D+02 0.208817716188821D+01 -.159747600428306D+02
 0.348240451895620D+03 0.281287299042782D+03 -.204083852938998D+03 0.223304434182452D+02
 0.272677892365014D+03 -.133005791143338D+03 0.215408367946899D+03 0.441211534461020D+02
 0.000000000000000D+00 -.000000000000000D+00 0.000000000000000D+00 -.000000000000000D+00
 0.423313064473846D+03 0.000000000000000D+00 0.000000000000000D+00 0.423313064473846D+03
 0.806074062881931D+03 0.000000000000000D+00 0.000000000000000D+00 -.806074062881931D+03
 0.196357021616669D+03 -.165250375171806D+03 -.196273035397212D+02 -.504768368215165D+02
 0.259222926289109D+02 0.203750875261353D+02 0.127597218433440D+01 -.159747600428306D+02
 0.359176386685455D+03 0.286686050253488D+03 -.215221134276395D+03 0.223304434182452D+02
 0.264029472573634D+03 -.128909833317299D+03 0.206958666733730D+03 0.441211534461020D+02
 0.383901953851108D+03 -.129009292905185D+02 0.266137988980517D+02 -.382760998408084D+03
0.205594486746D-04 0.000000000000D+00 0.000000000000D+00 0.490052793396D-06 0.000000000000D+00  7 -2 2 23 -13 13 23 21 0 0.86156918D-01 0.49034684D-01 0.17162442D+06 0.17162442D+06 0.17162442D+06 0.11029657D+01  1  2  2  1  7  1       -2 0.307037708010D-03 0.100000000000D+01
-.114165704040D-05 0.000000000000D+00 -.789536963375D-07 0.490052793396D-06 0.000000000000D+00  7 -2 2 23 -13 13 23 21 2 0.86156918D-01 0.49034684D-01 0.17162442D+06 0.17162442D+06 0.17162442D+06 0.11029657D+01  1  2  3  1  7  1       -2 -.207414905205D-04 0.100000000000D+01
0.133352088703D-05 0.000000000000D+00 0.000000000000D+00 0.490052793396D-06 0.000000000000D+00  7 -2 2 23 -13 13 23 21 2 0.86156918D-01 0.49034684D-01 0.17162442D+06 0.17162442D+06 0.17162442D+06 0.11029657D+01  1  2 15  1  7  1       -2 0.242272502674D-04 0.100000000000D+01
-.141685388769D-06 0.000000000000D+00 0.000000000000D+00 0.490052793396D-06 0.000000000000D+00  7 -2 2 23 -13 13 23 21 2 0.86156918D-01 0.49034684D-01 0.17162442D+06 0.17162442D+06 0.17162442D+06 0.11029657D+01  1  2  4  1  7  1       -2 -.257412343993D-05 0.100000000000D+01
  </mgrwgt>
  </event>
  <event>
  8     66 0.53686478E-06 0.31275761E+03 0.75467711E-02 0.96073764E-01
       -4 -1    0    0    0  501 0.00000000E+00 0.00000000E+00 0.75431725E+03 0.75431884E+03 0.15500000E+01 0.0000E+00 0.9000E+01
        4 -1    0    0  501    0 0.00000000E+00 0.00000000E+00 -.23049880E+03 0.23050402E+03 0.15500000E+01 0.0000E+00 0.9000E+01
       25  2    1    2    0    0 -.27835971E+03 -.27766825E+02 0.33055756E+02 0.41147723E+03 0.29994284E+03 0.0000E+00 0.0000E+00
       23  2    1    2    0    0 0.27835971E+03 0.27766825E+02 0.49076269E+03 0.57334563E+03 0.98092106E+02 0.0000E+00 0.0000E+00
       23  1    3    3    0    0 -.10002574E+03 -.75079810E+01 -.10148613E+03 0.16934050E+03 0.91188000E+02 0.0000E+00 0.9000E+01
      -11  1    4    4    0    0 0.20613125E+03 -.11449331E+02 0.40485870E+03 0.45445764E+03 0.51099893E-03 0.0000E+00 0.9000E+01
       11  1    4    4    0    0 0.72228461E+02 0.39216155E+02 0.85903994E+02 0.11888799E+03 0.51099893E-03 0.0000E+00 0.9000E+01
       23  1    3    3    0    0 -.17833397E+03 -.20258844E+02 0.13454189E+03 0.24213674E+03 0.91188000E+02 0.0000E+00 0.9000E+01
#aMCatNLO 1  0  0  1  2 0.22515252D+03 0.00000000D+00  -5  7  0 0.00000000D+00 0.00000000D+00 0.00000000D+00 0.00000000D+00 0.00000000D+00
  <mgrwgt>
 0.2303785568D-04    3    2    0
 0.416980304919315D+03 0.000000000000000D+00 0.000000000000000D+00 0.416980304919315D+03
 0.416980304919315D+03 0.000000000000000D+00 0.000000000000000D+00 -.416980304919315D+03
 0.263718335948164D+03 -.100025737076500D+03 -.750798095649770D+01 -.226209176461805D+03
 0.282372827905662D+03 0.206131249823855D+03 -.114493305549484D+02 0.192647955128883D+03
 0.864375488999121D+02 0.722284608100027D+02 0.392161552817974D+02 0.267692449231680D+02
 0.201431897084891D+03 -.178333973557357D+03 -.202588437703514D+02 0.679197640975485D+01
 0.000000000000000D+00 -.000000000000000D+00 0.000000000000000D+00 -.000000000000000D+00
 0.440211956051149D+03 0.000000000000000D+00 0.000000000000000D+00 0.440211956051149D+03
 0.195841216107260D+04 0.000000000000000D+00 0.000000000000000D+00 -.195841216107260D+04
 0.249248625098691D+03 -.377373476873060D+02 -.348558007164766D+02 -.226209176461805D+03
 0.344681687850697D+03 0.282273026608027D+03 -.448795028248919D+02 0.192647955128883D+03
 0.103131090712170D+03 0.952473414335028D+02 0.291096779022882D+02 0.267692449231680D+02
 0.166757996364331D+03 -.133625527996793D+03 -.398881602919187D+02 0.679197640975485D+01
 0.153480471709786D+04 -.206157492357430D+03 0.905137859309990D+02 -.151820020502145D+04
0.258971837955D-04 0.000000000000D+00 0.000000000000D+00 0.431224542994D-07 0.000000000000D+00  7 -4 4 23 -11 11 23 21 0 0.11604933D+00 0.35461878D-01 0.97817321D+05 0.97817321D+05 0.97817321D+05 0.11225094D+01  1  2  2  1  7  1       -4 0.226755051544D-04 0.100000000000D+01
-.129403158958D-05 0.000000000000D+00 -.994520046598D-07 0.431224542994D-07 0.000000000000D+00  7 -4 4 23 -11 11 23 21 2 0.11604933D+00 0.35461878D-01 0.97817321D+05 0.97817321D+05 0.97817321D+05 0.11225094D+01  1  2  3  1  7  1       -4 -.142767474139D-05 0.100000000000D+01
0.162246285956D-05 0.000000000000D+00 0.000000000000D+00 0.431224542994D-07 0.000000000000D+00  7 -4 4 23 -11 11 23 21 2 0.11604933D+00 0.35461878D-01 0.97817321D+05 0.97817321D+05 0.97817321D+05 0.11225094D+01  1  2 15  1  7  1       -4 0.179002526839D-05 0.100000000000D+01
  </mgrwgt>
  </event>
  <event>
  8     66 0.53686478E-06 0.74689983E+02 0.75467711E-02 0.10612961E+00
       -2 -1    0    0    0  501 0.00000000E+00 0.00000000E+00 0.20445140E+03 0.20445165E+03 0.32000000E+00 0.0000E+00 0.9000E+01
        2 -1    0    0  501    0 0.00000000E+00 0.00000000E+00 -.51337742E+03 0.51337752E+03 0.32000000E+00 0.0000E+00 0.9000E+01
       25  2    1    2    0    0 0.10850011E+03 -.66090218E+02 -.41603271E+03 0.52882502E+03 0.30071996E+03 0.0000E+00 0.0000E+00
       23  2    1    2    0    0 -.10850011E+03 0.66090218E+02 0.10710669E+03 0.18900415E+03 0.90058516E+02 0.0000E+00 0.0000E+00
       23  1    3    3    0    0 0.10055903E+03 -.20946745E+02 -.45809318E+02 0.14479168E+03 0.91188000E+02 0.0000E+00 0.9000E+01
      -11  1    4    4    0    0 -.11298094E+03 0.66380935E+02 0.11855299E+03 0.17670861E+03 0.51099893E-03 0.0000E+00 0.9000E+01
       11  1    4    4    0    0 0.44808323E+01 -.29071699E+00 -.11446305E+02 0.12295539E+02 0.51099893E-03 0.0000E+00 0.9000E+01
       23  1    3    3    0    0 0.79410758E+01 -.45143473E+02 -.37022339E+03 0.38403334E+03 0.91188000E+02 0.0000E+00 0.9000E+01
#aMCatNLO 1  0  0  2  1 0.32593740D+02 0.00000000D+00  -5  7  0 0.00000000D+00 0.00000000D+00 0.00000000D+00 0.00000000D+00 0.00000000D+00
  <mgrwgt>
 0.2868803067D-03    9    2    0
 0.323976628423499D+03 0.000000000000000D+00 0.000000000000000D+00 0.323976628423499D+03
 0.323976628423499D+03 0.000000000000000D+00 0.000000000000000D+00 -.323976628423499D+03
 0.138565548570019D+03 0.100559031138867D+03 -.209467447352979D+02 0.182831903101436D+02
 0.252287795565212D+03 -.112980939205931D+03 0.663809349225166D+02 0.215587593905847D+03
 0.816422315940800D+01 0.448083227480014D+01 -.290716989496509D+00 -.681851637482392D+01
 0.248935689552359D+03 0.794107579226409D+01 -.451434731977221D+02 -.227052267841166D+03
 0.000000000000000D+00 -.000000000000000D+00 -.000000000000000D+00 -.000000000000000D+00
 0.332188789026684D+03 0.000000000000000D+00 0.000000000000000D+00 0.332188789026684D+03
 0.358424946678409D+03 0.000000000000000D+00 0.000000000000000D+00 -.358424946678409D+03
 0.141890767293743D+03 0.105905866078868D+03 -.163527056285822D+02 0.182831903101436D+02
 0.250472240160360D+03 -.103395935148618D+03 0.746164394726764D+02 0.215587593905847D+03
 0.833597564107422D+01 0.479540475711938D+01 -.204340460564980D-01 -.681851637482392D+01
 0.248073530906416D+03 0.174164418836530D+02 -.370021703778738D+02 -.227052267841166D+03
 0.418412217034998D+02 -.247217775710221D+02 -.212411294201639D+02 -.262361576517253D+02
0.298038609234D-05 0.000000000000D+00 0.000000000000D+00 0.234908900115D-06 0.000000000000D+00  7 -2 2 23 -11 11 23 21 0 0.31454088D-01 0.78981168D-01 0.35145552D+05 0.35145552D+05 0.35145552D+05 0.11610105D+01  1  2  2  2  7  2        2 0.199616540411D-03 0.100000000000D+01
-.105331151642D-06 0.000000000000D+00 -.114454673483D-07 0.234908900115D-06 0.000000000000D+00  7 -2 2 23 -11 11 23 21 2 0.31454088D-01 0.78981168D-01 0.35145552D+05 0.35145552D+05 0.35145552D+05 0.11610105D+01  1  2  3  2  7  2        2 -.950940019887D-05 0.100000000000D+01
0.177333997602D-06 0.000000000000D+00 0.000000000000D+00 0.234908900115D-06 0.000000000000D+00  7 -2 2 23 -11 11 23 21 2 0.31454088D-01 0.78981168D-01 0.35145552D+05 0.35145552D+05 0.35145552D+05 0.11610105D+01  1  2 15  2  7  2        2 0.160098881079D-04 0.100000000000D+01
0.961363222927D-05 0.000000000000D+00 0.000000000000D+00 0.234908900115D-06 0.000000000000D+00  7 -2 2 23 -11 11 23 21 2 0.31454088D-01 0.88308681D-01 0.41116477D+05 0.41116477D+05 0.41116477D+05 0.11548437D+01  1  2 12  2  7  2        2 0.758063810964D-03 0.100000000000D+01
-.976516921369D-05 0.000000000000D+00 0.000000000000D+00 0.234908900115D-06 0.000000000000D+00  7 -2 2 23 -11 11 23 21 2 0.31454088D-01 0.78981168D-01 0.35145552D+05 0.35145552D+05 0.35145552D+05 0.11610105D+01  1  2  4  2  7  2        2 -.881609102485D-03 0.100000000000D+01
-.175309214712D-04 0.000000000000D+00 -.351109716551D-05 0.234908900115D-06 0.000000000000D+00  7 -2 2 23 -11 11 23 21 2 0.31454088D-01 0.88911734D-01 0.35145552D+05 0.35145552D+05 0.35145552D+05 0.11610105D+01  1  2  5  2  7  2        2 -.138773440248D-02 0.100000000000D+01
0.178459319286D-04 0.000000000000D+00 0.348661558605D-05 0.234908900115D-06 0.000000000000D+00  7 -2 2 23 -11 11 23 21 2 0.31454088D-01 0.78981168D-01 0.35145552D+05 0.35145552D+05 0.35145552D+05 0.11610105D+01  1  2  6  2  7  2        2 0.161114832588D-02 0.100000000000D+01
0.171587808207D-06 0.000000000000D+00 0.000000000000D+00 0.234908900115D-06 0.000000000000D+00  7 -2 21 23 -11 11 23 -2 2 0.31454088D-01 0.88308681D-01 0.41116477D+05 0.41116477D+05 0.41116477D+05 0.11548437D+01  1  2 12  4  7  2        2 0.230654772834D-04 0.100000000000D+01
-.313120747867D-06 0.000000000000D+00 -.658865444254D-07 0.234908900115D-06 0.000000000000D+00  7 -2 21 23 -11 11 23 -2 2 0.31454088D-01 0.88911734D-01 0.35145552D+05 0.35145552D+05 0.35145552D+05 0.11610105D+01  1  2  5  4  7  2        2 -.421708308141D-04 0.100000000000D+01
  </mgrwgt>
  </event>
  <event>
  8     66 0.53686478E-06 0.18263306E+03 0.75467711E-02 0.99633481E-01
       -2 -1    0    0    0  501 0.00000000E+00 0.00000000E+00 0.19129506E+03 0.19129532E+03 0.32000000E+00 0.0000E+00 0.9000E+01
        2 -1    0    0  501    0 0.00000000E+00 0.00000000E+00 -.16355204E+04 0.16355204E+04 0.32000000E+00 0.0000E+00 0.9000E+01
       25  2    1    2    0    0 -.15609397E+03 0.18937556E+03 -.31076451E+02 0.38967751E+03 0.30108867E+03 0.0000E+00 0.0000E+00
       23  2    1    2    0    0 0.15609397E+03 -.18937556E+03 -.14131489E+04 0.14371382E+04 0.90266855E+02 0.0000E+00 0.0000E+00
       23  1    3    3    0    0 -.18377807E+03 0.20559839E+03 -.37168378E+02 0.29281703E+03 0.91188000E+02 0.0000E+00 0.9000E+01
      -13  1    4    4    0    0 0.16228480E+03 -.15829671E+03 -.11538313E+04 0.11758915E+04 0.10565837E+00 0.0000E+00 0.9000E+01
       13  1    4    4    0    0 -.61908243E+01 -.31078845E+02 -.25931762E+03 0.26124674E+03 0.10565837E+00 0.0000E+00 0.9000E+01
       23  1    3    3    0    0 0.27684099E+02 -.16222828E+02 0.60919275E+01 0.96860479E+02 0.91188000E+02 0.0000E+00 0.9000E+01
#aMCatNLO 1  0  0  1  2 0.13635431D+02 0.00000000D+00  -5  7  0 0.00000000D+00 0.00000000D+00 0.00000000D+00 0.00000000D+00 0.00000000D+00
  <mgrwgt>
 0.3339597048D-03    6    2    0
 0.559345368598763D+03 0.000000000000000D+00 0.000000000000000D+00 0.559345368598763D+03
 0.559345368598763D+03 0.000000000000000D+00 0.000000000000000D+00 -.559345368598763D+03
 0.430184359863139D+03 -.183778071012128D+03 0.205598386436865D+03 0.317329885507932D+03
 0.430633113945498D+03 0.162285027168438D+03 -.158296887816605D+03 -.366129135812643D+03
 0.918359847241240D+02 -.619105506155351D+01 -.310786707377821D+02 -.861953313854462D+02
 0.166037278664764D+03 0.276840989052439D+02 -.162228278824782D+02 0.134994581690158D+03
 0.000000000000000D+00 0.000000000000000D+00 -.000000000000000D+00 -.000000000000000D+00
 0.565944331781284D+03 0.000000000000000D+00 0.000000000000000D+00 0.565944331781284D+03
 0.566475265515704D+03 0.000000000000000D+00 0.000000000000000D+00 -.566475265515704D+03
 0.433120485132695D+03 -.184832765375683D+03 0.210752688961923D+03 0.317329885507932D+03
 0.428378289642578D+03 0.161235578076561D+03 -.153168218989791D+03 -.366129135812643D+03
 0.914868140686082D+02 -.641501942792834D+01 -.299841545072811D+02 -.861953313854462D+02
 0.165788244632378D+03 0.272787096489067D+02 -.142416862932433D+02 0.134994581690158D+03
 0.136457638207287D+02 0.273349707814381D+01 -.133586291716082D+02 -.530933734420135D+00
0.152180085042D-04 0.000000000000D+00 0.000000000000D+00 0.321323365689D-06 0.000000000000D+00  7 -2 2 23 -13 13 23 21 0 0.29430032D-01 0.25161855D+00 0.10417070D+06 0.10417070D+06 0.10417070D+06 0.11202687D+01  1  2  2  1  7  1       -2 0.221808384222D-03 0.100000000000D+01
-.534636162491D-06 0.000000000000D+00 -.584411596497D-07 0.321323365689D-06 0.000000000000D+00  7 -2 2 23 -13 13 23 21 2 0.29430032D-01 0.25161855D+00 0.10417070D+06 0.10417070D+06 0.10417070D+06 0.11202687D+01  1  2  3  1  7  1       -2 -.977964036314D-05 0.100000000000D+01
0.904825657519D-06 0.000000000000D+00 0.000000000000D+00 0.321323365689D-06 0.000000000000D+00  7 -2 2 23 -13 13 23 21 2 0.29430032D-01 0.25161855D+00 0.10417070D+06 0.10417070D+06 0.10417070D+06 0.11202687D+01  1  2 15  1  7  1       -2 0.165511990073D-04 0.100000000000D+01
0.896690381851D-05 0.000000000000D+00 0.000000000000D+00 0.321323365689D-06 0.000000000000D+00  7 -2 2 23 -13 13 23 21 2 0.29962522D-01 0.25161855D+00 0.10814511D+06 0.10814511D+06 0.10814511D+06 0.11189420D+01  1  2 12  1  7  1       -2 0.158357366930D-03 0.100000000000D+01
-.656109414771D-05 0.000000000000D+00 0.000000000000D+00 0.321323365689D-06 0.000000000000D+00  7 -2 2 23 -13 13 23 21 2 0.29430032D-01 0.25161855D+00 0.10417070D+06 0.10417070D+06 0.10417070D+06 0.11202687D+01  1  2  4  1  7  1       -2 -.120016462886D-03 0.100000000000D+01
0.320507630746D-06 0.000000000000D+00 0.000000000000D+00 0.321323365689D-06 0.000000000000D+00  7 21 2 23 -13 13 23 2 2 0.29962522D-01 0.25161855D+00 0.10814511D+06 0.10814511D+06 0.10814511D+06 0.11189420D+01  1  2 12  3  7  1       -2 0.670388579153D-04 0.100000000000D+01
  </mgrwgt>
  </event>
  <event>
  8     66 0.53686478E-06 0.13071055E+03 0.75467711E-02 0.10243091E+00
       -2 -1    0    0    0  501 0.00000000E+00 0.00000000E+00 0.90531564E+03 0.90531569E+03 0.32000000E+00 0.0000E+00 0.9000E+01
        2 -1    0    0  501    0 0.00000000E+00 0.00000000E+00 -.61794886E+02 0.61795715E+02 0.32000000E+00 0.0000E+00 0.9000E+01
       25  2    1    2    0    0 0.12745610E+02 0.20621600E+02 0.79025958E+03 0.84755041E+03 0.30535848E+03 0.0000E+00 0.0000E+00
       23  2    1    2    0    0 -.12745610E+02 -.20621600E+02 0.53261172E+02 0.11956099E+03 0.10426110E+03 0.0000E+00 0.0000E+00
       23  1    3    3    0    0 0.58284528E+02 0.15741249E+02 0.70823032E+03 0.71662424E+03 0.91188000E+02 0.0000E+00 0.9000E+01
      -13  1    4    4    0    0 -.25296565E+02 0.66387276E+00 0.79552254E+02 0.83480113E+02 0.10565837E+00 0.0000E+00 0.9000E+01
       13  1    4    4    0    0 0.12550956E+02 -.21285473E+02 -.26291082E+02 0.36080881E+02 0.10565837E+00 0.0000E+00 0.9000E+01
       23  1    3    3    0    0 -.45538918E+02 0.48803506E+01 0.82029260E+02 0.13092617E+03 0.91188000E+02 0.0000E+00 0.9000E+01
#aMCatNLO 1  0  0  2  1 0.20390394D+03 0.00000000D+00  -5  7  0 0.00000000D+00 0.00000000D+00 0.00000000D+00 0.00000000D+00 0.00000000D+00
  <mgrwgt>
 0.2140022130D-03    3    2    0
 0.236525484470143D+03 0.000000000000000D+00 0.000000000000000D+00 0.236525484470143D+03
 0.236525484470143D+03 0.000000000000000D+00 0.000000000000000D+00 -.236525484470143D+03
 0.202195106234369D+03 0.582843223729130D+02 0.157414116994123D+02 0.170066914373043D+03
 0.288137856243882D+02 -.252964976578857D+02 0.663809052617984D+00 0.137797244455195D+02
 0.120646234818337D+03 0.125507040392785D+02 -.212857067514340D+02 -.118088579007675D+03
 0.121395842263190D+03 -.455385287543058D+02 0.488048599940380D+01 -.657580598108875D+02
 0.000000000000000D+00 0.000000000000000D+00 -.000000000000000D+00 0.000000000000000D+00
 0.538356401555485D+03 0.000000000000000D+00 0.000000000000000D+00 0.538356401555485D+03
 0.294579847702458D+03 0.000000000000000D+00 0.000000000000000D+00 -.294579847702458D+03
 0.225662794449074D+03 0.537432232040483D+02 0.103910326964346D+03 0.170066914373043D+03
 0.322231547075017D+02 -.259443174096501D+02 0.132417252522649D+02 0.137797244455195D+02
 0.121935690159689D+03 0.997604414369243D+01 0.287032852807975D+02 -.118088579007675D+03
 0.135303622130382D+03 -.482630261225760D+02 0.577786872211593D+02 -.657580598108875D+02
 0.317810987811295D+03 0.104880761844853D+02 -.203634024718567D+03 0.243776553853027D+03
0.641766779146D-05 0.000000000000D+00 0.000000000000D+00 0.461279526310D-10 0.000000000000D+00  7 -2 2 23 -13 13 23 21 0 0.13927940D+00 0.95069737D-02 0.17085247D+05 0.17085247D+05 0.17085247D+05 0.11907245D+01  1  2  2  2  7  2        2 0.206342585995D-03 0.100000000000D+01
-.204061938181D-06 0.000000000000D+00 -.246455341299D-07 0.461279526310D-10 0.000000000000D+00  7 -2 2 23 -13 13 23 21 2 0.13927940D+00 0.95069737D-02 0.17085247D+05 0.17085247D+05 0.17085247D+05 0.11907245D+01  1  2  3  2  7  2        2 -.930242566569D-05 0.100000000000D+01
0.372086751953D-06 0.000000000000D+00 0.000000000000D+00 0.461279526310D-10 0.000000000000D+00  7 -2 2 23 -13 13 23 21 2 0.13927940D+00 0.95069737D-02 0.17085247D+05 0.17085247D+05 0.17085247D+05 0.11907245D+01  1  2 15  2  7  2        2 0.169620527086D-04 0.100000000000D+01
  </mgrwgt>
  </event>
  <event>
  8     66 0.53686478E-06 0.97540548E+02 0.75467711E-02 0.99519870E-01
       -2 -1    0    0    0  501 0.00000000E+00 0.00000000E+00 0.69381530E+02 0.69382268E+02 0.32000000E+00 0.0000E+00 0.9000E+01
        2 -1    0    0  501    0 0.00000000E+00 0.00000000E+00 -.92315861E+03 0.92315867E+03 0.32000000E+00 0.0000E+00 0.9000E+01
       25  2    1    2    0    0 -.14371637E+03 -.16893380E+02 -.51928354E+03 0.61693099E+03 0.30001446E+03 0.0000E+00 0.0000E+00
       23  2    1    2    0    0 0.14371637E+03 0.16893380E+02 -.33449354E+03 0.37560994E+03 0.90868683E+02 0.0000E+00 0.0000E+00
       23  1    3    3    0    0 -.15638545E+02 -.87355646E+02 -.36175224E+03 0.38347817E+03 0.91188000E+02 0.0000E+00 0.9000E+01
      -11  1    4    4    0    0 0.48630777E+02 0.61783225E+01 -.32492368E+02 0.58812228E+02 0.51099893E-03 0.0000E+00 0.9000E+01
       11  1    4    4    0    0 0.95085588E+02 0.10715058E+02 -.30200118E+03 0.31679771E+03 0.51099893E-03 0.0000E+00 0.9000E+01
       23  1    3    3    0    0 -.12807782E+03 0.70462265E+02 -.15753129E+03 0.23345282E+03 0.91188000E+02 0.0000E+00 0.9000E+01
#aMCatNLO 1  0  0  2  1 0.18389027D+03 0.00000000D+00  -5  7  0 0.00000000D+00 0.00000000D+00 0.00000000D+00 0.00000000D+00 0.00000000D+00
  <mgrwgt>
 0.4067754089D-03    8    2    0
 0.253082103205523D+03 0.000000000000000D+00 0.000000000000000D+00 0.253082103205523D+03
 0.253082103205523D+03 0.000000000000000D+00 0.000000000000000D+00 -.253082103205523D+03
 0.141776147109469D+03 -.156385447402636D+02 -.873556456439928D+02 -.625272071800248D+02
 0.605185111237979D+02 0.486307769888544D+02 0.617832248378787D+01 0.354875478074758D+02
 0.111807623795369D+03 0.950855883499818D+02 0.107150578447527D+02 -.578347919706492D+02
 0.192061924382409D+03 -.128077820598573D+03 0.704622653154522D+02 0.848744513431982D+02
 0.000000000000000D+00 -.000000000000000D+00 0.000000000000000D+00 -.000000000000000D+00
 0.317200013020543D+03 0.000000000000000D+00 0.000000000000000D+00 0.317200013020543D+03
 0.445633955482425D+03 0.000000000000000D+00 0.000000000000000D+00 -.445633955482425D+03
 0.153744018372886D+03 0.345329538637858D+02 -.101093003225496D+03 -.625272071800248D+02
 0.808362720095311D+02 0.726290760324200D+02 -.392603728942457D+00 0.354875478074758D+02
 0.151247964800052D+03 0.139745461473904D+03 -.151317259918264D+01 -.578347919706492D+02
 0.152704783264817D+03 -.695455632035072D+02 0.544356651089414D+02 0.848744513431982D+02
 0.224300930055682D+03 -.177361928166603D+03 0.485631144446799D+02 -.128433942461881D+03
0.132572800766D-05 0.000000000000D+00 0.000000000000D+00 0.360228872918D-06 0.000000000000D+00  7 -2 2 23 -11 11 23 21 0 0.10674143D-01 0.14202446D+00 0.49337967D+05 0.49337967D+05 0.49337967D+05 0.11478049D+01  1  2  2  2  7  2        2 0.256531134894D-03 0.100000000000D+01
-.721267533318D-07 0.000000000000D+00 -.509114462162D-08 0.360228872918D-06 0.000000000000D+00  7 -2 2 23 -11 11 23 21 2 0.10674143D-01 0.14202446D+00 0.49337967D+05 0.49337967D+05 0.49337967D+05 0.11478049D+01  1  2  3  2  7  2        2 -.183873097713D-04 0.100000000000D+01
0.871619031374D-07 0.000000000000D+00 0.000000000000D+00 0.360228872918D-06 0.000000000000D+00  7 -2 2 23 -11 11 23 21 2 0.10674143D-01 0.14202446D+00 0.49337967D+05 0.49337967D+05 0.49337967D+05 0.11478049D+01  1  2 15  2  7  2        2 0.222202281291D-04 0.100000000000D+01
0.382751809760D-07 0.000000000000D+00 0.000000000000D+00 0.360228872918D-06 0.000000000000D+00  7 -2 2 23 -11 11 23 21 2 0.10674143D-01 0.25673175D+00 0.11011583D+06 0.11011583D+06 0.11011583D+06 0.11183039D+01  1  2 12  2  7  2        2 0.351994709275D-05 0.100000000000D+01
-.567730401280D-06 0.000000000000D+00 -.405846079812D-06 0.360228872918D-06 0.000000000000D+00  7 -2 2 23 -11 11 23 21 2 0.10674143D-01 0.27999944D+00 0.49337967D+05 0.49337967D+05 0.49337967D+05 0.11478049D+01  1  2  5  2  7  2        2 -.463609841486D-04 0.100000000000D+01
0.743606482941D-06 0.000000000000D+00 0.327464420862D-06 0.360228872918D-06 0.000000000000D+00  7 -2 2 23 -11 11 23 21 2 0.10674143D-01 0.14202446D+00 0.49337967D+05 0.49337967D+05 0.49337967D+05 0.11478049D+01  1  2  6  2  7  2        2 0.189567977459D-03 0.100000000000D+01
0.248293526793D-08 0.000000000000D+00 0.000000000000D+00 0.360228872918D-06 0.000000000000D+00  7 -2 21 23 -11 11 23 -2 2 0.10674143D-01 0.25673175D+00 0.11011583D+06 0.11011583D+06 0.11011583D+06 0.11183039D+01  1  2 12  4  7  2        2 0.688623088927D-07 0.100000000000D+01
-.176726235181D-07 0.000000000000D+00 -.298306962578D-07 0.360228872918D-06 0.000000000000D+00  7 -2 21 23 -11 11 23 -2 2 0.10674143D-01 0.27999944D+00 0.49337967D+05 0.49337967D+05 0.49337967D+05 0.11478049D+01  1  2  5  4  7  2        2 -.384447074492D-06 0.100000000000D+01
  </mgrwgt>
  </event>
  <event>
  9     66 -.53686478E-06 0.34132848E+03 0.75467711E-02 0.98375452E-01
       -2 -1    0    0    0  501 0.00000000E+00 0.00000000E+00 0.25202882E+03 0.25202902E+03 0.32000000E+00 0.0000E+00 0.9000E+01
        2 -1    0    0  502    0 0.00000000E+00 0.00000000E+00 -.11426721E+04 0.11426722E+04 0.32000000E+00 0.0000E+00 0.9000E+01
       25  2    1    2    0    0 0.20349146E+03 0.20835228E+03 -.95032533E+03 0.10382235E+04 0.29995057E+03 0.0000E+00 0.0000E+00
       23  2    1    2    0    0 -.19105221E+03 -.16183347E+03 0.10827131E+03 0.28806559E+03 0.92563971E+02 0.0000E+00 0.0000E+00
       23  1    3    3    0    0 0.23450132E+03 0.19788873E+03 -.69649022E+03 0.76652768E+03 0.91188000E+02 0.0000E+00 0.9000E+01
      -11  1    4    4    0    0 -.15344168E+03 -.16441463E+03 0.10994672E+03 0.25032938E+03 0.51099893E-03 0.0000E+00 0.9000E+01
       11  1    4    4    0    0 -.37610531E+02 0.25811612E+01 -.16754033E+01 0.37736208E+02 0.51099893E-03 0.0000E+00 0.9000E+01
       23  1    3    3    0    0 -.31009854E+02 0.10463552E+02 -.25383511E+03 0.27169581E+03 0.91188000E+02 0.0000E+00 0.9000E+01
       21  1    1    2  502  501 -.12439251E+02 -.46518815E+02 -.48589304E+02 0.68412120E+02 0.75000000E+00 0.0000E+00 0.9000E+01
#aMCatNLO 2  0  0  2  1 0.48153246D+02 0.00000000D+00  -5  7  0 0.00000000D+00 0.00000000D+00 0.00000000D+00 0.00000000D+00 0.00000000D+00
  <mgrwgt>
 -.8809343957D-04    3    2    0
 0.511778526565664D+03 0.000000000000000D+00 0.000000000000000D+00 0.511778526565664D+03
 0.511778526565664D+03 0.000000000000000D+00 0.000000000000000D+00 -.511778526565664D+03
 0.408411380595514D+03 0.229471545841760D+03 0.179078989907138D+03 -.271584479451176D+03
 0.424155426871477D+03 -.158534090347402D+03 -.183458601599044D+03 0.348019697490774D+03
 0.478587052746684D+02 -.381894523696887D+02 0.416180852656566D+00 0.288417785819240D+02
 0.143131540389667D+03 -.327480031246690D+02 0.396343083924943D+01 -.105276996621523D+03
 0.000000000000000D+00 -.000000000000000D+00 -.000000000000000D+00 -.000000000000000D+00
 0.533315193735474D+03 0.000000000000000D+00 0.000000000000000D+00 0.533315193735474D+03
 0.539987195282119D+03 0.000000000000000D+00 0.000000000000000D+00 -.539987195282119D+03
 0.419790660545432D+03 0.234501318783084D+03 0.197888729712933D+03 -.271584479451176D+03
 0.414360024492515D+03 -.153441682796289D+03 -.164414628413991D+03 0.348019697490774D+03
 0.474664368838881D+02 -.376105310475480D+02 0.258116117374184D+01 0.288417785819240D+02
 0.143071990013546D+03 -.310098538550167D+02 0.104635523928837D+02 -.105276996621523D+03
 0.486132770822119D+02 -.124392510842300D+02 -.465188148655676D+02 -.667200154664494D+01
-.216028583511D-04 0.000000000000D+00 0.000000000000D+00 0.139806433159D-05 0.000000000000D+00  7 -2 2 23 -11 11 23 21 2 0.37207700D-01 0.17913126D+00 0.13239805D+06 0.13239805D+06 0.13239805D+06 0.11118554D+01  1  2 13  2  7  2        2 -.460948688317D-03 0.100000000000D+01
-.201395891797D-06 0.000000000000D+00 0.000000000000D+00 0.139806433159D-05 0.000000000000D+00  7 -2 2 23 -11 11 23 21 2 0.37207700D-01 0.16661135D+00 0.11650513D+06 0.11650513D+06 0.11650513D+06 0.11163180D+01  1  2  8  2  7  2        2 -.484932463572D-05 0.100000000000D+01
0.185548468974D-04 0.000000000000D+00 0.000000000000D+00 0.139806433159D-05 0.398026452493D-08  7 -2 2 23 -11 11 23 21 2 0.38773474D-01 0.17579478D+00 0.13239805D+06 0.13239805D+06 0.13239805D+06 0.11118554D+01  1  2  1  2  7  2        2 0.377704573385D-03 0.100000000000D+01
  </mgrwgt>
  </event>
  <event>
  8     66 0.53686478E-06 0.18373054E+03 0.75467711E-02 0.10177307E+00
       -2 -1    0    0    0  501 0.00000000E+00 0.00000000E+00 0.64999576E+02 0.65000363E+02 0.32000000E+00 0.0000E+00 0.9000E+01
        2 -1    0    0  501    0 0.00000000E+00 0.00000000E+00 -.67388139E+03 0.67388146E+03 0.32000000E+00 0.0000E+00 0.9000E+01
       25  2    1    2    0    0 0.30415862E+02 -.26306869E+02 -.35769782E+03 0.46942428E+03 0.30132084E+03 0.0000E+00 0.0000E+00
       23  2    1    2    0    0 -.30415862E+02 0.26306869E+02 -.25118399E+03 0.26945755E+03 0.88863922E+02 0.0000E+00 0.0000E+00
       23  1    3    3    0    0 0.40543897E+02 -.11582146E+03 -.28141022E+03 0.32025831E+03 0.91188000E+02 0.0000E+00 0.9000E+01
      -11  1    4    4    0    0 -.39479196E+02 -.16389926E+02 -.62026353E+02 0.75329310E+02 0.51099893E-03 0.0000E+00 0.9000E+01
       11  1    4    4    0    0 0.90633336E+01 0.42696795E+02 -.18915764E+03 0.19412824E+03 0.51099893E-03 0.0000E+00 0.9000E+01
       23  1    3    3    0    0 -.10128035E+02 0.89514587E+02 -.76287594E+02 0.14916597E+03 0.91188000E+02 0.0000E+00 0.9000E+01
#aMCatNLO 1  0  0  2  2 0.15762433D+03 0.00000000D+00  -5  7  0 0.00000000D+00 0.00000000D+00 0.00000000D+00 0.00000000D+00 0.00000000D+00
  <mgrwgt>
 0.7055909525D-03    3    2    0
 0.209290045873733D+03 0.000000000000000D+00 0.000000000000000D+00 0.209290045873733D+03
 0.209290045873733D+03 0.000000000000000D+00 0.000000000000000D+00 -.209290045873733D+03
 0.155973675161438D+03 0.405438976712714D+02 -.115821455723636D+03 -.308888127814118D+02
 0.427462770724444D+02 -.394791963689454D+02 -.163899253532851D+02 0.872039573672119D-01
 0.675215619510048D+02 0.906333283976611D+01 0.426967958234796D+02 -.515169967345447D+02
 0.152338577562578D+03 -.101280341420921D+02 0.895145852534418D+02 0.823186055585893D+02
 0.000000000000000D+00 -.000000000000000D+00 0.000000000000000D+00 0.000000000000000D+00
 0.430957237470839D+03 0.000000000000000D+00 0.000000000000000D+00 0.430957237470839D+03
 0.253597649394749D+03 0.000000000000000D+00 0.000000000000000D+00 -.253597649394749D+03
 0.189188810890629D+03 0.102447571365526D+03 -.126599886210338D+03 -.308888127814118D+02
 0.320890528506109D+02 -.260577440629730D+02 -.187268172060207D+02 0.872039573672119D-01
 0.727547159788019D+02 0.342213882105382D+02 0.383163716125716D+02 -.515169967345447D+02
 0.153242192986820D+03 0.446767985721884D+02 0.799721777597647D+02 0.823186055585893D+02
 0.237280114158727D+03 -.155288014085279D+03 0.270381540440223D+02 0.177359588076090D+03
0.222199362271D-05 0.000000000000D+00 0.000000000000D+00 0.400335673692D-08 0.000000000000D+00  7 -2 2 23 -11 11 23 21 0 0.10000001D-01 0.10367413D+00 0.33756911D+05 0.33756911D+05 0.33756911D+05 0.11626113D+01  1  2  2  2  7  2        2 0.697961822510D-03 0.100000000000D+01
-.120897770319D-06 0.000000000000D+00 -.853304057557D-08 0.400335673692D-08 0.000000000000D+00  7 -2 2 23 -11 11 23 21 2 0.10000001D-01 0.10367413D+00 0.33756911D+05 0.33756911D+05 0.33756911D+05 0.11626113D+01  1  2  3  2  7  2        2 -.513305871687D-04 0.100000000000D+01
0.138866487619D-06 0.000000000000D+00 0.000000000000D+00 0.400335673692D-08 0.000000000000D+00  7 -2 2 23 -11 11 23 21 2 0.10000001D-01 0.10367413D+00 0.33756911D+05 0.33756911D+05 0.33756911D+05 0.11626113D+01  1  2 15  2  7  2        2 0.589597171950D-04 0.100000000000D+01
  </mgrwgt>
  </event>
  <event>
  8     66 0.53686478E-06 0.28703273E+03 0.75467711E-02 0.98200067E-01
       -2 -1    0    0    0  501 0.00000000E+00 0.00000000E+00 0.29050102E+03 0.29050120E+03 0.32000000E+00 0.0000E+00 0.9000E+01
        2 -1    0    0  501    0 0.00000000E+00 0.00000000E+00 -.53924200E+03 0.53924210E+03 0.32000000E+00 0.0000E+00 0.9000E+01
       25  2    1    2    0    0 0.11713611E+03 -.20538945E+03 0.10349735E+03 0.39562022E+03 0.29982989E+03 0.0000E+00 0.0000E+00
       23  2    1    2    0    0 -.11713611E+03 0.20538945E+03 -.35223833E+03 0.43412307E+03 0.92115689E+02 0.0000E+00 0.0000E+00
       23  1    3    3    0    0 0.97171099E+02 -.20409861E+03 -.15653789E+02 0.24425142E+03 0.91188000E+02 0.0000E+00 0.9000E+01
      -13  1    4    4    0    0 -.83328734E+02 0.13113331E+03 -.29823690E+03 0.33628096E+03 0.10565837E+00 0.0000E+00 0.9000E+01
       13  1    4    4    0    0 -.33807378E+02 0.74256136E+02 -.54001437E+02 0.97842112E+02 0.10565837E+00 0.0000E+00 0.9000E+01
       23  1    3    3    0    0 0.19965012E+02 -.12908388E+01 0.11915114E+03 0.15136880E+03 0.91188000E+02 0.0000E+00 0.9000E+01
#aMCatNLO 1  0  0  2  1 0.13570107D+03 0.00000000D+00  -5  7  0 0.00000000D+00 0.00000000D+00 0.00000000D+00 0.00000000D+00 0.00000000D+00
  <mgrwgt>
 0.2582667210D-03    4    2    0
 0.395790934580029D+03 0.000000000000000D+00 0.000000000000000D+00 0.395790934580029D+03
 0.395790934580029D+03 0.000000000000000D+00 0.000000000000000D+00 -.395790934580029D+03
 0.251107623247441D+03 0.971710991484872D+02 -.204098611128215D+03 0.603433636350132D+02
 0.258777162443351D+03 -.833287988808800D+02 0.131133388724191D+03 -.206944353489078D+03
 0.855897387791275D+02 -.338073126433368D+02 0.742560613030409D+02 -.258593572208205D+02
 0.196107344690137D+03 0.199650123757296D+02 -.129083889901668D+01 0.172460347074886D+03
 0.000000000000000D+00 0.000000000000000D+00 -.000000000000000D+00 0.000000000000000D+00
 0.647244196649889D+03 0.000000000000000D+00 0.000000000000000D+00 0.647244196649889D+03
 0.420303256890997D+03 0.000000000000000D+00 0.000000000000000D+00 -.420303256890997D+03
 0.217870249990320D+03 0.918396657040835D+02 -.164548925111710D+03 0.603433636350132D+02
 0.286739274251170D+03 -.895303378895032D+02 0.177137699416207D+03 -.206944353489078D+03
 0.100228190068190D+03 -.359197276994820D+02 0.899263970726411D+02 -.258593572208205D+02
 0.198291563605944D+03 0.154814073911081D+02 0.319694786521579D+02 0.172460347074886D+03
 0.264418175625261D+03 0.181289924937936D+02 -.134484650029296D+03 0.226940939758892D+03
0.831758690155D-05 0.000000000000D+00 0.000000000000D+00 0.684064859142D-06 0.000000000000D+00  7 -2 2 23 -13 13 23 21 0 0.44692485D-01 0.82960329D-01 0.82387788D+05 0.82387788D+05 0.82387788D+05 0.11286926D+01  1  2  2  2  7  2        2 0.276188460753D-03 0.100000000000D+01
-.404091841693D-06 0.000000000000D+00 -.319417237729D-07 0.684064859142D-06 0.000000000000D+00  7 -2 2 23 -13 13 23 21 2 0.44692485D-01 0.82960329D-01 0.82387788D+05 0.82387788D+05 0.82387788D+05 0.11286926D+01  1  2  3  2  7  2        2 -.170938383015D-04 0.100000000000D+01
0.544022600203D-06 0.000000000000D+00 0.000000000000D+00 0.684064859142D-06 0.000000000000D+00  7 -2 2 23 -13 13 23 21 2 0.44692485D-01 0.82960329D-01 0.82387788D+05 0.82387788D+05 0.82387788D+05 0.11286926D+01  1  2 15  2  7  2        2 0.230131702765D-04 0.100000000000D+01
-.563593876962D-06 0.000000000000D+00 0.000000000000D+00 0.684064859142D-06 0.000000000000D+00  7 -2 2 23 -13 13 23 21 2 0.44692485D-01 0.82960329D-01 0.82387788D+05 0.82387788D+05 0.82387788D+05 0.11286926D+01  1  2  4  2  7  2        2 -.238410717725D-04 0.100000000000D+01
  </mgrwgt>
  </event>
  <event>
  8     66 0.53686478E-06 0.34079884E+03 0.75467711E-02 0.92272146E-01
       -2 -1    0    0    0  501 0.00000000E+00 0.00000000E+00 0.20860497E+03 0.20860522E+03 0.32000000E+00 0.0000E+00 0.9000E+01
        2 -1    0    0  501    0 0.00000000E+00 0.00000000E+00 -.11425764E+04 0.11425764E+04 0.32000000E+00 0.0000E+00 0.9000E+01
       25  2    1    2    0    0 -.35114055E+03 -.12547799E+03 -.19085208E+03 0.51494690E+03 0.29950190E+03 0.0000E+00 0.0000E+00
       23  2    1    2    0    0 0.35114055E+03 0.12547799E+03 -.74311931E+03 0.83623472E+03 0.89542105E+02 0.0000E+00 0.0000E+00
       23  1    3    3    0    0 -.29212936E+02 -.91953448E+02 -.10120803E+03 0.16693456E+03 0.91188000E+02 0.0000E+00 0.9000E+01
      -11  1    4    4    0    0 0.54571622E+02 -.12306228E+02 -.93714076E+02 0.10914134E+03 0.51099893E-03 0.0000E+00 0.9000E+01
       11  1    4    4    0    0 0.29656892E+03 0.13778422E+03 -.64940523E+03 0.72709337E+03 0.51099893E-03 0.0000E+00 0.9000E+01
       23  1    3    3    0    0 -.32192761E+03 -.33524540E+02 -.89644046E+02 0.34801234E+03 0.91188000E+02 0.0000E+00 0.9000E+01
#aMCatNLO 1  0  0  2  1 0.32889975D+03 0.00000000D+00  -5  7  0 0.00000000D+00 0.00000000D+00 0.00000000D+00 0.00000000D+00 0.00000000D+00
  <mgrwgt>
 0.2082380437D-03    7    2    0
 0.488208261459999D+03 0.000000000000000D+00 0.000000000000000D+00 0.488208261459999D+03
 0.488208261459999D+03 0.000000000000000D+00 0.000000000000000D+00 -.488208261459999D+03
 0.134198375776249D+03 -.292129355721266D+02 -.919534475621751D+02 0.196244896410701D+02
 0.613913353420673D+02 0.545716219468749D+02 -.123062283986068D+02 -.252861795408254D+02
 0.384988670002057D+03 0.296568924418362D+03 0.137784215734490D+03 -.203171501430984D+03
 0.395838141799625D+03 -.321927610793110D+03 -.335245397737079D+02 0.208833191330739D+03
 0.000000000000000D+00 0.000000000000000D+00 -.000000000000000D+00 -.000000000000000D+00
 0.564880452278090D+03 0.000000000000000D+00 0.000000000000000D+00 0.564880452278090D+03
 0.105909063471695D+04 0.000000000000000D+00 0.000000000000000D+00 -.105909063471695D+04
 0.137169837480697D+03 -.693661777215905D+02 -.728253099211049D+02 0.196244896410701D+02
 0.464025869005672D+02 0.386217971309863D+02 -.470807621718087D+01 -.252861795408254D+02
 0.336016652051733D+03 0.189884722388900D+03 0.188606266241675D+03 -.203171501430984D+03
 0.510733335092486D+03 -.456069276099278D+03 0.303776534247314D+02 0.208833191330739D+03
 0.593648675469553D+03 0.296928934300982D+03 -.141450533528120D+03 -.494210182438857D+03
0.101323045666D-04 0.000000000000D+00 0.000000000000D+00 0.317301971025D-06 0.000000000000D+00  7 -2 2 23 -11 11 23 21 0 0.32093095D-01 0.17578100D+00 0.18146724D+06 0.18146724D+06 0.18146724D+06 0.11010837D+01  1  2  2  2  7  2        2 0.233393291236D-03 0.100000000000D+01
-.550186010915D-06 0.000000000000D+00 -.389107174328D-07 0.317301971025D-06 0.000000000000D+00  7 -2 2 23 -11 11 23 21 2 0.32093095D-01 0.17578100D+00 0.18146724D+06 0.18146724D+06 0.18146724D+06 0.11010837D+01  1  2  3  2  7  2        2 -.153649213348D-04 0.100000000000D+01
0.645670976398D-06 0.000000000000D+00 0.000000000000D+00 0.317301971025D-06 0.000000000000D+00  7 -2 2 23 -11 11 23 21 2 0.32093095D-01 0.17578100D+00 0.18146724D+06 0.18146724D+06 0.18146724D+06 0.11010837D+01  1  2 15  2  7  2        2 0.180315085511D-04 0.100000000000D+01
0.997444020713D-06 0.000000000000D+00 0.000000000000D+00 0.317301971025D-06 0.000000000000D+00  7 -2 2 23 -11 11 23 21 2 0.32093095D-01 0.37985118D+00 0.38272068D+06 0.38272068D+06 0.38272068D+06 0.10768129D+01  1  2 12  2  7  2        2 0.473967192130D-05 0.100000000000D+01
-.729721026203D-05 0.000000000000D+00 -.287106846732D-05 0.317301971025D-06 0.000000000000D+00  7 -2 2 23 -11 11 23 21 2 0.32093095D-01 0.39768659D+00 0.18146724D+06 0.18146724D+06 0.18146724D+06 0.11010837D+01  1  2  5  2  7  2        2 -.323817896082D-04 0.100000000000D+01
0.832119813151D-07 0.000000000000D+00 0.000000000000D+00 0.317301971025D-06 0.000000000000D+00  7 -2 21 23 -11 11 23 -2 2 0.32093095D-01 0.37985118D+00 0.38272068D+06 0.38272068D+06 0.38272068D+06 0.10768129D+01  1  2 12  4  7  2        2 0.470857862748D-07 0.100000000000D+01
-.465696002037D-06 0.000000000000D+00 -.254666736217D-06 0.317301971025D-06 0.000000000000D+00  7 -2 21 23 -11 11 23 -2 2 0.32093095D-01 0.39768659D+00 0.18146724D+06 0.18146724D+06 0.18146724D+06 0.11010837D+01  1  2  5  4  7  2        2 -.226802872660D-06 0.100000000000D+01
  </mgrwgt>
  </event>
  <event>
  8     66 0.53686478E-06 0.26818994E+03 0.75467711E-02 0.96425943E-01
       -2 -1    0    0    0  501 0.00000000E+00 0.00000000E+00 0.79440487E+02 0.79441131E+02 0.32000000E+00 0.0000E+00 0.9000E+01
        2 -1    0    0  501    0 0.00000000E+00 0.00000000E+00 -.13899815E+04 0.13899815E+04 0.32000000E+00 0.0000E+00 0.9000E+01
       25  2    1    2    0    0 -.14772122E+03 0.81621805E+02 -.38750457E+03 0.52660963E+03 0.31412454E+03 0.0000E+00 0.0000E+00
       23  2    1    2    0    0 0.14772122E+03 -.81621805E+02 -.92303644E+03 0.94281304E+03 0.91741368E+02 0.0000E+00 0.0000E+00
       23  1    3    3    0    0 -.78181637E+02 0.17074543E+03 -.25920035E+03 0.33281593E+03 0.91188000E+02 0.0000E+00 0.9000E+01
      -13  1    4    4    0    0 0.93763366E+00 0.95434456E+01 -.11179440E+02 0.14729140E+02 0.10565837E+00 0.0000E+00 0.9000E+01
       13  1    4    4    0    0 0.14678359E+03 -.91165250E+02 -.91185700E+03 0.92808390E+03 0.10565837E+00 0.0000E+00 0.9000E+01
       23  1    3    3    0    0 -.69539584E+02 -.89123622E+02 -.12830422E+03 0.19379370E+03 0.91188000E+02 0.0000E+00 0.9000E+01
#aMCatNLO 1  0  0  1  1 0.25232713D+03 0.00000000D+00  -5  7  0 0.00000000D+00 0.00000000D+00 0.00000000D+00 0.00000000D+00 0.00000000D+00
  <mgrwgt>
 0.3050589215D-03    5    2    0
 0.332297016942109D+03 0.000000000000000D+00 0.000000000000000D+00 0.332297016942109D+03
 0.332297016942109D+03 0.000000000000000D+00 0.000000000000000D+00 -.332297016942109D+03
 0.224730429693187D+03 -.781817262088516D+02 0.170745166064914D+03 0.831998836450731D+02
 0.105207064096355D+02 0.937446297292002D+00 0.954357573842680D+01 0.432742647798320D+01
 0.253872124934502D+03 0.146783926566547D+03 -.911654645287847D+02 -.185995679513576D+03
 0.175470772846893D+03 -.695396466549869D+02 -.891232772745563D+02 0.984683693905199D+02
 0.000000000000000D+00 -.000000000000000D+00 0.000000000000000D+00 0.000000000000000D+00
 0.488068922852732D+03 0.000000000000000D+00 0.000000000000000D+00 0.488068922852732D+03
 0.475455947801739D+03 0.000000000000000D+00 0.000000000000000D+00 -.475455947801739D+03
 0.171915754825560D+03 -.675549018677520D+02 0.987617841491681D+02 0.831998836450731D+02
 0.772088092115994D+01 0.142616937552453D+01 0.623309098190441D+01 0.432742647798320D+01
 0.313935047485072D+03 0.161996444211813D+03 -.194211156488154D+03 -.185995679513576D+03
 0.217311014676187D+03 -.590163560667886D+02 -.160405348108360D+03 0.984683693905199D+02
 0.252642172746492D+03 -.368513556527974D+02 0.249621629465442D+03 0.126129750509933D+02
0.336348806779D-05 0.000000000000D+00 0.000000000000D+00 0.171161561776D-08 0.000000000000D+00  7 -2 2 23 -13 13 23 21 0 0.12221666D-01 0.21384336D+00 0.71925847D+05 0.71925847D+05 0.71925847D+05 0.11336590D+01  1  2  2  1  7  1       -2 0.284489201620D-03 0.100000000000D+01
-.176423347177D-06 0.000000000000D+00 -.129166798070D-07 0.171161561776D-08 0.000000000000D+00  7 -2 2 23 -13 13 23 21 2 0.12221666D-01 0.21384336D+00 0.71925847D+05 0.71925847D+05 0.71925847D+05 0.11336590D+01  1  2  3  1  7  1       -2 -.191777128939D-04 0.100000000000D+01
0.214630581336D-06 0.000000000000D+00 0.000000000000D+00 0.171161561776D-08 0.000000000000D+00  7 -2 2 23 -13 13 23 21 2 0.12221666D-01 0.21384336D+00 0.71925847D+05 0.71925847D+05 0.71925847D+05 0.11336590D+01  1  2 15  1  7  1       -2 0.233309464590D-04 0.100000000000D+01
-.131164106457D-06 0.000000000000D+00 -.104436971614D-05 0.171161561776D-08 0.000000000000D+00  7 -2 2 23 -13 13 23 21 2 0.26619049D-01 0.21384336D+00 0.71925847D+05 0.71925847D+05 0.71925847D+05 0.11336590D+01  1  2  5  1  7  1       -2 -.400895829813D-05 0.100000000000D+01
0.545540146010D-07 0.000000000000D+00 -.880572236824D-07 0.171161561776D-08 0.000000000000D+00  7 21 2 23 -13 13 23 2 2 0.26619049D-01 0.21384336D+00 0.71925847D+05 0.71925847D+05 0.71925847D+05 0.11336590D+01  1  2  5  3  7  1       -2 0.204254445909D-04 0.100000000000D+01
  </mgrwgt>
  </event>
  <event>
  9     66 -.53686478E-06 0.86846150E+03 0.75467711E-02 0.88405736E-01
       -2 -1    0    0    0  502 0.00000000E+00 0.00000000E+00 0.53297238E+03 0.53297247E+03 0.32000000E+00 0.0000E+00 0.9000E+01
        2 -1    0    0  501    0 0.00000000E+00 0.00000000E+00 -.19918237E+04 0.19918237E+04 0.32000000E+00 0.0000E+00 0.9000E+01
       25  2    1    2    0    0 0.25561864E+03 -.83663258E+03 -.13020504E+04 0.15970848E+04 0.30008249E+03 0.0000E+00 0.0000E+00
       23  2    1    2    0    0 -.20390769E+03 0.80213371E+03 -.91981375E+02 0.83789868E+03 0.92826654E+02 0.0000E+00 0.0000E+00
       23  1    3    3    0    0 0.22983830E+03 -.66375815E+03 -.86777064E+03 0.11201525E+04 0.91188000E+02 0.0000E+00 0.9000E+01
      -13  1    4    4    0    0 0.91638226E+01 0.36848032E+02 0.16467532E+01 0.38006263E+02 0.10565837E+00 0.0000E+00 0.9000E+01
       13  1    4    4    0    0 -.21307151E+03 0.76528568E+03 -.93628128E+02 0.79989241E+03 0.10565837E+00 0.0000E+00 0.9000E+01
       23  1    3    3    0    0 0.25780338E+02 -.17287443E+03 -.43427978E+03 0.47693225E+03 0.91188000E+02 0.0000E+00 0.9000E+01
       21  1    1    2  501  502 -.51710954E+02 0.34498875E+02 -.64819492E+02 0.89812717E+02 0.75000000E+00 0.0000E+00 0.9000E+01
#aMCatNLO 2  0  0  1  2 0.62162650D+02 0.00000000D+00  -5  7  0 0.00000000D+00 0.00000000D+00 0.00000000D+00 0.00000000D+00 0.00000000D+00
  <mgrwgt>
 -.1831617625D-03    3    2    0
 0.997741896217612D+03 0.000000000000000D+00 0.000000000000000D+00 0.997741896217612D+03
 0.997741896217612D+03 0.000000000000000D+00 0.000000000000000D+00 -.997741896217612D+03
 0.743212710611153D+03 0.210362338685755D+03 -.650764796166674D+03 -.276229521236933D+03
 0.479258792000313D+02 0.792793494560499D+01 0.376718003692662D+02 0.285459839825570D+02
 0.929411763717119D+03 -.236902095688042D+03 0.781184963762106D+03 0.444335094254749D+03
 0.274933438906921D+03 0.186118220566818D+02 -.168091967964698D+03 -.196651557000373D+03
 0.000000000000000D+00 -.000000000000000D+00 0.000000000000000D+00 -.000000000000000D+00
 0.102219110228488D+04 0.000000000000000D+00 0.000000000000000D+00 0.102219110228488D+04
 0.103853636905105D+04 0.000000000000000D+00 0.000000000000000D+00 -.103853636905105D+04
 0.760275300088545D+03 0.229838303928701D+03 -.663758153415173D+03 -.276229521236933D+03
 0.475032842401488D+02 0.916411046353236D+01 0.368470879647245D+02 0.285459839825570D+02
 0.910218039857823D+03 -.213071798499548D+03 0.765286621325898D+03 0.444335094254749D+03
 0.278455168614193D+03 0.257803376745132D+02 -.172874431026326D+03 -.196651557000373D+03
 0.642756785352119D+02 -.517109535671980D+02 0.344988751508767D+02 -.163452667661686D+02
-.302690618952D-03 0.000000000000D+00 0.000000000000D+00 0.289023223285D-05 0.000000000000D+00  7 -2 2 23 -13 13 23 21 2 0.83580022D-01 0.29439682D+00 0.80999036D+06 0.80999036D+06 0.80999036D+06 0.10540110D+01  1  2 13  1  7  1       -2 -.390923472481D-03 0.100000000000D+01
-.667793937939D-04 0.000000000000D+00 0.000000000000D+00 0.289023223285D-05 0.000000000000D+00  7 -2 2 23 -13 13 23 21 2 0.80034380D-01 0.29439682D+00 0.75422537D+06 0.75422537D+06 0.75422537D+06 0.10561170D+01  1  2  8  1  7  1       -2 -.960229171786D-04 0.100000000000D+01
0.248841247948D-03 0.000000000000D+00 0.000000000000D+00 0.289023223285D-05 0.443741539410D-08  7 -2 2 23 -13 13 23 21 2 0.81995585D-01 0.30643377D+00 0.80999036D+06 0.80999036D+06 0.80999036D+06 0.10540110D+01  1  2  1  1  7  1       -2 0.303784627131D-03 0.100000000000D+01
  </mgrwgt>
  </event>
  <event>
  8     66 0.53686478E-06 0.40821066E+03 0.75467711E-02 0.93053156E-01
       -2 -1    0    0    0  501 0.00000000E+00 0.00000000E+00 0.53717941E+03 0.53717951E+03 0.32000000E+00 0.0000E+00 0.9000E+01
        2 -1    0    0  501    0 0.00000000E+00 0.00000000E+00 -.47408026E+03 0.47408037E+03 0.32000000E+00 0.0000E+00 0.9000E+01
       25  2    1    2    0    0 -.32907918E+03 -.15000957E+03 0.31009863E+03 0.56285019E+03 0.29973855E+03 0.0000E+00 0.0000E+00
       23  2    1    2    0    0 0.32907918E+03 0.15000957E+03 -.24699948E+03 0.44840969E+03 0.96262798E+02 0.0000E+00 0.0000E+00
       23  1    3    3    0    0 -.88965669E+02 0.34619178E+02 0.19765038E+02 0.13348890E+03 0.91188000E+02 0.0000E+00 0.9000E+01
      -13  1    4    4    0    0 0.32582228E+03 0.13492731E+03 -.25052310E+03 0.43258221E+03 0.10565837E+00 0.0000E+00 0.9000E+01
       13  1    4    4    0    0 0.32569063E+01 0.15082260E+02 0.35236192E+01 0.15827478E+02 0.10565837E+00 0.0000E+00 0.9000E+01
       23  1    3    3    0    0 -.24011352E+03 -.18462875E+03 0.29033359E+03 0.42936129E+03 0.91188000E+02 0.0000E+00 0.9000E+01
#aMCatNLO 1  0  0  2  2 0.28862822D+03 0.00000000D+00  -5  7  0 0.00000000D+00 0.00000000D+00 0.00000000D+00 0.00000000D+00 0.00000000D+00
  <mgrwgt>
 0.3264321113D-03    4    2    0
 0.504644686557379D+03 0.000000000000000D+00 0.000000000000000D+00 0.504644686557379D+03
 0.504644686557379D+03 0.000000000000000D+00 0.000000000000000D+00 -.504644686557379D+03
 0.132513838666641D+03 -.889656688565985D+02 0.346191775049599D+02 0.114581153749905D+02
 0.449089594622696D+03 0.325822666125278D+03 0.134927453158426D+03 -.278056894576585D+03
 0.156375650727782D+02 0.325651819901836D+01 0.150821147592355D+02 0.254132741182298D+01
 0.412048374752643D+03 -.240113515467697D+03 -.184628745422621D+03 0.264057451789772D+03
 0.000000000000000D+00 -.000000000000000D+00 0.000000000000000D+00 0.000000000000000D+00
 0.868828664345876D+03 0.000000000000000D+00 0.000000000000000D+00 0.868828664345876D+03
 0.585424430392715D+03 0.000000000000000D+00 0.000000000000000D+00 -.585424430392715D+03
 0.111112616682326D+03 -.552698737112461D+02 0.290639793213135D+02 0.114581153749905D+02
 0.552750461255566D+03 0.464386424494327D+03 0.112083382095834D+03 -.278056894576585D+03
 0.164816939206265D+02 0.769890919351046D+01 0.143497277573204D+02 0.254132741182298D+01
 0.369403429971990D+03 -.132031493380851D+03 -.202447498480434D+03 0.264057451789772D+03
 0.404504892908083D+03 -.284783966595741D+03 0.469504093059662D+02 0.283404233953161D+03
0.346479578685D-04 0.000000000000D+00 0.000000000000D+00 0.102931699430D-06 0.000000000000D+00  7 -2 2 23 -13 13 23 21 0 0.82643002D-01 0.72935440D-01 0.16663594D+06 0.16663594D+06 0.16663594D+06 0.11039652D+01  1  2  2  2  7  2        2 0.367353482252D-03 0.100000000000D+01
-.181962975367D-05 0.000000000000D+00 -.133057281232D-06 0.102931699430D-06 0.000000000000D+00  7 -2 2 23 -13 13 23 21 2 0.82643002D-01 0.72935440D-01 0.16663594D+06 0.16663594D+06 0.16663594D+06 0.11039652D+01  1  2  3  2  7  2        2 -.235125833839D-04 0.100000000000D+01
0.209844393323D-05 0.000000000000D+00 0.000000000000D+00 0.102931699430D-06 0.000000000000D+00  7 -2 2 23 -13 13 23 21 2 0.82643002D-01 0.72935440D-01 0.16663594D+06 0.16663594D+06 0.16663594D+06 0.11039652D+01  1  2 15  2  7  2        2 0.271153171997D-04 0.100000000000D+01
-.344570328434D-05 0.000000000000D+00 0.000000000000D+00 0.102931699430D-06 0.000000000000D+00  7 -2 2 23 -13 13 23 21 2 0.82643002D-01 0.72935440D-01 0.16663594D+06 0.16663594D+06 0.16663594D+06 0.11039652D+01  1  2  4  2  7  2        2 -.445241047669D-04 0.100000000000D+01
  </mgrwgt>
  </event>
  <event>
  9     66 0.53686478E-06 0.22438555E+03 0.75467711E-02 0.10401686E+00
       21 -1    0    0  502  501 0.00000000E+00 0.00000000E+00 0.14863579E+03 0.14863768E+03 0.75000000E+00 0.0000E+00 0.9000E+01
        2 -1    0    0  501    0 0.00000000E+00 0.00000000E+00 -.52048650E+03 0.52048660E+03 0.32000000E+00 0.0000E+00 0.9000E+01
       25  2    1    2    0    0 -.17221466E+03 -.46006078E+01 -.22416690E+03 0.41217208E+03 0.29992662E+03 0.0000E+00 0.0000E+00
       23  2    1    2    0    0 0.16060128E+03 0.23082336E+02 -.12254296E+03 0.22365641E+03 0.93165684E+02 0.0000E+00 0.0000E+00
       23  1    3    3    0    0 -.15016774E+03 0.19834994E+01 -.73658446E+01 0.17585162E+03 0.91188000E+02 0.0000E+00 0.9000E+01
      -13  1    4    4    0    0 0.13706356E+03 0.48318952E+02 -.12100563E+03 0.18911244E+03 0.10565837E+00 0.0000E+00 0.9000E+01
       13  1    4    4    0    0 0.23537716E+02 -.25236617E+02 -.15373319E+01 0.34543964E+02 0.10565837E+00 0.0000E+00 0.9000E+01
       23  1    3    3    0    0 -.22046918E+02 -.65841073E+01 -.21680105E+03 0.23632047E+03 0.91188000E+02 0.0000E+00 0.9000E+01
        2  1    1    2  502    0 0.11613378E+02 -.18481728E+02 -.25140850E+02 0.33295789E+02 0.32000000E+00 0.0000E+00 0.9000E+01
#aMCatNLO 2  0  0  1  2 0.21827616D+02 0.00000000D+00  -5  7  0 0.00000000D+00 0.00000000D+00 0.00000000D+00 0.00000000D+00 0.00000000D+00
  <mgrwgt>
 0.3365149046D-04    1    2    0
 0.266267580344511D+03 0.000000000000000D+00 0.000000000000000D+00 0.266267580344511D+03
 0.266267580344511D+03 0.000000000000000D+00 0.000000000000000D+00 -.266267580344511D+03
 0.201821498115264D+03 -.145733752945855D+03 -.507282374957106D+01 0.105605896942414D+03
 0.148324589439534D+03 0.140281328629647D+03 0.431984717265407D+02 -.213359956598871D+02
 0.416324115515849D+02 0.244295904204932D+02 -.266562813820237D+02 0.206372349497181D+02
 0.140756661582639D+03 -.189771661042845D+02 -.114693665949460D+02 -.104907136232245D+03
 0.000000000000000D+00 0.000000000000000D+00 -.000000000000000D+00 -.000000000000000D+00
 0.274006773284382D+03 0.000000000000000D+00 0.000000000000000D+00 0.274006773284382D+03
 0.282339644551661D+03 0.000000000000000D+00 0.000000000000000D+00 -.282339644551661D+03
 0.204993027400656D+03 -.150167740213490D+03 0.198349919281759D+01 0.105605896942414D+03
 0.146889126380324D+03 0.137063710341518D+03 0.483190443344280D+02 -.213359956598871D+02
 0.402095039497864D+02 0.235375720963399D+02 -.252367082110092D+02 0.206372349497181D+02
 0.140890651719724D+03 -.220469203112231D+02 -.658410740712029D+01 -.104907136232245D+03
 0.233641083855533D+02 0.116133780868553D+02 -.184817279091160D+02 -.833287126727824D+01
0.178348917013D-07 0.000000000000D+00 0.000000000000D+00 0.621399084901D-07 0.475433882580D-11  7 21 2 23 -13 13 23 2 2 0.22867107D-01 0.80074682D-01 0.55557285D+05 0.55557285D+05 0.55557285D+05 0.11432910D+01  1  2  1  3  7  1       -2 0.336514904649D-04 0.100000000000D+01
  </mgrwgt>
  </event>
  <event>
  8     66 0.53686478E-06 0.62051470E+03 0.75467711E-02 0.90890704E-01
       -2 -1    0    0    0  501 0.00000000E+00 0.00000000E+00 0.17390161E+03 0.17390190E+03 0.32000000E+00 0.0000E+00 0.9000E+01
        2 -1    0    0  501    0 0.00000000E+00 0.00000000E+00 -.24266749E+04 0.24266749E+04 0.32000000E+00 0.0000E+00 0.9000E+01
       25  2    1    2    0    0 0.35106660E+03 0.46751068E+03 -.15386025E+04 0.16730337E+04 0.29988325E+03 0.0000E+00 0.0000E+00
       23  2    1    2    0    0 -.35106660E+03 -.46751068E+03 -.71417074E+03 0.92754311E+03 0.92099911E+02 0.0000E+00 0.0000E+00
       23  1    3    3    0    0 0.34709365E+03 0.41087469E+03 -.13487369E+04 0.14548878E+04 0.91188000E+02 0.0000E+00 0.9000E+01
      -11  1    4    4    0    0 -.21246506E+03 -.33251471E+03 -.42842593E+03 0.58245705E+03 0.51099893E-03 0.0000E+00 0.9000E+01
       11  1    4    4    0    0 -.13860153E+03 -.13499596E+03 -.28574480E+03 0.34508606E+03 0.51099893E-03 0.0000E+00 0.9000E+01
       23  1    3    3    0    0 0.39729455E+01 0.56635988E+02 -.18986562E+03 0.21814588E+03 0.91188000E+02 0.0000E+00 0.9000E+01
#aMCatNLO 1  0  0  1  1 0.15799968D+03 0.00000000D+00  -5  7  0 0.00000000D+00 0.00000000D+00 0.00000000D+00 0.00000000D+00 0.00000000D+00
  <mgrwgt>
 0.1934544482D-03    4    2    0
 0.649617629678660D+03 0.000000000000000D+00 0.000000000000000D+00 0.649617629678660D+03
 0.649617629678660D+03 0.000000000000000D+00 0.000000000000000D+00 -.649617629678660D+03
 0.573528921840268D+03 0.347093650549281D+03 0.410874689541061D+03 -.176997627346160D+03
 0.423000992081298D+03 -.212465062956147D+03 -.332514713850161D+03 0.152388980566011D+03
 0.195272210626067D+03 -.138601533140130D+03 -.134995963879838D+03 0.263996399625067D+02
 0.107433134809686D+03 0.397294554699610D+01 0.566359881889382D+02 -.179099318235871D+01
 0.000000000000000D+00 -.000000000000000D+00 0.000000000000000D+00 -.000000000000000D+00
 0.675407014535323D+03 0.000000000000000D+00 0.000000000000000D+00 0.675407014535323D+03
 0.951544178318120D+03 0.000000000000000D+00 0.000000000000000D+00 -.951544178318120D+03
 0.549139884580493D+03 0.374613235284154D+03 0.348677681185426D+03 -.176997627346160D+03
 0.452641880494325D+03 -.191000737866222D+03 -.381026231005228D+03 0.152388980566011D+03
 0.204903763954277D+03 -.128792160528777D+03 -.157166125099558D+03 0.263996399625067D+02
 0.102121621600084D+03 0.910968742726626D+01 0.450264388179755D+02 -.179099318235871D+01
 0.318144042224265D+03 -.639300243164214D+02 0.144488236101384D+03 -.276137163782797D+03
0.338716265402D-04 0.000000000000D+00 0.000000000000D+00 0.154328875849D-05 0.000000000000D+00  7 -2 2 23 -11 11 23 21 0 0.26754117D-01 0.37333462D+00 0.38503849D+06 0.38503849D+06 0.38503849D+06 0.10766232D+01  1  2  2  1  7  1       -2 0.202823718471D-03 0.100000000000D+01
-.187695048879D-05 0.000000000000D+00 -.130075964518D-06 0.154328875849D-05 0.000000000000D+00  7 -2 2 23 -11 11 23 21 2 0.26754117D-01 0.37333462D+00 0.38503849D+06 0.38503849D+06 0.38503849D+06 0.10766232D+01  1  2  3  1  7  1       -2 -.130275556378D-04 0.100000000000D+01
0.209641606912D-05 0.000000000000D+00 0.000000000000D+00 0.154328875849D-05 0.000000000000D+00  7 -2 2 23 -11 11 23 21 2 0.26754117D-01 0.37333462D+00 0.38503849D+06 0.38503849D+06 0.38503849D+06 0.10766232D+01  1  2 15  1  7  1       -2 0.145508244057D-04 0.100000000000D+01
-.156934708186D-05 0.000000000000D+00 0.000000000000D+00 0.154328875849D-05 0.000000000000D+00  7 -2 2 23 -11 11 23 21 2 0.26754117D-01 0.37333462D+00 0.38503849D+06 0.38503849D+06 0.38503849D+06 0.10766232D+01  1  2  4  1  7  1       -2 -.108925390127D-04 0.100000000000D+01
  </mgrwgt>
  </event>
  <event>
  8     66 0.53686478E-06 0.22346781E+03 0.75467711E-02 0.10038980E+00
       -2 -1    0    0    0  501 0.00000000E+00 0.00000000E+00 0.44073910E+02 0.44075072E+02 0.32000000E+00 0.0000E+00 0.9000E+01
        2 -1    0    0  501    0 0.00000000E+00 0.00000000E+00 -.14667556E+04 0.14667556E+04 0.32000000E+00 0.0000E+00 0.9000E+01
       25  2    1    2    0    0 -.69229977E+02 0.77057608E+02 -.12439157E+04 0.12837912E+04 0.30010479E+03 0.0000E+00 0.0000E+00
       23  2    1    2    0    0 0.69229977E+02 -.77057608E+02 -.17876597E+03 0.22703950E+03 0.94122242E+02 0.0000E+00 0.0000E+00
       23  1    3    3    0    0 0.50562034E+02 -.52575704E+02 -.39242554E+03 0.40943104E+03 0.91188000E+02 0.0000E+00 0.9000E+01
      -11  1    4    4    0    0 -.18495478E+02 -.96678659E+01 -.56900976E+01 0.21631633E+02 0.51099893E-03 0.0000E+00 0.9000E+01
       11  1    4    4    0    0 0.87725455E+02 -.67389742E+02 -.17307587E+03 0.20540786E+03 0.51099893E-03 0.0000E+00 0.9000E+01
       23  1    3    3    0    0 -.11979201E+03 0.12963331E+03 -.85149018E+03 0.87436016E+03 0.91188000E+02 0.0000E+00 0.9000E+01
#aMCatNLO 1  0  0  1  1 0.14540368D+03 0.00000000D+00  -5  7  0 0.00000000D+00 0.00000000D+00 0.00000000D+00 0.00000000D+00 0.00000000D+00
  <mgrwgt>
 0.1603226555D-03    7    2    0
 0.254256873740000D+03 0.000000000000000D+00 0.000000000000000D+00 0.254256873740000D+03
 0.254256873740000D+03 0.000000000000000D+00 0.000000000000000D+00 -.254256873740000D+03
 0.118550113874742D+03 0.505620336840515D+02 -.525757039715403D+02 -.204488204389401D+02
 0.483497994833141D+02 -.184954779654835D+02 -.966786592438332D+01 0.436136764487144D+02
 0.126062733031282D+03 0.877254553098375D+02 -.673897420247534D+02 0.604539479259638D+02
 0.215551101090661D+03 -.119792011028406D+03 0.129633311920677D+03 -.836188039357381D+02
 0.000000000000000D+00 0.000000000000000D+00 0.000000000000000D+00 0.000000000000000D+00
 0.351244073479976D+03 0.000000000000000D+00 0.000000000000000D+00 0.351244073479976D+03
 0.325342249312887D+03 0.000000000000000D+00 0.000000000000000D+00 -.325342249312887D+03
 0.129227645610292D+03 0.334022035977604D+02 -.827687838707857D+02 -.204488204389401D+02
 0.553040507716810D+02 -.256740175642847D+02 -.222986564728084D+02 0.436136764487144D+02
 0.135473391664246D+03 0.696127906762977D+02 -.992593542364503D+02 0.604539479259638D+02
 0.208888531999988D+03 -.149186545876329D+03 0.779130131297498D+02 -.836188039357381D+02
 0.147692702746656D+03 0.718455691665558D+02 0.126413781450295D+03 0.259018241670895D+02
0.846026319058D-06 0.000000000000D+00 0.000000000000D+00 0.373624919789D-07 0.000000000000D+00  7 -2 2 23 -11 11 23 21 0 0.67806936D-02 0.22565480D+00 0.49937861D+05 0.49937861D+05 0.49937861D+05 0.11473429D+01  1  2  2  1  7  1       -2 0.160093643790D-03 0.100000000000D+01
-.460493341036D-07 0.000000000000D+00 -.324896382903D-08 0.373624919789D-07 0.000000000000D+00  7 -2 2 23 -11 11 23 21 2 0.67806936D-02 0.22565480D+00 0.49937861D+05 0.49937861D+05 0.49937861D+05 0.11473429D+01  1  2  3  1  7  1       -2 -.114709670379D-04 0.100000000000D+01
0.539580370169D-07 0.000000000000D+00 0.000000000000D+00 0.373624919789D-07 0.000000000000D+00  7 -2 2 23 -11 11 23 21 2 0.67806936D-02 0.22565480D+00 0.49937861D+05 0.49937861D+05 0.49937861D+05 0.11473429D+01  1  2 15  1  7  1       -2 0.134410383147D-04 0.100000000000D+01
-.296498728488D-06 0.000000000000D+00 0.000000000000D+00 0.373624919789D-07 0.000000000000D+00  7 -2 2 23 -11 11 23 21 2 0.67806936D-02 0.22565480D+00 0.49937861D+05 0.49937861D+05 0.49937861D+05 0.11473429D+01  1  2  4  1  7  1       -2 -.738583349246D-04 0.100000000000D+01
-.302388545408D-06 0.000000000000D+00 -.285441819485D-06 0.373624919789D-07 0.000000000000D+00  7 -2 2 23 -11 11 23 21 2 0.12306921D-01 0.22565480D+00 0.49937861D+05 0.49937861D+05 0.49937861D+05 0.11473429D+01  1  2  5  1  7  1       -2 -.304126660047D-04 0.100000000000D+01
0.436767055477D-06 0.000000000000D+00 0.241290451072D-06 0.373624919789D-07 0.000000000000D+00  7 -2 2 23 -11 11 23 21 2 0.67806936D-02 0.22565480D+00 0.49937861D+05 0.49937861D+05 0.49937861D+05 0.11473429D+01  1  2  6  1  7  1       -2 0.108799412503D-03 0.100000000000D+01
-.437027660520D-08 0.000000000000D+00 -.186275249134D-07 0.373624919789D-07 0.000000000000D+00  7 21 2 23 -11 11 23 2 2 0.12306921D-01 0.22565480D+00 0.49937861D+05 0.49937861D+05 0.49937861D+05 0.11473429D+01  1  2  5  3  7  1       -2 -.626947113339D-05 0.100000000000D+01
  </mgrwgt>
  </event>
  <event>
  8     66 0.53686478E-06 0.28075372E+03 0.75467711E-02 0.93381846E-01
       -2 -1    0    0    0  501 0.00000000E+00 0.00000000E+00 0.62106433E+03 0.62106441E+03 0.32000000E+00 0.0000E+00 0.9000E+01
        2 -1    0    0  501    0 0.00000000E+00 0.00000000E+00 -.22084841E+03 0.22084864E+03 0.32000000E+00 0.0000E+00 0.9000E+01
       25  2    1    2    0    0 -.94932160E+02 0.17803440E+03 0.48520621E+03 0.60489681E+03 0.29961095E+03 0.0000E+00 0.0000E+00
       23  2    1    2    0    0 0.94932160E+02 -.17803440E+03 -.84990292E+02 0.23701624E+03 0.90801897E+02 0.0000E+00 0.0000E+00
       23  1    3    3    0    0 0.71625458E+02 0.62543911E+02 0.12479397E+03 0.18146827E+03 0.91188000E+02 0.0000E+00 0.9000E+01
      -11  1    4    4    0    0 0.10073109E+03 -.17000785E+03 -.54541886E+02 0.20499814E+03 0.51099893E-03 0.0000E+00 0.9000E+01
       11  1    4    4    0    0 -.57989257E+01 -.80265502E+01 -.30448407E+02 0.32018097E+02 0.51099893E-03 0.0000E+00 0.9000E+01
       23  1    3    3    0    0 -.16655762E+03 0.11549049E+03 0.36041225E+03 0.42342855E+03 0.91188000E+02 0.0000E+00 0.9000E+01
#aMCatNLO 1  0  0  2  1 0.43271915D+03 0.00000000D+00  -5  7  0 0.00000000D+00 0.00000000D+00 0.00000000D+00 0.00000000D+00 0.00000000D+00
  <mgrwgt>
 0.2683044572D-03    3    2    0
 0.370352803520412D+03 0.000000000000000D+00 0.000000000000000D+00 0.370352803520412D+03
 0.370352803520412D+03 0.000000000000000D+00 0.000000000000000D+00 -.370352803520412D+03
 0.138835145094754D+03 0.716254579680604D+02 0.625439107505083D+02 0.437949673864408D+02
 0.262478286536668D+03 0.100731085572406D+03 -.170007846292747D+03 -.172758303712244D+03
 0.528447338961951D+02 -.579892569638851D+01 -.802655016866706D+01 -.519086972839553D+02
 0.286547441513206D+03 -.166557617844078D+03 0.115490485710906D+03 0.180872033609758D+03
 0.000000000000000D+00 -.000000000000000D+00 0.000000000000000D+00 0.000000000000000D+00
 0.684492169930217D+03 0.000000000000000D+00 0.000000000000000D+00 0.684492169930217D+03
 0.612083988051303D+03 0.000000000000000D+00 0.000000000000000D+00 -.612083988051303D+03
 0.175212448813012D+03 0.142247849746728D+03 0.152217262196212D+02 0.437949673864408D+02
 0.408159536775087D+03 0.251542771502487D+03 -.271062741932139D+03 -.172758303712244D+03
 0.609974935731728D+02 0.198016856289738D+02 -.251808382454446D+02 -.519086972839553D+02
 0.213471215830333D+03 -.541144270647526D+02 0.401452971766901D+02 0.180872033609758D+03
 0.438735462989915D+03 -.359477879813437D+03 0.240876556781272D+03 0.724081818789131D+02
0.147166637297D-04 0.000000000000D+00 0.000000000000D+00 0.536254600522D-06 0.000000000000D+00  7 -2 2 23 -11 11 23 21 0 0.95548382D-01 0.33976702D-01 0.78822650D+05 0.78822650D+05 0.78822650D+05 0.11303030D+01  1  2  2  2  7  2        2 0.262913881310D-03 0.100000000000D+01
-.741330172286D-06 0.000000000000D+00 -.565158637086D-07 0.536254600522D-06 0.000000000000D+00  7 -2 2 23 -11 11 23 21 2 0.95548382D-01 0.33976702D-01 0.78822650D+05 0.78822650D+05 0.78822650D+05 0.11303030D+01  1  2  3  2  7  2        2 -.169202033769D-04 0.100000000000D+01
0.977509164956D-06 0.000000000000D+00 0.000000000000D+00 0.536254600522D-06 0.000000000000D+00  7 -2 2 23 -11 11 23 21 2 0.95548382D-01 0.33976702D-01 0.78822650D+05 0.78822650D+05 0.78822650D+05 0.11303030D+01  1  2 15  2  7  2        2 0.223107793156D-04 0.100000000000D+01
  </mgrwgt>
  </event>
  <event>
  8     66 0.53686478E-06 0.31088472E+03 0.75467711E-02 0.92645029E-01
       -2 -1    0    0    0  501 0.00000000E+00 0.00000000E+00 0.31568927E+03 0.31568944E+03 0.32000000E+00 0.0000E+00 0.9000E+01
        2 -1    0    0  501    0 0.00000000E+00 0.00000000E+00 -.39517372E+03 0.39517385E+03 0.32000000E+00 0.0000E+00 0.9000E+01
       25  2    1    2    0    0 -.20281874E+03 -.10368956E+03 0.11839326E+03 0.39477684E+03 0.29990802E+03 0.0000E+00 0.0000E+00
       23  2    1    2    0    0 0.20281874E+03 0.10368956E+03 -.19787770E+03 0.31608645E+03 0.94170537E+02 0.0000E+00 0.0000E+00
       23  1    3    3    0    0 -.90238868E+02 0.73397730E+02 0.47282608E+02 0.15518111E+03 0.91188000E+02 0.0000E+00 0.9000E+01
      -11  1    4    4    0    0 0.30078569E+02 0.59800075E+02 -.39941432E+02 0.77949260E+02 0.51099893E-03 0.0000E+00 0.9000E+01
       11  1    4    4    0    0 0.17274017E+03 0.43889489E+02 -.15793627E+03 0.23813719E+03 0.51099893E-03 0.0000E+00 0.9000E+01
       23  1    3    3    0    0 -.11257987E+03 -.17708729E+03 0.71110648E+02 0.23959573E+03 0.91188000E+02 0.0000E+00 0.9000E+01
#aMCatNLO 1  0  0  1  2 0.43809229D+03 0.00000000D+00  -5  7  0 0.00000000D+00 0.00000000D+00 0.00000000D+00 0.00000000D+00 0.00000000D+00
  <mgrwgt>
 0.1586621109D-03    5    2    0
 0.353202785808750D+03 0.000000000000000D+00 0.000000000000000D+00 0.353202785808750D+03
 0.353202785808750D+03 0.000000000000000D+00 0.000000000000000D+00 -.353202785808750D+03
 0.161480584553701D+03 -.902388684781271D+02 0.733977303100643D+02 0.650418914617603D+02
 0.739469599900022D+02 0.300785685557248D+02 0.598000745520968D+02 -.314226620286255D+02
 0.221869011489774D+03 0.172740172449772D+03 0.438894889931852D+02 -.132137821373706D+03
 0.249109015584024D+03 -.112579872527370D+03 -.177087293855346D+03 0.985185919405710D+02
 0.000000000000000D+00 0.000000000000000D+00 -.000000000000000D+00 0.000000000000000D+00
 0.907216296764122D+03 0.000000000000000D+00 0.000000000000000D+00 0.907216296764122D+03
 0.513213418327646D+03 0.000000000000000D+00 0.000000000000000D+00 -.513213418327646D+03
 0.241366867347715D+03 -.102761803069940D+03 0.187489406351775D+03 0.650418914617603D+02
 0.121842660293406D+03 0.239922433301527D+02 0.115250260036131D+03 -.314226620286255D+02
 0.276440308777028D+03 0.157249705786180D+03 0.185017216792139D+03 -.132137821373706D+03
 0.191574374756263D+03 -.126278976858010D+03 -.522799843629910D+02 0.985185919405710D+02
 0.589205503917355D+03 0.477988308116170D+02 -.435476898817054D+03 0.394002878436476D+03
0.392115332080D-05 0.000000000000D+00 0.000000000000D+00 0.910209934881D-07 0.000000000000D+00  7 -2 2 23 -11 11 23 21 0 0.48567603D-01 0.60795979D-01 0.96649307D+05 0.96649307D+05 0.96649307D+05 0.11229387D+01  1  2  2  1  7  1       -2 0.156117871476D-03 0.100000000000D+01
-.213528034772D-06 0.000000000000D+00 -.150582612153D-07 0.910209934881D-07 0.000000000000D+00  7 -2 2 23 -11 11 23 21 2 0.48567603D-01 0.60795979D-01 0.96649307D+05 0.96649307D+05 0.96649307D+05 0.11229387D+01  1  2  3  1  7  1       -2 -.107202715767D-04 0.100000000000D+01
0.243915365094D-06 0.000000000000D+00 0.000000000000D+00 0.910209934881D-07 0.000000000000D+00  7 -2 2 23 -11 11 23 21 2 0.48567603D-01 0.60795979D-01 0.96649307D+05 0.96649307D+05 0.96649307D+05 0.11229387D+01  1  2 15  1  7  1       -2 0.122458812414D-04 0.100000000000D+01
-.341515092093D-07 0.000000000000D+00 -.125035813007D-05 0.910209934881D-07 0.000000000000D+00  7 -2 2 23 -11 11 23 21 2 0.16250984D+00 0.60795979D-01 0.96649307D+05 0.96649307D+05 0.96649307D+05 0.11229387D+01  1  2  5  1  7  1       -2 -.103348062816D-06 0.100000000000D+01
0.425707184098D-07 0.000000000000D+00 -.175319055801D-06 0.910209934881D-07 0.000000000000D+00  7 21 2 23 -11 11 23 2 2 0.16250984D+00 0.60795979D-01 0.96649307D+05 0.96649307D+05 0.96649307D+05 0.11229387D+01  1  2  5  3  7  1       -2 0.112197782670D-05 0.100000000000D+01
  </mgrwgt>
  </event>
  <event>
  8     66 0.53686478E-06 0.99528859E+02 0.75467711E-02 0.10506811E+00
       -2 -1    0    0    0  501 0.00000000E+00 0.00000000E+00 0.63413569E+02 0.63414376E+02 0.32000000E+00 0.0000E+00 0.9000E+01
        2 -1    0    0  501    0 0.00000000E+00 0.00000000E+00 -.94915463E+03 0.94915468E+03 0.32000000E+00 0.0000E+00 0.9000E+01
       25  2    1    2    0    0 0.48155620E+02 -.12100299E+03 -.53126932E+03 0.62355722E+03 0.29935902E+03 0.0000E+00 0.0000E+00
       23  2    1    2    0    0 -.48155620E+02 0.12100299E+03 -.35447174E+03 0.38901184E+03 0.93377262E+02 0.0000E+00 0.0000E+00
       23  1    3    3    0    0 -.21264494E+02 0.37422065E+02 -.32080923E+03 0.33628322E+03 0.91188000E+02 0.0000E+00 0.9000E+01
      -11  1    4    4    0    0 -.23269928E+02 0.54193609E+02 -.27910067E+03 0.28526413E+03 0.51099893E-03 0.0000E+00 0.9000E+01
       11  1    4    4    0    0 -.24885691E+02 0.66809377E+02 -.75371063E+02 0.10374771E+03 0.51099893E-03 0.0000E+00 0.9000E+01
       23  1    3    3    0    0 0.69420114E+02 -.15842505E+03 -.21046009E+03 0.28727400E+03 0.91188000E+02 0.0000E+00 0.9000E+01
#aMCatNLO 1  0  0  1  2 0.10544915D+02 0.00000000D+00  -5  7  0 0.00000000D+00 0.00000000D+00 0.00000000D+00 0.00000000D+00 0.00000000D+00
  <mgrwgt>
 0.1066254623D-03    9    2    0
 0.245335930001859D+03 0.000000000000000D+00 0.000000000000000D+00 0.245335930001859D+03
 0.245335930001859D+03 0.000000000000000D+00 0.000000000000000D+00 -.245335930001859D+03
 0.114854915076777D+03 -.212644938362695D+02 0.374220645752446D+02 -.549891858287354D+02
 0.848605899986252D+02 -.232699283013856D+02 0.541936093039415D+02 -.610154315101916D+02
 0.780409079195545D+02 -.248856914623816D+02 0.668093772529858D+02 0.317426019792922D+02
 0.212915447008761D+03 0.694201136000367D+02 -.158425051132172D+03 0.842620153596349D+02
 0.000000000000000D+00 -.000000000000000D+00 0.000000000000000D+00 0.000000000000000D+00
 0.278521370185730D+03 0.000000000000000D+00 0.000000000000000D+00 0.278521370185730D+03
 0.246231691242078D+03 0.000000000000000D+00 0.000000000000000D+00 -.246231691242078D+03
 0.114340397950390D+03 -.188163415339616D+02 0.371565605596591D+02 -.549891858287354D+02
 0.842574386881845D+02 -.214634921844205D+02 0.539976999062702D+02 -.610154315101916D+02
 0.773724283315353D+02 -.232256421711147D+02 0.666293436200759D+02 0.317426019792922D+02
 0.214814891108434D+03 0.739889199957609D+02 -.158920541728633D+03 0.842620153596349D+02
 0.339679053492636D+02 -.104834441062640D+02 0.113693764262732D+01 0.322896789436523D+02
0.773550746399D-06 0.000000000000D+00 0.000000000000D+00 0.267286291759D-07 0.000000000000D+00  7 -2 2 23 -11 11 23 21 0 0.97559999D-02 0.14602386D+00 0.45505429D+05 0.45505429D+05 0.45505429D+05 0.11509110D+01  1  2  2  1  7  1       -2 0.165473444914D-03 0.100000000000D+01
-.419533275378D-07 0.000000000000D+00 -.297063854676D-08 0.267286291759D-07 0.000000000000D+00  7 -2 2 23 -11 11 23 21 2 0.97559999D-02 0.14602386D+00 0.45505429D+05 0.45505429D+05 0.45505429D+05 0.11509110D+01  1  2  3  1  7  1       -2 -.118874689963D-04 0.100000000000D+01
0.509019129923D-07 0.000000000000D+00 0.000000000000D+00 0.267286291759D-07 0.000000000000D+00  7 -2 2 23 -11 11 23 21 2 0.97559999D-02 0.14602386D+00 0.45505429D+05 0.45505429D+05 0.45505429D+05 0.11509110D+01  1  2 15  1  7  1       -2 0.144230493279D-04 0.100000000000D+01
0.148925606760D-04 0.000000000000D+00 0.000000000000D+00 0.267286291759D-07 0.000000000000D+00  7 -2 2 23 -11 11 23 21 2 0.11092000D-01 0.14602386D+00 0.47755700D+05 0.47755700D+05 0.47755700D+05 0.11490539D+01  1  2 12  1  7  1       -2 0.345534933915D-02 0.100000000000D+01
-.149359075724D-04 0.000000000000D+00 0.000000000000D+00 0.267286291759D-07 0.000000000000D+00  7 -2 2 23 -11 11 23 21 2 0.97559999D-02 0.14602386D+00 0.45505429D+05 0.45505429D+05 0.45505429D+05 0.11509110D+01  1  2  4  1  7  1       -2 -.423208714585D-02 0.100000000000D+01
-.172573954503D-04 0.000000000000D+00 -.819580989149D-06 0.267286291759D-07 0.000000000000D+00  7 -2 2 23 -11 11 23 21 2 0.11105606D-01 0.14602386D+00 0.45505429D+05 0.45505429D+05 0.45505429D+05 0.11509110D+01  1  2  5  1  7  1       -2 -.400857380225D-02 0.100000000000D+01
0.172256260191D-04 0.000000000000D+00 0.812749319221D-06 0.267286291759D-07 0.000000000000D+00  7 -2 2 23 -11 11 23 21 2 0.97559999D-02 0.14602386D+00 0.45505429D+05 0.45505429D+05 0.45505429D+05 0.11509110D+01  1  2  6  1  7  1       -2 0.488087852052D-02 0.100000000000D+01
0.298903564988D-06 0.000000000000D+00 0.000000000000D+00 0.267286291759D-07 0.000000000000D+00  7 21 2 23 -11 11 23 2 2 0.11092000D-01 0.14602386D+00 0.47755700D+05 0.47755700D+05 0.47755700D+05 0.11490539D+01  1  2 12  3  7  1       -2 0.100833380589D-02 0.100000000000D+01
-.344751837878D-06 0.000000000000D+00 -.165800100804D-07 0.267286291759D-07 0.000000000000D+00  7 21 2 23 -11 11 23 2 2 0.11105606D-01 0.14602386D+00 0.45505429D+05 0.45505429D+05 0.45505429D+05 0.11509110D+01  1  2  5  3  7  1       -2 -.116528428043D-02 0.100000000000D+01
  </mgrwgt>
  </event>
  <event>
  8     66 0.53686478E-06 0.23380308E+03 0.75467711E-02 0.10257067E+00
       -2 -1    0    0    0  501 0.00000000E+00 0.00000000E+00 0.31638948E+03 0.31638964E+03 0.32000000E+00 0.0000E+00 0.9000E+01
        2 -1    0    0  501    0 0.00000000E+00 0.00000000E+00 -.48076801E+03 0.48076812E+03 0.32000000E+00 0.0000E+00 0.9000E+01
       25  2    1    2    0    0 -.13390669E+03 0.42036759E+02 0.20558289E+03 0.39101737E+03 0.30154961E+03 0.0000E+00 0.0000E+00
       23  2    1    2    0    0 0.13390669E+03 -.42036759E+02 -.36996143E+03 0.40614038E+03 0.91544858E+02 0.0000E+00 0.0000E+00
       23  1    3    3    0    0 -.17631275E+03 0.87378191E+02 0.10189707E+03 0.23962345E+03 0.91188000E+02 0.0000E+00 0.9000E+01
      -11  1    4    4    0    0 0.51621756E+02 -.14070321E+02 -.45481663E+02 0.70223652E+02 0.51099893E-03 0.0000E+00 0.9000E+01
       11  1    4    4    0    0 0.82284937E+02 -.27966437E+02 -.32447976E+03 0.33591673E+03 0.51099893E-03 0.0000E+00 0.9000E+01
       23  1    3    3    0    0 0.42406055E+02 -.45341433E+02 0.10368582E+03 0.15139392E+03 0.91188000E+02 0.0000E+00 0.9000E+01
#aMCatNLO 1  0  0  2  2 0.70827394D+02 0.00000000D+00  -5  7  0 0.00000000D+00 0.00000000D+00 0.00000000D+00 0.00000000D+00 0.00000000D+00
  <mgrwgt>
 0.3019556012D-03    4    2    0
 0.390012879248776D+03 0.000000000000000D+00 0.000000000000000D+00 0.390012879248776D+03
 0.390012879248776D+03 0.000000000000000D+00 0.000000000000000D+00 -.390012879248776D+03
 0.266359641339138D+03 -.176312747830286D+03 0.873781913562043D+02 0.154632059477220D+03
 0.621814329673135D+02 0.516217555797818D+02 -.140703212749307D+02 -.316820298584229D+02
 0.274915431928354D+03 0.822849370994734D+02 -.279664372512808D+02 -.260817104934395D+03
 0.176569252262748D+03 0.424060551510313D+02 -.453414328299929D+02 0.137867075315598D+03
 0.000000000000000D+00 0.000000000000000D+00 -.000000000000000D+00 0.000000000000000D+00
 0.611782870640084D+03 0.000000000000000D+00 0.000000000000000D+00 0.611782870640084D+03
 0.397313690479826D+03 0.000000000000000D+00 0.000000000000000D+00 -.397313690479826D+03
 0.285285950316493D+03 -.197945892486907D+03 0.998958053843114D+02 0.154632059477220D+03
 0.577402914818745D+02 0.469189462911324D+02 -.113491287503341D+02 -.316820298584229D+02
 0.268307631287919D+03 0.609820874345277D+02 -.156399422346177D+02 -.260817104934395D+03
 0.171900896136786D+03 0.287405691163909D+02 -.374341552518453D+02 0.137867075315598D+03
 0.225861791896838D+03 0.613042896448556D+02 -.354725791475142D+02 0.214469180160259D+03
0.957461919435D-05 0.000000000000D+00 0.000000000000D+00 0.171465643865D-06 0.000000000000D+00  7 -2 2 23 -11 11 23 21 0 0.48675325D-01 0.73964330D-01 0.54663880D+05 0.54663880D+05 0.54663880D+05 0.11439042D+01  1  2  2  2  7  2        2 0.308267199859D-03 0.100000000000D+01
-.362582235931D-06 0.000000000000D+00 -.367690587614D-07 0.171465643865D-06 0.000000000000D+00  7 -2 2 23 -11 11 23 21 2 0.48675325D-01 0.73964330D-01 0.54663880D+05 0.54663880D+05 0.54663880D+05 0.11439042D+01  1  2  3  2  7  2        2 -.152753659720D-04 0.100000000000D+01
0.588654753205D-06 0.000000000000D+00 0.000000000000D+00 0.171465643865D-06 0.000000000000D+00  7 -2 2 23 -11 11 23 21 2 0.48675325D-01 0.73964330D-01 0.54663880D+05 0.54663880D+05 0.54663880D+05 0.11439042D+01  1  2 15  2  7  2        2 0.247996616912D-04 0.100000000000D+01
-.375887162874D-06 0.000000000000D+00 0.000000000000D+00 0.171465643865D-06 0.000000000000D+00  7 -2 2 23 -11 11 23 21 2 0.48675325D-01 0.73964330D-01 0.54663880D+05 0.54663880D+05 0.54663880D+05 0.11439042D+01  1  2  4  2  7  2        2 -.158358943380D-04 0.100000000000D+01
  </mgrwgt>
  </event>
  <event>
  8     66 0.53686478E-06 0.30895629E+03 0.75467711E-02 0.92270614E-01
       -2 -1    0    0    0  501 0.00000000E+00 0.00000000E+00 0.18015654E+03 0.18015682E+03 0.32000000E+00 0.0000E+00 0.9000E+01
        2 -1    0    0  501    0 0.00000000E+00 0.00000000E+00 -.80796147E+03 0.80796153E+03 0.32000000E+00 0.0000E+00 0.9000E+01
       25  2    1    2    0    0 0.23393596E+03 0.67918146E+01 -.62963851E+03 0.73531174E+03 0.29910959E+03 0.0000E+00 0.0000E+00
       23  2    1    2    0    0 -.23393596E+03 -.67918146E+01 0.18335841E+01 0.25280661E+03 0.95580619E+02 0.0000E+00 0.0000E+00
       23  1    3    3    0    0 0.11718813E+03 -.10783800E+03 -.39114549E+03 0.43205571E+03 0.91188000E+02 0.0000E+00 0.9000E+01
      -13  1    4    4    0    0 -.20908788E+03 0.20605604E+02 -.17940413E+02 0.21086536E+03 0.10565837E+00 0.0000E+00 0.9000E+01
       13  1    4    4    0    0 -.24848087E+02 -.27397418E+02 0.19773997E+02 0.41941246E+02 0.10565837E+00 0.0000E+00 0.9000E+01
       23  1    3    3    0    0 0.11674783E+03 0.11462981E+03 -.23849302E+03 0.30325603E+03 0.91188000E+02 0.0000E+00 0.9000E+01
#aMCatNLO 1  0  0  2  2 0.45788982D+03 0.00000000D+00  -5  7  0 0.00000000D+00 0.00000000D+00 0.00000000D+00 0.00000000D+00 0.00000000D+00
  <mgrwgt>
 0.4346090874D-03    3    2    0
 0.381522887280841D+03 0.000000000000000D+00 0.000000000000000D+00 0.381522887280841D+03
 0.381522887280841D+03 0.000000000000000D+00 0.000000000000000D+00 -.381522887280841D+03
 0.237677894442105D+03 0.117188130814949D+03 -.107837996985882D+03 -.151041181684345D+03
 0.258303021003566D+03 -.209088099331697D+03 0.206056580580327D+02 0.150259855694800D+03
 0.705815472816106D+02 -.248478667751467D+02 -.273974727208331D+02 0.601141981723287D+02
 0.196483311834401D+03 0.116747835291895D+03 0.114629811648682D+03 -.593328721827835D+02
 0.000000000000000D+00 0.000000000000000D+00 0.000000000000000D+00 0.000000000000000D+00
 0.105597996217980D+04 0.000000000000000D+00 0.000000000000000D+00 0.105597996217980D+04
 0.530726224165802D+03 0.000000000000000D+00 0.000000000000000D+00 -.530726224165802D+03
 0.267667670070655D+03 0.126056505301491D+02 -.200893975188808D+03 -.151041181684345D+03
 0.386757482346030D+03 -.342584922320749D+03 -.981778840457647D+02 0.150259855694800D+03
 0.104382734185047D+03 -.610571457359178D+02 -.596159653836709D+02 0.601141981723287D+02
 0.131080837242655D+03 0.489576466199345D+02 0.543110823332993D+02 -.593328721827835D+02
 0.696817462501215D+03 0.342078770906583D+03 0.304376742284945D+03 0.525253738013998D+03
0.880065664080D-05 0.000000000000D+00 0.000000000000D+00 0.193907141908D-07 0.000000000000D+00  7 -2 2 23 -13 13 23 21 0 0.27716417D-01 0.12430179D+00 0.95453988D+05 0.95453988D+05 0.95453988D+05 0.11233840D+01  1  2  2  2  7  2        2 0.429362896070D-03 0.100000000000D+01
-.462466592627D-06 0.000000000000D+00 -.337968387668D-07 0.193907141908D-07 0.000000000000D+00  7 -2 2 23 -13 13 23 21 2 0.27716417D-01 0.12430179D+00 0.95453988D+05 0.95453988D+05 0.95453988D+05 0.11233840D+01  1  2  3  2  7  2        2 -.284738526193D-04 0.100000000000D+01
0.547674177994D-06 0.000000000000D+00 0.000000000000D+00 0.193907141908D-07 0.000000000000D+00  7 -2 2 23 -13 13 23 21 2 0.27716417D-01 0.12430179D+00 0.95453988D+05 0.95453988D+05 0.95453988D+05 0.11233840D+01  1  2 15  2  7  2        2 0.337200439474D-04 0.100000000000D+01
  </mgrwgt>
  </event>
  <event>
  8     66 0.53686478E-06 0.17075426E+03 0.75467711E-02 0.10077497E+00
       -2 -1    0    0    0  501 0.00000000E+00 0.00000000E+00 0.77423784E+02 0.77424445E+02 0.32000000E+00 0.0000E+00 0.9000E+01
        2 -1    0    0  501    0 0.00000000E+00 0.00000000E+00 -.12800620E+04 0.12800621E+04 0.32000000E+00 0.0000E+00 0.9000E+01
       25  2    1    2    0    0 0.22824300E+03 -.40234829E+02 -.75962499E+03 0.84885391E+03 0.29968172E+03 0.0000E+00 0.0000E+00
       23  2    1    2    0    0 -.22824300E+03 0.40234829E+02 -.44301325E+03 0.50863260E+03 0.93448770E+02 0.0000E+00 0.0000E+00
       23  1    3    3    0    0 0.93702986E+02 -.28846150E+01 -.61299764E+03 0.62679337E+03 0.91188000E+02 0.0000E+00 0.9000E+01
      -11  1    4    4    0    0 -.20673343E+03 0.31886828E+02 -.31218759E+03 0.37578794E+03 0.51099893E-03 0.0000E+00 0.9000E+01
       11  1    4    4    0    0 -.21509562E+02 0.83480007E+01 -.13082566E+03 0.13284466E+03 0.51099893E-03 0.0000E+00 0.9000E+01
       23  1    3    3    0    0 0.13454001E+03 -.37350214E+02 -.14662735E+03 0.22206054E+03 0.91188000E+02 0.0000E+00 0.9000E+01
#aMCatNLO 1  0  0  1  2 0.65363408D+02 0.00000000D+00  -5  7  0 0.00000000D+00 0.00000000D+00 0.00000000D+00 0.00000000D+00 0.00000000D+00
  <mgrwgt>
 0.2810083436D-03    9    2    0
 0.314813789641423D+03 0.000000000000000D+00 0.000000000000000D+00 0.314813789641423D+03
 0.314813789641423D+03 0.000000000000000D+00 0.000000000000000D+00 -.314813789641423D+03
 0.180502165533596D+03 0.937029858507391D+02 -.288461500030597D+01 -.124407434895483D+03
 0.213901561092003D+03 -.206733434565587D+03 0.318868279768845D+02 0.447034123069448D+02
 0.365277715539231D+02 -.215095624782397D+02 0.834800074778085D+01 -.283183279909911D+02
 0.198696081103323D+03 0.134540011193088D+03 -.373502137243593D+02 0.108022350579530D+03
 0.000000000000000D+00 -.000000000000000D+00 0.000000000000000D+00 0.000000000000000D+00
 0.356852188313697D+03 0.000000000000000D+00 0.000000000000000D+00 0.356852188313697D+03
 0.342978618709352D+03 0.000000000000000D+00 0.000000000000000D+00 -.342978618709352D+03
 0.186484517100565D+03 0.102981671244671D+03 -.194625102340715D+02 -.124407434895483D+03
 0.201680547597680D+03 -.196226089682660D+03 0.131137307913584D+02 0.447034123069448D+02
 0.348772463909686D+02 -.197041980647325D+02 0.512242073992099D+01 -.283183279909911D+02
 0.209968955510658D+03 0.144872468706324D+03 -.558108459033290D+02 0.108022350579530D+03
 0.668195404231772D+02 -.319238522036031D+02 0.570372046061211D+02 0.138735696043448D+02
0.206319775530D-05 0.000000000000D+00 0.000000000000D+00 0.111199167758D-06 0.000000000000D+00  7 -2 2 23 -11 11 23 21 0 0.11911405D-01 0.19693267D+00 0.70171912D+05 0.70171912D+05 0.70171912D+05 0.11345691D+01  1  2  2  1  7  1       -2 0.208719600921D-03 0.100000000000D+01
-.110468919969D-06 0.000000000000D+00 -.792322263280D-08 0.111199167758D-06 0.000000000000D+00  7 -2 2 23 -11 11 23 21 2 0.11911405D-01 0.19693267D+00 0.70171912D+05 0.70171912D+05 0.70171912D+05 0.11345691D+01  1  2  3  1  7  1       -2 -.143854803870D-04 0.100000000000D+01
0.130482601794D-06 0.000000000000D+00 0.000000000000D+00 0.111199167758D-06 0.000000000000D+00  7 -2 2 23 -11 11 23 21 2 0.11911405D-01 0.19693267D+00 0.70171912D+05 0.70171912D+05 0.70171912D+05 0.11345691D+01  1  2 15  1  7  1       -2 0.169917014621D-04 0.100000000000D+01
0.194926905580D-05 0.000000000000D+00 0.000000000000D+00 0.111199167758D-06 0.000000000000D+00  7 -2 2 23 -11 11 23 21 2 0.13975349D-01 0.19693267D+00 0.90408013D+05 0.90408013D+05 0.90408013D+05 0.11253336D+01  1  2 12  1  7  1       -2 0.193764594584D-03 0.100000000000D+01
-.180390956711D-05 0.000000000000D+00 0.000000000000D+00 0.111199167758D-06 0.000000000000D+00  7 -2 2 23 -11 11 23 21 2 0.11911405D-01 0.19693267D+00 0.70171912D+05 0.70171912D+05 0.70171912D+05 0.11345691D+01  1  2  4  1  7  1       -2 -.234908657611D-03 0.100000000000D+01
-.451672747084D-05 0.000000000000D+00 -.139201859383D-05 0.111199167758D-06 0.000000000000D+00  7 -2 2 23 -11 11 23 21 2 0.14763823D-01 0.19693267D+00 0.70171912D+05 0.70171912D+05 0.70171912D+05 0.11345691D+01  1  2  5  1  7  1       -2 -.419527093168D-03 0.100000000000D+01
0.473745236221D-05 0.000000000000D+00 0.136054492464D-05 0.111199167758D-06 0.000000000000D+00  7 -2 2 23 -11 11 23 21 2 0.11911405D-01 0.19693267D+00 0.70171912D+05 0.70171912D+05 0.70171912D+05 0.11345691D+01  1  2  6  1  7  1       -2 0.616920379596D-03 0.100000000000D+01
0.467879845953D-07 0.000000000000D+00 0.000000000000D+00 0.111199167758D-06 0.000000000000D+00  7 21 2 23 -11 11 23 2 2 0.13975349D-01 0.19693267D+00 0.90408013D+05 0.90408013D+05 0.90408013D+05 0.11253336D+01  1  2 12  3  7  1       -2 0.639924231566D-04 0.100000000000D+01
-.118329265008D-06 0.000000000000D+00 -.420445416566D-07 0.111199167758D-06 0.000000000000D+00  7 21 2 23 -11 11 23 2 2 0.14763823D-01 0.19693267D+00 0.70171912D+05 0.70171912D+05 0.70171912D+05 0.11345691D+01  1  2  5  3  7  1       -2 -.150559124946D-03 0.100000000000D+01
  </mgrwgt>
  </event>
  <event>
  8     66 0.53686478E-06 0.20755098E+03 0.75467711E-02 0.99178913E-01
       -2 -1    0    0    0  501 0.00000000E+00 0.00000000E+00 0.53183764E+02 0.53184726E+02 0.32000000E+00 0.0000E+00 0.9000E+01
        2 -1    0    0  501    0 0.00000000E+00 0.00000000E+00 -.10884265E+04 0.10884265E+04 0.32000000E+00 0.0000E+00 0.9000E+01
       25  2    1    2    0    0 0.52067146E+02 0.92710076E+02 -.53920047E+03 0.62576520E+03 0.29923033E+03 0.0000E+00 0.0000E+00
       23  2    1    2    0    0 -.52067146E+02 -.92710076E+02 -.49604223E+03 0.51584604E+03 0.93451025E+02 0.0000E+00 0.0000E+00
       23  1    3    3    0    0 0.11364739E+03 0.12568588E+03 -.25679348E+03 0.32089065E+03 0.91188000E+02 0.0000E+00 0.9000E+01
      -13  1    4    4    0    0 -.21548719E+01 -.16928527E+02 -.69815548E+01 0.18438323E+02 0.10565837E+00 0.0000E+00 0.9000E+01
       13  1    4    4    0    0 -.49912275E+02 -.75781549E+02 -.48906068E+03 0.49740771E+03 0.10565837E+00 0.0000E+00 0.9000E+01
       23  1    3    3    0    0 -.61580242E+02 -.32975802E+02 -.28240699E+03 0.30487455E+03 0.91188000E+02 0.0000E+00 0.9000E+01
#aMCatNLO 1  0  0  2  2 0.23437805D+03 0.00000000D+00  -5  7  0 0.00000000D+00 0.00000000D+00 0.00000000D+00 0.00000000D+00 0.00000000D+00
  <mgrwgt>
 0.2672614118D-03    5    2    0
 0.240597572893738D+03 0.000000000000000D+00 0.000000000000000D+00 0.240597572893738D+03
 0.240597572893738D+03 0.000000000000000D+00 0.000000000000000D+00 -.240597572893738D+03
 0.208831735648068D+03 0.113647405193423D+03 0.125685907840144D+03 0.811342241781193D+02
 0.287237200483366D+02 -.215482564898215D+01 -.169284604381595D+02 0.231048922748273D+02
 0.127910285275364D+03 -.499123470921376D+02 -.757816621030557D+02 -.901495334201866D+02
 0.115729404815707D+03 -.615802324523028D+02 -.329757852989288D+02 -.140895830327600D+02
 0.000000000000000D+00 -.000000000000000D+00 -.000000000000000D+00 -.000000000000000D+00
 0.280810664409808D+03 0.000000000000000D+00 0.000000000000000D+00 0.280810664409808D+03
 0.130875472459458D+04 0.000000000000000D+00 0.000000000000000D+00 -.130875472459458D+04
 0.309425324651252D+03 0.157036619294871D+03 0.237034845664061D+03 0.811342241781193D+02
 0.238859663035159D+02 0.224973170256112D+01 -.562512635305339D+01 0.231048922748273D+02
 0.990571038048106D+02 -.309103162598731D+02 -.270171017511929D+02 -.901495334201866D+02
 0.102871588179006D+03 -.432786481335889D+02 0.139912321174025D+02 -.140895830327600D+02
 0.105432540606580D+04 -.850973866039700D+02 -.218383849677217D+03 -.102794406018477D+04
0.114702679268D-05 0.000000000000D+00 0.000000000000D+00 0.282182482804D-07 0.000000000000D+00  7 -2 2 23 -13 13 23 21 0 0.81821951D-02 0.16745030D+00 0.43077411D+05 0.43077411D+05 0.43077411D+05 0.11530320D+01  1  2  2  2  7  2        2 0.264626263083D-03 0.100000000000D+01
-.620323747842D-07 0.000000000000D+00 -.440488490297D-08 0.282182482804D-07 0.000000000000D+00  7 -2 2 23 -13 13 23 21 2 0.81821951D-02 0.16745030D+00 0.43077411D+05 0.43077411D+05 0.43077411D+05 0.11530320D+01  1  2  3  2  7  2        2 -.190265719258D-04 0.100000000000D+01
0.707035433739D-07 0.000000000000D+00 0.000000000000D+00 0.282182482804D-07 0.000000000000D+00  7 -2 2 23 -13 13 23 21 2 0.81821951D-02 0.16745030D+00 0.43077411D+05 0.43077411D+05 0.43077411D+05 0.11530320D+01  1  2 15  2  7  2        2 0.216861930257D-04 0.100000000000D+01
-.282603082175D-05 0.000000000000D+00 -.467750164918D-06 0.282182482804D-07 0.000000000000D+00  7 -2 2 23 -13 13 23 21 2 0.81821951D-02 0.91369497D+00 0.43077411D+05 0.43077411D+05 0.43077411D+05 0.11530320D+01  1  2  5  2  7  2        2 -.244600401258D-07 0.100000000000D+01
-.607907465250D-06 0.000000000000D+00 -.971119716875D-07 0.282182482804D-07 0.000000000000D+00  7 -2 21 23 -13 13 23 -2 2 0.81821951D-02 0.91369497D+00 0.43077411D+05 0.43077411D+05 0.43077411D+05 0.11530320D+01  1  2  5  4  7  2        2 -.123484712819D-10 0.100000000000D+01
  </mgrwgt>
  </event>
  <event>
  8     66 0.53686478E-06 0.24513512E+03 0.75467711E-02 0.10325809E+00
       -2 -1    0    0    0  501 0.00000000E+00 0.00000000E+00 0.86044168E+02 0.86044763E+02 0.32000000E+00 0.0000E+00 0.9000E+01
        2 -1    0    0  501    0 0.00000000E+00 0.00000000E+00 -.13733697E+04 0.13733697E+04 0.32000000E+00 0.0000E+00 0.9000E+01
       25  2    1    2    0    0 0.15270503E+03 -.18775514E+02 -.12085702E+04 0.12546065E+04 0.29953976E+03 0.0000E+00 0.0000E+00
       23  2    1    2    0    0 -.15270503E+03 0.18775514E+02 -.78755331E+02 0.20480805E+03 0.10987534E+03 0.0000E+00 0.0000E+00
       23  1    3    3    0    0 0.31165892E+02 0.86049633E+02 -.28711274E+03 0.31484095E+03 0.91188000E+02 0.0000E+00 0.9000E+01
      -11  1    4    4    0    0 -.60516351E+02 -.34846381E+02 0.38068476E+01 0.69935621E+02 0.51099893E-03 0.0000E+00 0.9000E+01
       11  1    4    4    0    0 -.92188675E+02 0.53621895E+02 -.82562178E+02 0.13487243E+03 0.51099893E-03 0.0000E+00 0.9000E+01
       23  1    3    3    0    0 0.12153913E+03 -.10482515E+03 -.92145748E+03 0.93976551E+03 0.91188000E+02 0.0000E+00 0.9000E+01
#aMCatNLO 1  0  0  2  1 0.83802847D+01 0.00000000D+00  -5  7  0 0.00000000D+00 0.00000000D+00 0.00000000D+00 0.00000000D+00 0.00000000D+00
  <mgrwgt>
 0.1170455785D-03    6    2    0
 0.343759968163187D+03 0.000000000000000D+00 0.000000000000000D+00 0.343759968163187D+03
 0.343759968163187D+03 0.000000000000000D+00 0.000000000000000D+00 -.343759968163187D+03
 0.130724790024358D+03 0.311658917974586D+02 0.860496334500712D+02 -.199466075935237D+02
 0.155581978405911D+03 -.605163513946193D+02 -.348463799233291D+02 0.139029683970077D+03
 0.131705827011878D+03 -.921886743555671D+02 0.536218937058006D+02 0.772810824513339D+02
 0.269507340884227D+03 0.121539133952728D+03 -.104825147232543D+03 -.196364158827887D+03
 0.000000000000000D+00 -.000000000000000D+00 0.000000000000000D+00 0.000000000000000D+00
 0.352211310165342D+03 0.000000000000000D+00 0.000000000000000D+00 0.352211310165342D+03
 0.345869256753325D+03 0.000000000000000D+00 0.000000000000000D+00 -.345869256753325D+03
 0.130962333649811D+03 0.327446961132822D+02 0.858242344152467D+02 -.199466075935237D+02
 0.154923327870578D+03 -.586430184206751D+02 -.351138275354238D+02 0.139029683970077D+03
 0.130510812823467D+03 -.906066753758684D+02 0.533960385826904D+02 0.772810824513339D+02
 0.271174534366141D+03 0.124801162539185D+03 -.105290852885604D+03 -.196364158827887D+03
 0.105095582086695D+02 -.829616485592351D+01 0.118440742309120D+01 0.634205341201718D+01
0.222280553820D-05 0.000000000000D+00 0.000000000000D+00 0.202044482905D-08 0.000000000000D+00  7 -2 2 23 -11 11 23 21 0 0.13237613D-01 0.21128770D+00 0.60091229D+05 0.60091229D+05 0.60091229D+05 0.11403381D+01  1  2  2  2  7  2        2 0.169728289152D-03 0.100000000000D+01
-.106322437791D-06 0.000000000000D+00 -.853615854482D-08 0.202044482905D-08 0.000000000000D+00  7 -2 2 23 -11 11 23 21 2 0.13237613D-01 0.21128770D+00 0.60091229D+05 0.60091229D+05 0.60091229D+05 0.11403381D+01  1  2  3  2  7  2        2 -.105571083795D-04 0.100000000000D+01
0.136361484998D-06 0.000000000000D+00 0.000000000000D+00 0.202044482905D-08 0.000000000000D+00  7 -2 2 23 -11 11 23 21 2 0.13237613D-01 0.21128770D+00 0.60091229D+05 0.60091229D+05 0.60091229D+05 0.11403381D+01  1  2 15  2  7  2        2 0.135397852590D-04 0.100000000000D+01
-.566794516771D-06 0.000000000000D+00 0.000000000000D+00 0.202044482905D-08 0.000000000000D+00  7 -2 2 23 -11 11 23 21 2 0.13237613D-01 0.21128770D+00 0.60091229D+05 0.60091229D+05 0.60091229D+05 0.11403381D+01  1  2  4  2  7  2        2 -.562789122104D-04 0.100000000000D+01
0.647462282848D-08 0.000000000000D+00 0.000000000000D+00 0.202044482905D-08 0.199169088102D-09  7 -2 2 23 -11 11 23 21 2 0.13563060D-01 0.21258414D+00 0.62089977D+05 0.62089977D+05 0.62089977D+05 0.11391134D+01  1  2 11  2  7  2        2 0.610763232044D-06 0.100000000000D+01
0.667434577252D-10 0.000000000000D+00 0.000000000000D+00 0.202044482905D-08 0.230366350954D-12  7 -2 21 23 -11 11 23 -2 2 0.13563060D-01 0.21258414D+00 0.62089977D+05 0.62089977D+05 0.62089977D+05 0.11391134D+01  1  2 11  4  7  2        2 0.276143995228D-08 0.100000000000D+01
  </mgrwgt>
  </event>
  <event>
  8     66 0.53686478E-06 0.26271393E+03 0.75467711E-02 0.97516141E-01
       -2 -1    0    0    0  501 0.00000000E+00 0.00000000E+00 0.42035429E+02 0.42036647E+02 0.32000000E+00 0.0000E+00 0.9000E+01
        2 -1    0    0  501    0 0.00000000E+00 0.00000000E+00 -.20266254E+04 0.20266254E+04 0.32000000E+00 0.0000E+00 0.9000E+01
       25  2    1    2    0    0 0.20090596E+03 -.25046389E+02 -.12319045E+04 0.12840242E+04 0.30023133E+03 0.0000E+00 0.0000E+00
       23  2    1    2    0    0 -.20090596E+03 0.25046389E+02 -.75268545E+03 0.78463788E+03 0.90170309E+02 0.0000E+00 0.0000E+00
       23  1    3    3    0    0 0.14129809E+03 -.75265605E+02 -.10505595E+04 0.10665929E+04 0.91188000E+02 0.0000E+00 0.9000E+01
      -11  1    4    4    0    0 -.32290784E+02 -.29774166E+02 -.13128436E+03 0.13843691E+03 0.51099893E-03 0.0000E+00 0.9000E+01
       11  1    4    4    0    0 -.16861518E+03 0.54820555E+02 -.62140109E+03 0.64620097E+03 0.51099893E-03 0.0000E+00 0.9000E+01
       23  1    3    3    0    0 0.59607879E+02 0.50219216E+02 -.18134505E+03 0.21743124E+03 0.91188000E+02 0.0000E+00 0.9000E+01
#aMCatNLO 1  0  0  1  1 0.22411447D+03 0.00000000D+00  -5  7  0 0.00000000D+00 0.00000000D+00 0.00000000D+00 0.00000000D+00 0.00000000D+00
  <mgrwgt>
 0.2560302951D-03    3    2    0
 0.291875579317906D+03 0.000000000000000D+00 0.000000000000000D+00 0.291875579317906D+03
 0.291875579317906D+03 0.000000000000000D+00 0.000000000000000D+00 -.291875579317906D+03
 0.208120503030482D+03 0.141298085765199D+03 -.752656047708384D+02 -.967927276980629D+02
 0.442544170814163D+02 -.322907843154604D+02 -.297741659551441D+02 0.540904068980010D+01
 0.177378757980385D+03 -.168615179999237D+03 0.548205548892152D+02 -.518185469954861D+01
 0.153997480543529D+03 0.596078785494990D+02 0.502192158367672D+02 0.965655417078114D+02
 0.000000000000000D+00 0.000000000000000D+00 -.000000000000000D+00 -.000000000000000D+00
 0.379314616286872D+03 0.000000000000000D+00 0.000000000000000D+00 0.379314616286872D+03
 0.500996858544973D+03 0.000000000000000D+00 0.000000000000000D+00 -.500996858544973D+03
 0.164764865965645D+03 0.730658269503002D+02 -.642243140057914D+02 -.967927276980629D+02
 0.578157377763468D+02 -.509680449499585D+02 -.267518262445462D+02 0.540904068980010D+01
 0.257267725281978D+03 -.248148768079630D+03 0.676906179185713D+02 -.518185469954861D+01
 0.145445769328324D+03 0.481439233512609D+01 0.590858549284718D+02 0.965655417078114D+02
 0.255017376479552D+03 0.221236593744162D+03 -.358003325967054D+02 -.121682242258101D+03
0.246899380487D-05 0.000000000000D+00 0.000000000000D+00 0.118500187311D-06 0.000000000000D+00  7 -2 2 23 -11 11 23 21 0 0.64670847D-02 0.31178862D+00 0.69018608D+05 0.69018608D+05 0.69018608D+05 0.11351813D+01  1  2  2  1  7  1       -2 0.252535049647D-03 0.100000000000D+01
-.135318452668D-06 0.000000000000D+00 -.948158631169D-08 0.118500187311D-06 0.000000000000D+00  7 -2 2 23 -11 11 23 21 2 0.64670847D-02 0.31178862D+00 0.69018608D+05 0.69018608D+05 0.69018608D+05 0.11351813D+01  1  2  3  1  7  1       -2 -.178356569010D-04 0.100000000000D+01
0.161836747619D-06 0.000000000000D+00 0.000000000000D+00 0.118500187311D-06 0.000000000000D+00  7 -2 2 23 -11 11 23 21 2 0.64670847D-02 0.31178862D+00 0.69018608D+05 0.69018608D+05 0.69018608D+05 0.11351813D+01  1  2 15  1  7  1       -2 0.213309023832D-04 0.100000000000D+01
  </mgrwgt>
  </event>
  <event>
  8     66 0.53686478E-06 0.71069108E+02 0.75467711E-02 0.10233430E+00
       -2 -1    0    0    0  501 0.00000000E+00 0.00000000E+00 0.98378057E+02 0.98378577E+02 0.32000000E+00 0.0000E+00 0.9000E+01
        2 -1    0    0  501    0 0.00000000E+00 0.00000000E+00 -.68986684E+03 0.68986691E+03 0.32000000E+00 0.0000E+00 0.9000E+01
       25  2    1    2    0    0 -.46478268E+02 0.68680611E+02 -.58714503E+03 0.66437007E+03 0.29961817E+03 0.0000E+00 0.0000E+00
       23  2    1    2    0    0 0.46478268E+02 -.68680611E+02 -.43437565E+01 0.12387543E+03 0.91918426E+02 0.0000E+00 0.0000E+00
       23  1    3    3    0    0 -.65003674E+02 -.56659833E+01 -.51065236E+03 0.52281800E+03 0.91188000E+02 0.0000E+00 0.9000E+01
      -13  1    4    4    0    0 0.18580721E+02 0.16407570E+02 0.19122201E+02 0.31306889E+02 0.10565837E+00 0.0000E+00 0.9000E+01
       13  1    4    4    0    0 0.27897546E+02 -.85088181E+02 -.23465957E+02 0.92568537E+02 0.10565837E+00 0.0000E+00 0.9000E+01
       23  1    3    3    0    0 0.18525406E+02 0.74346594E+02 -.76492666E+02 0.14155206E+03 0.91188000E+02 0.0000E+00 0.9000E+01
#aMCatNLO 1  0  0  2  1 0.15625784D+03 0.00000000D+00  -5  7  0 0.00000000D+00 0.00000000D+00 0.00000000D+00 0.00000000D+00 0.00000000D+00
  <mgrwgt>
 0.1387031389D-03    7    2    0
 0.260514862344498D+03 0.000000000000000D+00 0.000000000000000D+00 0.260514862344498D+03
 0.260514862344498D+03 0.000000000000000D+00 0.000000000000000D+00 -.260514862344498D+03
 0.211242826130997D+03 -.650036742203070D+02 -.566598234328639D+01 -.179027090770521D+03
 0.690710124439368D+02 0.185807093307758D+02 0.164077023626941D+02 0.644697549551178D+02
 0.113404109436456D+03 0.278975589759039D+02 -.850883144895974D+02 0.695858963984868D+02
 0.127311776677607D+03 0.185254059136273D+02 0.743465944701897D+02 0.449714394169168D+02
 0.000000000000000D+00 -.000000000000000D+00 -.000000000000000D+00 -.000000000000000D+00
 0.276606528961324D+03 0.000000000000000D+00 0.000000000000000D+00 0.276606528961324D+03
 0.159083013733045D+04 0.000000000000000D+00 0.000000000000000D+00 -.159083013733045D+04
 0.217069704626805D+03 -.592780433621587D+02 0.569158999592035D+02 -.179027090770521D+03
 0.775182440705184D+02 0.205402970390486D+02 0.378262482589958D+02 0.644697549551178D+02
 0.937444250063807D+02 0.306666958931163D+02 -.548212915316223D+02 0.695858963984868D+02
 0.155623954373512D+03 0.223076570415895D+02 0.115687086163212D+03 0.449714394169168D+02
 0.132348033821455D+04 -.142366066115957D+02 -.155607942849789D+03 -.131422360836912D+04
0.927140581104D-06 0.000000000000D+00 0.000000000000D+00 0.138121183449D-06 0.000000000000D+00  7 -2 2 23 -13 13 23 21 0 0.15135131D-01 0.10613341D+00 0.29853997D+05 0.29853997D+05 0.29853997D+05 0.11675326D+01  1  2  2  2  7  2        2 0.148968595220D-03 0.100000000000D+01
-.409483693713D-07 0.000000000000D+00 -.356046395316D-08 0.138121183449D-06 0.000000000000D+00  7 -2 2 23 -13 13 23 21 2 0.15135131D-01 0.10613341D+00 0.29853997D+05 0.29853997D+05 0.29853997D+05 0.11675326D+01  1  2  3  2  7  2        2 -.896858108735D-05 0.100000000000D+01
0.558825677874D-07 0.000000000000D+00 0.000000000000D+00 0.138121183449D-06 0.000000000000D+00  7 -2 2 23 -13 13 23 21 2 0.15135131D-01 0.10613341D+00 0.29853997D+05 0.29853997D+05 0.29853997D+05 0.11675326D+01  1  2 15  2  7  2        2 0.122394944723D-04 0.100000000000D+01
0.150269083278D-06 0.000000000000D+00 0.000000000000D+00 0.138121183449D-06 0.000000000000D+00  7 -2 2 23 -13 13 23 21 2 0.15135131D-01 0.62649068D+00 0.71250426D+05 0.71250426D+05 0.71250426D+05 0.11340065D+01  1  2 12  2  7  2        2 0.257739565705D-06 0.100000000000D+01
-.955672823193D-05 0.000000000000D+00 -.442044892589D-06 0.138121183449D-06 0.000000000000D+00  7 -2 2 23 -13 13 23 21 2 0.15135131D-01 0.65057822D+00 0.29853997D+05 0.29853997D+05 0.29853997D+05 0.11675326D+01  1  2  5  2  7  2        2 -.137438996492D-04 0.100000000000D+01
0.326944984583D-07 0.000000000000D+00 0.000000000000D+00 0.138121183449D-06 0.000000000000D+00  7 -2 21 23 -13 13 23 -2 2 0.15135131D-01 0.62649068D+00 0.71250426D+05 0.71250426D+05 0.71250426D+05 0.11340065D+01  1  2 12  4  7  2        2 0.105500807198D-08 0.100000000000D+01
-.215382146991D-05 0.000000000000D+00 -.982316536611D-07 0.138121183449D-06 0.000000000000D+00  7 -2 21 23 -13 13 23 -2 2 0.15135131D-01 0.65057822D+00 0.29853997D+05 0.29853997D+05 0.29853997D+05 0.11675326D+01  1  2  5  4  7  2        2 -.512646291374D-07 0.100000000000D+01
  </mgrwgt>
  </event>
  <event>
  8     66 0.53686478E-06 0.17261526E+03 0.75467711E-02 0.95944156E-01
       -2 -1    0    0    0  501 0.00000000E+00 0.00000000E+00 0.32664514E+03 0.32664530E+03 0.32000000E+00 0.0000E+00 0.9000E+01
        2 -1    0    0  501    0 0.00000000E+00 0.00000000E+00 -.44841105E+03 0.44841116E+03 0.32000000E+00 0.0000E+00 0.9000E+01
       25  2    1    2    0    0 0.69167916E+02 -.30214193E+03 -.13155657E+03 0.45122008E+03 0.30036391E+03 0.0000E+00 0.0000E+00
       23  2    1    2    0    0 -.69167916E+02 0.30214193E+03 0.97906577E+01 0.32383638E+03 0.93274847E+02 0.0000E+00 0.0000E+00
       23  1    3    3    0    0 0.92468507E+02 -.17651143E+03 -.18355442E+03 0.28585694E+03 0.91188000E+02 0.0000E+00 0.9000E+01
      -11  1    4    4    0    0 -.49265711E+02 0.25867026E+03 -.25296304E+02 0.26453226E+03 0.51099893E-03 0.0000E+00 0.9000E+01
       11  1    4    4    0    0 -.19902205E+02 0.43471678E+02 0.35086962E+02 0.59304126E+02 0.51099893E-03 0.0000E+00 0.9000E+01
       23  1    3    3    0    0 -.23300591E+02 -.12563050E+03 0.51997855E+02 0.16536314E+03 0.91188000E+02 0.0000E+00 0.9000E+01
#aMCatNLO 1  0  0  1  2 0.18987551D+03 0.00000000D+00  -5  7  0 0.00000000D+00 0.00000000D+00 0.00000000D+00 0.00000000D+00 0.00000000D+00
  <mgrwgt>
 0.3528951759D-03    9    2    0
 0.382715814364870D+03 0.000000000000000D+00 0.000000000000000D+00 0.382715814364870D+03
 0.382715814364870D+03 0.000000000000000D+00 0.000000000000000D+00 -.382715814364870D+03
 0.260251324009197D+03 0.924685072792660D+02 -.176511434622380D+03 -.140387994193355D+03
 0.263834414725433D+03 -.492657113213121D+02 0.258670255046607D+03 0.164677635287919D+02
 0.656315211519559D+02 -.199022046696056D+02 0.434716777707865D+02 0.449623403505831D+02
 0.175714368843155D+03 -.233005912883483D+02 -.125630498195013D+03 0.789578903139801D+02
 0.000000000000000D+00 0.000000000000000D+00 -.000000000000000D+00 0.000000000000000D+00
 0.528744804902471D+03 0.000000000000000D+00 0.000000000000000D+00 0.528744804902471D+03
 0.461362946584205D+03 0.000000000000000D+00 0.000000000000000D+00 -.461362946584205D+03
 0.222047806556821D+03 0.858301882142103D+02 -.117959174845262D+03 -.140387994193355D+03
 0.336965691216279D+03 -.575350664679402D+02 0.331608814641219D+03 0.164677635287919D+02
 0.788919589192417D+02 -.218914120148042D+02 0.610171714545318D+02 0.449623403505831D+02
 0.150725185093143D+03 -.277936740603211D+02 -.859999611439237D+02 0.789578903139801D+02
 0.201477109701191D+03 0.213899643288552D+02 -.188666850106565D+03 0.673818583182659D+02
0.919471333068D-05 0.000000000000D+00 0.000000000000D+00 0.167807001452D-06 0.000000000000D+00  7 -2 2 23 -11 11 23 21 0 0.50253119D-01 0.68986336D-01 0.11807648D+06 0.11807648D+06 0.11807648D+06 0.11158479D+01  1  2  2  1  7  1       -2 0.297423813416D-03 0.100000000000D+01
-.503606797037D-06 0.000000000000D+00 -.353101202134D-07 0.167807001452D-06 0.000000000000D+00  7 -2 2 23 -11 11 23 21 2 0.50253119D-01 0.68986336D-01 0.11807648D+06 0.11807648D+06 0.11807648D+06 0.11158479D+01  1  2  3  1  7  1       -2 -.202833229592D-04 0.100000000000D+01
0.597068861648D-06 0.000000000000D+00 0.000000000000D+00 0.167807001452D-06 0.000000000000D+00  7 -2 2 23 -11 11 23 21 2 0.50253119D-01 0.68986336D-01 0.11807648D+06 0.11807648D+06 0.11807648D+06 0.11158479D+01  1  2 15  1  7  1       -2 0.240476113923D-04 0.100000000000D+01
0.236207621324D-05 0.000000000000D+00 0.000000000000D+00 0.167807001452D-06 0.000000000000D+00  7 -2 2 23 -11 11 23 21 2 0.72999155D-01 0.68986336D-01 0.19877736D+06 0.19877736D+06 0.19877736D+06 0.10980300D+01  1  2 12  1  7  1       -2 0.421519261902D-04 0.100000000000D+01
-.445653410806D-05 0.000000000000D+00 0.000000000000D+00 0.167807001452D-06 0.000000000000D+00  7 -2 2 23 -11 11 23 21 2 0.50253119D-01 0.68986336D-01 0.11807648D+06 0.11807648D+06 0.11807648D+06 0.11158479D+01  1  2  4  1  7  1       -2 -.179491859769D-03 0.100000000000D+01
-.597515951162D-05 0.000000000000D+00 -.330086990033D-05 0.167807001452D-06 0.000000000000D+00  7 -2 2 23 -11 11 23 21 2 0.81205824D-01 0.68986336D-01 0.11807648D+06 0.11807648D+06 0.11807648D+06 0.11158479D+01  1  2  5  1  7  1       -2 -.880311447378D-04 0.100000000000D+01
0.707549895218D-05 0.000000000000D+00 0.295409941202D-05 0.167807001452D-06 0.000000000000D+00  7 -2 2 23 -11 11 23 21 2 0.50253119D-01 0.68986336D-01 0.11807648D+06 0.11807648D+06 0.11807648D+06 0.11158479D+01  1  2  6  1  7  1       -2 0.284973576983D-03 0.100000000000D+01
0.106924106092D-06 0.000000000000D+00 0.000000000000D+00 0.167807001452D-06 0.000000000000D+00  7 21 2 23 -11 11 23 2 2 0.72999155D-01 0.68986336D-01 0.19877736D+06 0.19877736D+06 0.19877736D+06 0.10980300D+01  1  2 12  3  7  1       -2 0.188136773659D-04 0.100000000000D+01
-.184212363576D-06 0.000000000000D+00 -.180217384671D-06 0.167807001452D-06 0.000000000000D+00  7 21 2 23 -11 11 23 2 2 0.81205824D-01 0.68986336D-01 0.11807648D+06 0.11807648D+06 0.11807648D+06 0.11158479D+01  1  2  5  3  7  1       -2 -.267091020204D-04 0.100000000000D+01
  </mgrwgt>
  </event>
  <event>
  8     66 0.53686478E-06 0.99095818E+02 0.75467711E-02 0.10130561E+00
       -2 -1    0    0    0  501 0.00000000E+00 0.00000000E+00 0.20465770E+03 0.20465795E+03 0.32000000E+00 0.0000E+00 0.9000E+01
        2 -1    0    0  501    0 0.00000000E+00 0.00000000E+00 -.31924608E+03 0.31924624E+03 0.32000000E+00 0.0000E+00 0.9000E+01
       25  2    1    2    0    0 0.85477561E+02 -.54860607E+02 -.18972895E+03 0.36857802E+03 0.29922664E+03 0.0000E+00 0.0000E+00
       23  2    1    2    0    0 -.85477561E+02 0.54860607E+02 0.75140573E+02 0.15532616E+03 0.90354917E+02 0.0000E+00 0.0000E+00
       23  1    3    3    0    0 0.11228039E+03 -.10530135E+03 -.38556710E+02 0.18302221E+03 0.91188000E+02 0.0000E+00 0.9000E+01
      -13  1    4    4    0    0 -.97021199E+02 0.49300176E+02 0.85859917E+02 0.13862019E+03 0.10565837E+00 0.0000E+00 0.9000E+01
       13  1    4    4    0    0 0.11543638E+02 0.55604310E+01 -.10719345E+02 0.16705971E+02 0.10565837E+00 0.0000E+00 0.9000E+01
       23  1    3    3    0    0 -.26802829E+02 0.50440739E+02 -.15117224E+03 0.18555581E+03 0.91188000E+02 0.0000E+00 0.9000E+01
#aMCatNLO 1  0  0  1  2 0.13616245D+03 0.00000000D+00  -5  7  0 0.00000000D+00 0.00000000D+00 0.00000000D+00 0.00000000D+00 0.00000000D+00
  <mgrwgt>
 0.5272136485D-03    8    2    0
 0.255609613392207D+03 0.000000000000000D+00 0.000000000000000D+00 0.255609613392207D+03
 0.255609613392207D+03 0.000000000000000D+00 0.000000000000000D+00 -.255609613392207D+03
 0.178921190426777D+03 0.112280390176504D+03 -.105301345717983D+03 0.151050042333532D+01
 0.161305258832811D+03 -.970213480754456D+02 0.493002368960907D+02 0.119061879653954D+03
 0.147175865460858D+02 0.115437858883841D+02 0.556037121807787D+01 -.724090001462801D+01
 0.156275190978741D+03 -.268028279894427D+02 0.504407376038144D+02 -.113331480062661D+03
 0.000000000000000D+00 0.000000000000000D+00 0.000000000000000D+00 0.000000000000000D+00
 0.455291665109622D+03 0.000000000000000D+00 0.000000000000000D+00 0.455291665109622D+03
 0.288817396940494D+03 0.000000000000000D+00 0.000000000000000D+00 -.288817396940494D+03
 0.157590824438306D+03 0.683744141589683D+02 -.108822215011614D+03 0.151050042333532D+01
 0.191638020920575D+03 -.143071172426043D+03 0.456074500083023D+02 0.119061879653954D+03
 0.120474726930242D+02 0.805164891511306D+01 0.528033285078518D+01 -.724090001462801D+01
 0.167765560518635D+03 -.690816318225010D+02 0.470503530664612D+02 -.113331480062661D+03
 0.215067183479576D+03 0.135726741174462D+03 0.108840790860651D+02 0.166474268169127D+03
0.252867510890D-05 0.000000000000D+00 0.000000000000D+00 0.114193116017D-06 0.000000000000D+00  7 -2 2 23 -13 13 23 21 0 0.31485831D-01 0.49114813D-01 0.41648079D+05 0.41648079D+05 0.41648079D+05 0.11543433D+01  1  2  2  1  7  1       -2 0.282526146430D-03 0.100000000000D+01
-.131823687831D-06 0.000000000000D+00 -.971077823363D-08 0.114193116017D-06 0.000000000000D+00  7 -2 2 23 -13 13 23 21 2 0.31485831D-01 0.49114813D-01 0.41648079D+05 0.41648079D+05 0.41648079D+05 0.11543433D+01  1  2  3  1  7  1       -2 -.196258762462D-04 0.100000000000D+01
0.161784723581D-06 0.000000000000D+00 0.000000000000D+00 0.114193116017D-06 0.000000000000D+00  7 -2 2 23 -13 13 23 21 2 0.31485831D-01 0.49114813D-01 0.41648079D+05 0.41648079D+05 0.41648079D+05 0.11543433D+01  1  2 15  1  7  1       -2 0.240864674306D-04 0.100000000000D+01
0.601446153361D-06 0.000000000000D+00 0.000000000000D+00 0.114193116017D-06 0.000000000000D+00  7 -2 2 23 -13 13 23 21 2 0.56739014D-01 0.49114813D-01 0.83300788D+05 0.83300788D+05 0.83300788D+05 0.11282925D+01  1  2 12  1  7  1       -2 0.283001962898D-04 0.100000000000D+01
-.192108989502D-05 0.000000000000D+00 -.796401983707D-06 0.114193116017D-06 0.000000000000D+00  7 -2 2 23 -13 13 23 21 2 0.61695005D-01 0.49114813D-01 0.41648079D+05 0.41648079D+05 0.41648079D+05 0.11543433D+01  1  2  5  1  7  1       -2 -.803500686032D-04 0.100000000000D+01
0.211214848831D-05 0.000000000000D+00 0.644912257807D-06 0.114193116017D-06 0.000000000000D+00  7 -2 2 23 -13 13 23 21 2 0.31485831D-01 0.49114813D-01 0.41648079D+05 0.41648079D+05 0.41648079D+05 0.11543433D+01  1  2  6  1  7  1       -2 0.314456115794D-03 0.100000000000D+01
0.388376946555D-07 0.000000000000D+00 0.000000000000D+00 0.114193116017D-06 0.000000000000D+00  7 21 2 23 -13 13 23 2 2 0.56739014D-01 0.49114813D-01 0.83300788D+05 0.83300788D+05 0.83300788D+05 0.11282925D+01  1  2 12  3  7  1       -2 0.193496216814D-04 0.100000000000D+01
-.930448347486D-07 0.000000000000D+00 -.580338694727D-07 0.114193116017D-06 0.000000000000D+00  7 21 2 23 -13 13 23 2 2 0.61695005D-01 0.49114813D-01 0.41648079D+05 0.41648079D+05 0.41648079D+05 0.11543433D+01  1  2  5  3  7  1       -2 -.415289542351D-04 0.100000000000D+01
  </mgrwgt>
  </event>
  <event>
  9     66 0.53686478E-06 0.51666433E+03 0.75467711E-02 0.90913137E-01
       -2 -1    0    0    0  501 0.00000000E+00 0.00000000E+00 0.33582428E+03 0.33582444E+03 0.32000000E+00 0.0000E+00 0.9000E+01
        2 -1    0    0  502    0 0.00000000E+00 0.00000000E+00 -.20954188E+04 0.20954188E+04 0.32000000E+00 0.0000E+00 0.9000E+01
       25  2    1    2    0    0 -.32605713E+03 0.76992874E+01 -.45830247E+02 0.44784015E+03 0.30345980E+03 0.0000E+00 0.0000E+00
       23  2    1    2    0    0 0.60750070E+03 -.17172787E+03 -.86852019E+03 0.10775588E+04 0.90873682E+02 0.0000E+00 0.0000E+00
       23  1    3    3    0    0 -.18459237E+03 0.12372065E+03 -.10842830E+02 0.24044534E+03 0.91188000E+02 0.0000E+00 0.9000E+01
      -11  1    4    4    0    0 0.11362097E+03 -.17257211E+01 -.12525325E+03 0.16911854E+03 0.51099893E-03 0.0000E+00 0.9000E+01
       11  1    4    4    0    0 0.49387973E+03 -.17000215E+03 -.74326694E+03 0.90844024E+03 0.51099893E-03 0.0000E+00 0.9000E+01
       23  1    3    3    0    0 -.14146476E+03 -.11602136E+03 -.34987417E+02 0.20739481E+03 0.91188000E+02 0.0000E+00 0.9000E+01
       21  1    1    2  502  501 -.28144357E+03 0.16402858E+03 -.84524408E+03 0.90584434E+03 0.75000000E+00 0.0000E+00 0.9000E+01
#aMCatNLO 2  0  0  2  1 0.32575429D+03 0.00000000D+00  -5  7  0 0.00000000D+00 0.00000000D+00 0.00000000D+00 0.00000000D+00 0.00000000D+00
  <mgrwgt>
 0.2880091213D-04    2    2    0
 0.588364105582982D+03 0.000000000000000D+00 0.000000000000000D+00 0.588364105582982D+03
 0.588364105582982D+03 0.000000000000000D+00 0.000000000000000D+00 -.588364105582982D+03
 0.364661069218588D+03 -.261703263518323D+03 0.168661776277483D+03 0.166514417232945D+03
 0.944881821346065D+02 0.887395200838905D+02 0.127754755886801D+02 -.298345665607260D+02
 0.458256047529908D+03 0.372205776023040D+03 -.990891525725180D+02 -.248279691548221D+03
 0.259322912282862D+03 -.199242032588608D+03 -.823480992936452D+02 0.111599840876001D+03
 0.000000000000000D+00 -.000000000000000D+00 0.000000000000000D+00 -.000000000000000D+00
 0.671037534135861D+03 0.000000000000000D+00 0.000000000000000D+00 0.671037534135861D+03
 0.104866291979502D+04 0.000000000000000D+00 0.000000000000000D+00 -.104866291979502D+04
 0.292272892915445D+03 -.184592367764606D+03 0.123720649876212D+03 0.166514417232945D+03
 0.117485333908007D+03 0.113620967292089D+03 -.172572107231587D+01 -.298345665607260D+02
 0.578325795967582D+03 0.493879732739290D+03 -.170002148914726D+03 -.248279691548221D+03
 0.232901292619741D+03 -.141464764949099D+03 -.116021362491110D+03 0.111599840876001D+03
 0.498715138520107D+03 -.281443567317675D+03 0.164028582601940D+03 -.377625385659161D+03
-.560053219409D-05 0.000000000000D+00 0.000000000000D+00 0.601998542459D-07 0.000000000000D+00  7 -2 2 23 -11 11 23 21 2 0.45299983D-01 0.32647167D+00 0.49444184D+06 0.49444184D+06 0.49444184D+06 0.10688537D+01  1  2 13  2  7  2        2 -.213479087923D-04 0.100000000000D+01
0.164876927402D-04 0.000000000000D+00 0.000000000000D+00 0.601998542459D-07 0.366924118656D-11  7 -2 2 23 -11 11 23 21 2 0.51665268D-01 0.32237201D+00 0.49444184D+06 0.49444184D+06 0.49444184D+06 0.10688537D+01  1  2  1  2  7  2        2 0.501488209233D-04 0.100000000000D+01
  </mgrwgt>
  </event>
  <event>
  8     66 0.53686478E-06 0.27750330E+03 0.75467711E-02 0.96075794E-01
       -2 -1    0    0    0  501 0.00000000E+00 0.00000000E+00 0.11865512E+03 0.11865556E+03 0.32000000E+00 0.0000E+00 0.9000E+01
        2 -1    0    0  501    0 0.00000000E+00 0.00000000E+00 -.12982864E+04 0.12982864E+04 0.32000000E+00 0.0000E+00 0.9000E+01
       25  2    1    2    0    0 0.15820677E+03 -.28216590E+03 -.63832082E+03 0.77587906E+03 0.29981306E+03 0.0000E+00 0.0000E+00
       23  2    1    2    0    0 -.15820677E+03 0.28216590E+03 -.54131042E+03 0.64106289E+03 0.11531561E+03 0.0000E+00 0.0000E+00
       23  1    3    3    0    0 0.20944771E+03 -.19108062E+03 -.38131135E+03 0.48383234E+03 0.91188000E+02 0.0000E+00 0.9000E+01
      -13  1    4    4    0    0 -.37367208E+02 0.88960417E+02 -.75570250E+02 0.12256075E+03 0.10565837E+00 0.0000E+00 0.9000E+01
       13  1    4    4    0    0 -.12083956E+03 0.19320548E+03 -.46574017E+03 0.51850214E+03 0.10565837E+00 0.0000E+00 0.9000E+01
       23  1    3    3    0    0 -.51240940E+02 -.91085284E+02 -.25700947E+03 0.29204671E+03 0.91188000E+02 0.0000E+00 0.9000E+01
#aMCatNLO 1  0  0  2  1 0.11148071D+03 0.00000000D+00  -5  7  0 0.00000000D+00 0.00000000D+00 0.00000000D+00 0.00000000D+00 0.00000000D+00
  <mgrwgt>
 0.1972634629D-03    9    2    0
 0.392490333945305D+03 0.000000000000000D+00 0.000000000000000D+00 0.392490333945305D+03
 0.392490333945305D+03 0.000000000000000D+00 0.000000000000000D+00 -.392490333945305D+03
 0.300333019811715D+03 0.209447734437278D+03 -.191080667478295D+03 0.387878395939272D+02
 0.107666755750183D+03 -.373671953116087D+02 0.889603509159980D+02 0.477690168751258D+02
 0.236038761454658D+03 -.120839612628304D+03 0.193205624480499D+03 -.615115566214248D+02
 0.140942130874056D+03 -.512409264973651D+02 -.910853079182013D+02 -.250452998476282D+02
 0.000000000000000D+00 -.000000000000000D+00 -.000000000000000D+00 -.000000000000000D+00
 0.405666441567254D+03 0.000000000000000D+00 0.000000000000000D+00 0.405666441567254D+03
 0.732761853407353D+03 0.000000000000000D+00 0.000000000000000D+00 -.732761853407353D+03
 0.290246100720777D+03 0.226010546335647D+03 -.152781818565932D+03 0.387878395939272D+02
 0.118236632249331D+03 -.310317269678130D+02 0.103610106427137D+03 0.477690168751258D+02
 0.256779643196648D+03 -.107018503394144D+03 0.225164725242399D+03 -.615115566214248D+02
 0.127594860113638D+03 -.437097972805499D+02 -.736707782004131D+02 -.250452998476282D+02
 0.345571058694213D+03 -.442505186931407D+02 -.102322234903190D+03 -.327095411840099D+03
0.377054256809D-05 0.000000000000D+00 0.000000000000D+00 0.348745262957D-08 0.000000000000D+00  7 -2 2 23 -13 13 23 21 0 0.18254671D-01 0.19973640D+00 0.14473815D+06 0.14473815D+06 0.14473815D+06 0.11087778D+01  1  2  2  2  7  2        2 0.186632869574D-03 0.100000000000D+01
-.209227119610D-06 0.000000000000D+00 -.144798762681D-07 0.348745262957D-08 0.000000000000D+00  7 -2 2 23 -13 13 23 21 2 0.18254671D-01 0.19973640D+00 0.14473815D+06 0.14473815D+06 0.14473815D+06 0.11087778D+01  1  2  3  2  7  2        2 -.127318438917D-04 0.100000000000D+01
0.245093202899D-06 0.000000000000D+00 0.000000000000D+00 0.348745262957D-08 0.000000000000D+00  7 -2 2 23 -13 13 23 21 2 0.18254671D-01 0.19973640D+00 0.14473815D+06 0.14473815D+06 0.14473815D+06 0.11087778D+01  1  2 15  2  7  2        2 0.149143591139D-04 0.100000000000D+01
0.109381895938D-04 0.000000000000D+00 0.000000000000D+00 0.348745262957D-08 0.000000000000D+00  7 -2 2 23 -13 13 23 21 2 0.18254671D-01 0.37353177D+00 0.19434727D+06 0.19434727D+06 0.19434727D+06 0.10987830D+01  1  2 12  2  7  2        2 0.155879666629D-03 0.100000000000D+01
-.100306858382D-04 0.000000000000D+00 0.000000000000D+00 0.348745262957D-08 0.000000000000D+00  7 -2 2 23 -13 13 23 21 2 0.18254671D-01 0.19973640D+00 0.14473815D+06 0.14473815D+06 0.14473815D+06 0.11087778D+01  1  2  4  2  7  2        2 -.610385147283D-03 0.100000000000D+01
-.116113465218D-04 0.000000000000D+00 -.110219314129D-05 0.348745262957D-08 0.000000000000D+00  7 -2 2 23 -13 13 23 21 2 0.18254671D-01 0.37590154D+00 0.14473815D+06 0.14473815D+06 0.14473815D+06 0.11087778D+01  1  2  5  2  7  2        2 -.167268338564D-03 0.100000000000D+01
0.103566553643D-04 0.000000000000D+00 0.913416768554D-06 0.348745262957D-08 0.000000000000D+00  7 -2 2 23 -13 13 23 21 2 0.18254671D-01 0.19973640D+00 0.14473815D+06 0.14473815D+06 0.14473815D+06 0.11087778D+01  1  2  6  2  7  2        2 0.630220975105D-03 0.100000000000D+01
0.745640878801D-06 0.000000000000D+00 0.000000000000D+00 0.348745262957D-08 0.000000000000D+00  7 -2 21 23 -13 13 23 -2 2 0.18254671D-01 0.37353177D+00 0.19434727D+06 0.19434727D+06 0.19434727D+06 0.10987830D+01  1  2 12  4  7  2        2 0.137244613402D-05 0.100000000000D+01
-.736545763845D-06 0.000000000000D+00 -.758241136281D-07 0.348745262957D-08 0.000000000000D+00  7 -2 21 23 -13 13 23 -2 2 0.18254671D-01 0.37590154D+00 0.14473815D+06 0.14473815D+06 0.14473815D+06 0.11087778D+01  1  2  5  4  7  2        2 -.137152395511D-05 0.100000000000D+01
  </mgrwgt>
  </event>
  <event>
  9     66 0.53686478E-06 0.26380419E+03 0.75467711E-02 0.96144423E-01
       -2 -1    0    0    0  501 0.00000000E+00 0.00000000E+00 0.49883137E+03 0.49883147E+03 0.32000000E+00 0.0000E+00 0.9000E+01
        2 -1    0    0  502    0 0.00000000E+00 0.00000000E+00 -.99954155E+03 0.99954160E+03 0.32000000E+00 0.0000E+00 0.9000E+01
       25  2    1    2    0    0 0.44652477E+02 -.27962707E+03 0.26509618E+03 0.49016996E+03 0.29967559E+03 0.0000E+00 0.0000E+00
       23  2    1    2    0    0 0.16102626E+03 0.83346606E+02 -.68206062E+03 0.71181878E+03 0.92753266E+02 0.0000E+00 0.0000E+00
       23  1    3    3    0    0 0.52612318E+02 -.29436659E+03 0.23998254E+03 0.39411498E+03 0.91188000E+02 0.0000E+00 0.9000E+01
      -11  1    4    4    0    0 0.15296374E+03 0.89072651E+02 -.67865624E+03 0.70136021E+03 0.51099893E-03 0.0000E+00 0.9000E+01
       11  1    4    4    0    0 0.80625245E+01 -.57260445E+01 -.34043735E+01 0.10458568E+02 0.51099893E-03 0.0000E+00 0.9000E+01
       23  1    3    3    0    0 -.79598402E+01 0.14739520E+02 0.25113649E+02 0.96054980E+02 0.91188000E+02 0.0000E+00 0.9000E+01
       21  1    1    2  502  501 -.20567874E+03 0.19628046E+03 -.83745750E+02 0.29638434E+03 0.75000000E+00 0.0000E+00 0.9000E+01
#aMCatNLO 2  0  0  2  1 0.28430576D+03 0.00000000D+00  -5  7  0 0.00000000D+00 0.00000000D+00 0.00000000D+00 0.00000000D+00 0.00000000D+00
  <mgrwgt>
 0.6011367813D-04    1    2    0
 0.545455728167513D+03 0.000000000000000D+00 0.000000000000000D+00 0.545455728167513D+03
 0.545455728167513D+03 0.000000000000000D+00 0.000000000000000D+00 -.545455728167513D+03
 0.463086432998870D+03 -.375173309868844D+02 -.208355321784478D+03 0.401639518527900D+03
 0.500566180552342D+03 0.604885480837275D+02 0.177322282642465D+03 -.464181478240945D+03
 0.767191290231340D+01 0.643399977836451D+01 -.417193352532544D+01 0.238464028637182D+00
 0.119586929881501D+03 -.294052168752076D+02 0.352049726673392D+02 0.623034956844073D+02
 0.000000000000000D+00 -.000000000000000D+00 0.000000000000000D+00 0.000000000000000D+00
 0.716356343207325D+03 0.000000000000000D+00 0.000000000000000D+00 0.716356343207325D+03
 0.696025240200448D+03 0.000000000000000D+00 0.000000000000000D+00 -.696025240200448D+03
 0.508968858852208D+03 0.526123175000852D+02 -.294366589716403D+03 0.401639518527900D+03
 0.496785956830307D+03 0.152963737832294D+03 0.890726505175883D+02 -.464181478240945D+03
 0.989185274210506D+01 0.806252444862728D+01 -.572604445440524D+01 0.238464028637182D+00
 0.111703130798716D+03 -.795984021567545D+01 0.147395201916121D+02 0.623034956844073D+02
 0.285031784184436D+03 -.205678739565331D+03 0.196280463461608D+03 0.203311030068772D+02
0.998074192034D-05 0.000000000000D+00 0.000000000000D+00 0.101317060637D-05 0.838453755082D-10  7 -2 2 23 -11 11 23 21 2 0.76743245D-01 0.15377553D+00 0.19208174D+06 0.19208174D+06 0.19208174D+06 0.10991753D+01  1  2  1  2  7  2        2 0.601136781257D-04 0.100000000000D+01
  </mgrwgt>
  </event>
  <event>
  8     66 0.53686478E-06 0.59637857E+03 0.75467711E-02 0.88940687E-01
       -2 -1    0    0    0  501 0.00000000E+00 0.00000000E+00 0.53690027E+03 0.53690037E+03 0.32000000E+00 0.0000E+00 0.9000E+01
        2 -1    0    0  501    0 0.00000000E+00 0.00000000E+00 -.19241177E+04 0.19241177E+04 0.32000000E+00 0.0000E+00 0.9000E+01
       25  2    1    2    0    0 -.75768499E+03 0.15910602E+03 0.43894822E+02 0.83145870E+03 0.29999258E+03 0.0000E+00 0.0000E+00
       23  2    1    2    0    0 0.75768499E+03 -.15910602E+03 -.14311122E+04 0.16295594E+04 0.89332443E+02 0.0000E+00 0.0000E+00
       23  1    3    3    0    0 -.11323785E+03 -.17822034E+02 -.39830441E+02 0.15179641E+03 0.91188000E+02 0.0000E+00 0.9000E+01
      -13  1    4    4    0    0 0.35676257E+03 -.33119150E+02 -.69549021E+03 0.78235737E+03 0.10565837E+00 0.0000E+00 0.9000E+01
       13  1    4    4    0    0 0.40092242E+03 -.12598687E+03 -.73562203E+03 0.84720202E+03 0.10565837E+00 0.0000E+00 0.9000E+01
       23  1    3    3    0    0 -.64444714E+03 0.17692806E+03 0.83725263E+02 0.67966229E+03 0.91188000E+02 0.0000E+00 0.9000E+01
#aMCatNLO 1  0  0  1  2 0.10366912D+03 0.00000000D+00  -5  7  0 0.00000000D+00 0.00000000D+00 0.00000000D+00 0.00000000D+00 0.00000000D+00
  <mgrwgt>
 0.1518336443D-03    9    2    0
 0.101639532810443D+04 0.000000000000000D+00 0.000000000000000D+00 0.101639532810443D+04
 0.101639532810443D+04 0.000000000000000D+00 0.000000000000000D+00 -.101639532810443D+04
 0.156592724550069D+03 -.113237845492148D+03 -.178220341696308D+02 0.553678199351090D+02
 0.472552032382714D+03 0.356762509124236D+03 -.331190205607300D+02 -.308105608305839D+03
 0.523670224814921D+03 0.400922479166894D+03 -.125987004045305D+03 -.312440306087531D+03
 0.879975674461157D+03 -.644447142798981D+03 0.176928058775666D+03 0.565178094458261D+03
 0.000000000000000D+00 -.000000000000000D+00 0.000000000000000D+00 0.000000000000000D+00
 0.115748034575533D+04 0.000000000000000D+00 0.000000000000000D+00 0.115748034575533D+04
 0.103694018083584D+04 0.000000000000000D+00 0.000000000000000D+00 -.103694018083584D+04
 0.151212217126233D+03 -.105475823856863D+03 -.189509461922239D+02 0.553678199351090D+02
 0.491414137405583D+03 0.381071171047697D+03 -.366544836124942D+02 -.308105608305839D+03
 0.545509054734137D+03 0.427884335772127D+03 -.129908348960747D+03 -.312440306087531D+03
 0.847297011249358D+03 -.600889921516218D+03 0.170593076333292D+03 0.565178094458261D+03
 0.158988106075853D+03 -.102589761446744D+03 0.149207024321734D+02 0.120540164919489D+03
0.911740793704D-04 0.000000000000D+00 0.000000000000D+00 0.130090875503D-05 0.000000000000D+00  7 -2 2 23 -13 13 23 21 0 0.82600052D-01 0.29601812D+00 0.63960926D+06 0.63960926D+06 0.63960926D+06 0.10610332D+01  1  2  2  1  7  1       -2 0.108993994543D-03 0.100000000000D+01
-.471134555795D-05 0.000000000000D+00 -.350132471469D-06 0.130090875503D-05 0.000000000000D+00  7 -2 2 23 -13 13 23 21 2 0.82600052D-01 0.29601812D+00 0.63960926D+06 0.63960926D+06 0.63960926D+06 0.10610332D+01  1  2  3  1  7  1       -2 -.634065460519D-05 0.100000000000D+01
0.568227440024D-05 0.000000000000D+00 0.000000000000D+00 0.130090875503D-05 0.000000000000D+00  7 -2 2 23 -13 13 23 21 2 0.82600052D-01 0.29601812D+00 0.63960926D+06 0.63960926D+06 0.63960926D+06 0.10610332D+01  1  2 15  1  7  1       -2 0.764735655678D-05 0.100000000000D+01
0.326801399216D-03 0.000000000000D+00 0.000000000000D+00 0.130090875503D-05 0.000000000000D+00  7 -2 2 23 -13 13 23 21 2 0.94824917D-01 0.29601812D+00 0.72729987D+06 0.72729987D+06 0.72729987D+06 0.10571952D+01  1  2 12  1  7  1       -2 0.313661548310D-03 0.100000000000D+01
-.332509475564D-03 0.000000000000D+00 0.000000000000D+00 0.130090875503D-05 0.000000000000D+00  7 -2 2 23 -13 13 23 21 2 0.82600052D-01 0.29601812D+00 0.63960926D+06 0.63960926D+06 0.63960926D+06 0.10610332D+01  1  2  4  1  7  1       -2 -.447500127420D-03 0.100000000000D+01
-.531900897980D-03 0.000000000000D+00 -.821730328437D-04 0.130090875503D-05 0.000000000000D+00  7 -2 2 23 -13 13 23 21 2 0.95224684D-01 0.29601812D+00 0.63960926D+06 0.63960926D+06 0.63960926D+06 0.10610332D+01  1  2  5  1  7  1       -2 -.513235383012D-03 0.100000000000D+01
0.538952029009D-03 0.000000000000D+00 0.813488397017D-04 0.130090875503D-05 0.000000000000D+00  7 -2 2 23 -13 13 23 21 2 0.82600052D-01 0.29601812D+00 0.63960926D+06 0.63960926D+06 0.63960926D+06 0.10610332D+01  1  2  6  1  7  1       -2 0.725336026126D-03 0.100000000000D+01
0.696548293658D-05 0.000000000000D+00 0.000000000000D+00 0.130090875503D-05 0.000000000000D+00  7 21 2 23 -13 13 23 2 2 0.94824917D-01 0.29601812D+00 0.72729987D+06 0.72729987D+06 0.72729987D+06 0.10571952D+01  1  2 12  3  7  1       -2 0.605069556429D-04 0.100000000000D+01
-.111011808675D-04 0.000000000000D+00 -.179506899641D-05 0.130090875503D-05 0.000000000000D+00  7 21 2 23 -13 13 23 2 2 0.95224684D-01 0.29601812D+00 0.63960926D+06 0.63960926D+06 0.63960926D+06 0.10610332D+01  1  2  5  3  7  1       -2 -.972360718464D-04 0.100000000000D+01
  </mgrwgt>
  </event>
  <event>
  8     66 0.53686478E-06 0.31323603E+03 0.75467711E-02 0.94931617E-01
       -2 -1    0    0    0  501 0.00000000E+00 0.00000000E+00 0.26066453E+03 0.26066472E+03 0.32000000E+00 0.0000E+00 0.9000E+01
        2 -1    0    0  501    0 0.00000000E+00 0.00000000E+00 -.70973918E+03 0.70973925E+03 0.32000000E+00 0.0000E+00 0.9000E+01
       25  2    1    2    0    0 0.19493022E+03 0.12928153E+03 -.57550684E+03 0.68923014E+03 0.29852731E+03 0.0000E+00 0.0000E+00
       23  2    1    2    0    0 -.19493022E+03 -.12928153E+03 0.12643219E+03 0.28117383E+03 0.91444625E+02 0.0000E+00 0.0000E+00
       23  1    3    3    0    0 0.15166823E+03 -.40087182E+02 -.25595192E+03 0.31374651E+03 0.91188000E+02 0.0000E+00 0.9000E+01
      -13  1    4    4    0    0 -.17846193E+03 -.14116879E+03 0.10188878E+03 0.24931631E+03 0.10565837E+00 0.0000E+00 0.9000E+01
       13  1    4    4    0    0 -.16468292E+02 0.11887260E+02 0.24543408E+02 0.31857520E+02 0.10565837E+00 0.0000E+00 0.9000E+01
       23  1    3    3    0    0 0.43261997E+02 0.16936872E+03 -.31955492E+03 0.37548364E+03 0.91188000E+02 0.0000E+00 0.9000E+01
#aMCatNLO 1  0  0  1  2 0.28089554D+03 0.00000000D+00  -5  7  0 0.00000000D+00 0.00000000D+00 0.00000000D+00 0.00000000D+00 0.00000000D+00
  <mgrwgt>
 0.4756231166D-03    3    2    0
 0.430120865222312D+03 0.000000000000000D+00 0.000000000000000D+00 0.430120865222312D+03
 0.430120865222312D+03 0.000000000000000D+00 0.000000000000000D+00 -.430120865222312D+03
 0.220309396828942D+03 0.151668225627631D+03 -.400871818173062D+02 -.124942971695267D+03
 0.334433368644237D+03 -.178462147195158D+03 -.141168997663501D+03 0.245088257939682D+03
 0.487492727575211D+02 -.164680757959282D+02 0.118874638461677D+02 0.443168396579992D+02
 0.256749692213924D+03 0.432619973634551D+02 0.169368715634640D+03 -.164462125902414D+03
 0.000000000000000D+00 0.000000000000000D+00 -.000000000000000D+00 -.000000000000000D+00
 0.515710643425298D+03 0.000000000000000D+00 0.000000000000000D+00 0.515710643425298D+03
 0.764385806062596D+03 0.000000000000000D+00 0.000000000000000D+00 -.764385806062596D+03
 0.183063735717442D+03 0.977702245957428D+02 -.522656649045083D+01 -.124942971695267D+03
 0.375707224733382D+03 -.273349871107339D+03 -.797966948097032D+02 0.245088257939682D+03
 0.579056297743334D+02 -.307191143081593D+02 0.211048738070522D+02 0.443168396579992D+02
 0.288264369186159D+03 -.295618128350524D+02 0.216470329523142D+03 -.164462125902414D+03
 0.375155490076579D+03 0.235860573654807D+03 -.152551942030040D+03 -.248675162637297D+03
0.158601654142D-04 0.000000000000D+00 0.000000000000D+00 0.198994470987D-06 0.000000000000D+00  7 -2 2 23 -13 13 23 21 0 0.40102256D-01 0.10919066D+00 0.98116808D+05 0.98116808D+05 0.98116808D+05 0.11224002D+01  1  2  2  1  7  1       -2 0.468179354735D-03 0.100000000000D+01
-.773390818789D-06 0.000000000000D+00 -.609072112680D-07 0.198994470987D-06 0.000000000000D+00  7 -2 2 23 -13 13 23 21 2 0.40102256D-01 0.10919066D+00 0.98116808D+05 0.98116808D+05 0.98116808D+05 0.11224002D+01  1  2  3  1  7  1       -2 -.287606731525D-04 0.100000000000D+01
0.973557797786D-06 0.000000000000D+00 0.000000000000D+00 0.198994470987D-06 0.000000000000D+00  7 -2 2 23 -13 13 23 21 2 0.40102256D-01 0.10919066D+00 0.98116808D+05 0.98116808D+05 0.98116808D+05 0.11224002D+01  1  2 15  1  7  1       -2 0.362044349854D-04 0.100000000000D+01
  </mgrwgt>
  </event>
  <event>
  8     66 0.53686478E-06 0.51884027E+03 0.75467711E-02 0.87531640E-01
       -2 -1    0    0    0  501 0.00000000E+00 0.00000000E+00 0.11986951E+04 0.11986951E+04 0.32000000E+00 0.0000E+00 0.9000E+01
        2 -1    0    0  501    0 0.00000000E+00 0.00000000E+00 -.23578808E+03 0.23578830E+03 0.32000000E+00 0.0000E+00 0.9000E+01
       25  2    1    2    0    0 0.44995406E+03 -.17195185E+03 0.44004116E+03 0.71789168E+03 0.29950985E+03 0.0000E+00 0.0000E+00
       23  2    1    2    0    0 -.44995406E+03 0.17195185E+03 0.52286581E+03 0.71659171E+03 0.89938532E+02 0.0000E+00 0.0000E+00
       23  1    3    3    0    0 0.40319265E+03 -.94320772E+02 0.40085278E+03 0.58348858E+03 0.91188000E+02 0.0000E+00 0.9000E+01
      -11  1    4    4    0    0 -.54473660E+02 0.42162512E+02 0.42324712E+02 0.80848242E+02 0.51099893E-03 0.0000E+00 0.9000E+01
       11  1    4    4    0    0 -.39548040E+03 0.12978934E+03 0.48054110E+03 0.63574347E+03 0.51099893E-03 0.0000E+00 0.9000E+01
       23  1    3    3    0    0 0.46761407E+02 -.77631077E+02 0.39188385E+02 0.13440310E+03 0.91188000E+02 0.0000E+00 0.9000E+01
#aMCatNLO 1  0  0  1  2 0.71317813D+03 0.00000000D+00  -5  7  0 0.00000000D+00 0.00000000D+00 0.00000000D+00 0.00000000D+00 0.00000000D+00
  <mgrwgt>
 0.4659040528D-03    3    2    0
 0.531637276870134D+03 0.000000000000000D+00 0.000000000000000D+00 0.531637276870134D+03
 0.531637276870134D+03 0.000000000000000D+00 0.000000000000000D+00 -.531637276870134D+03
 0.424180886533648D+03 0.403192648983915D+03 -.943207720052605D+02 0.123876119626485D+02
 0.707443821026638D+02 -.544736600941356D+02 0.421625121382747D+02 -.161155367650641D+02
 0.422512774236939D+03 -.395480395834964D+03 0.129789337291023D+03 0.725742986819126D+02
 0.145836510867017D+03 0.467614069451856D+02 -.776310774240373D+02 -.688463738794970D+02
 0.000000000000000D+00 -.000000000000000D+00 -.000000000000000D+00 -.000000000000000D+00
 0.716779495848391D+03 0.000000000000000D+00 0.000000000000000D+00 0.716779495848391D+03
 0.229954209402730D+04 0.000000000000000D+00 0.000000000000000D+00 -.229954209402730D+04
 0.764498325621253D+03 0.758481266267359D+03 -.263657794314290D+02 0.123876119626485D+02
 0.546099774028402D+02 -.170060434287248D+02 0.493288312613720D+02 -.161155367650641D+02
 0.264566803633539D+03 -.190116702511215D+03 0.169068637487732D+03 0.725742986819126D+02
 0.196627911082932D+03 0.149121833289981D+03 -.580529044296418D+02 -.688463738794970D+02
 0.173601857213512D+04 -.700480353617400D+03 -.133978784888033D+03 -.158276259817890D+04
0.163410107803D-03 0.000000000000D+00 0.000000000000D+00 0.442839518280D-06 0.000000000000D+00  7 -2 2 23 -11 11 23 21 0 0.18441464D+00 0.36275110D-01 0.26919523D+06 0.26919523D+06 0.26919523D+06 0.10880504D+01  1  2  2  1  7  1       -2 0.462581187274D-03 0.100000000000D+01
-.907178641576D-05 0.000000000000D+00 -.627537840834D-06 0.442839518280D-06 0.000000000000D+00  7 -2 2 23 -11 11 23 21 2 0.18441464D+00 0.36275110D-01 0.26919523D+06 0.26919523D+06 0.26919523D+06 0.10880504D+01  1  2  3  1  7  1       -2 -.304018405248D-04 0.100000000000D+01
0.100633160597D-04 0.000000000000D+00 0.000000000000D+00 0.442839518280D-06 0.000000000000D+00  7 -2 2 23 -11 11 23 21 2 0.18441464D+00 0.36275110D-01 0.26919523D+06 0.26919523D+06 0.26919523D+06 0.10880504D+01  1  2 15  1  7  1       -2 0.337247060255D-04 0.100000000000D+01
  </mgrwgt>
  </event>
  <event>
  8     66 0.53686478E-06 0.17005472E+03 0.75467711E-02 0.88629262E-01
       -2 -1    0    0    0  501 0.00000000E+00 0.00000000E+00 0.39434627E+03 0.39434640E+03 0.32000000E+00 0.0000E+00 0.9000E+01
        2 -1    0    0  501    0 0.00000000E+00 0.00000000E+00 -.42567448E+03 0.42567460E+03 0.32000000E+00 0.0000E+00 0.9000E+01
       25  2    1    2    0    0 0.42749438E+02 0.26163998E+02 -.36199933E+03 0.47350842E+03 0.30108909E+03 0.0000E+00 0.0000E+00
       23  2    1    2    0    0 -.42749438E+02 -.26163998E+02 0.33067111E+03 0.34651258E+03 0.90639454E+02 0.0000E+00 0.0000E+00
       23  1    3    3    0    0 -.97702069E+01 0.86116271E+02 -.44082450E+02 0.13330410E+03 0.91188000E+02 0.0000E+00 0.9000E+01
      -13  1    4    4    0    0 -.64040498E+02 -.67756363E+01 0.28746252E+03 0.29458752E+03 0.10565837E+00 0.0000E+00 0.9000E+01
       13  1    4    4    0    0 0.21291061E+02 -.19388362E+02 0.43208595E+02 0.51925058E+02 0.10565837E+00 0.0000E+00 0.9000E+01
       23  1    3    3    0    0 0.52519645E+02 -.59952272E+02 -.31791688E+03 0.34020433E+03 0.91188000E+02 0.0000E+00 0.9000E+01
#aMCatNLO 1  0  0  1  2 0.83653922D+03 0.00000000D+00  -5  7  0 0.00000000D+00 0.00000000D+00 0.00000000D+00 0.00000000D+00 0.00000000D+00
  <mgrwgt>
 0.5687728619D-03    3    2    0
 0.409711174245636D+03 0.000000000000000D+00 0.000000000000000D+00 0.409711174245636D+03
 0.409711174245636D+03 0.000000000000000D+00 0.000000000000000D+00 -.409711174245636D+03
 0.131716124486821D+03 -.977020670580837D+01 0.861162704295254D+02 -.390181641554596D+02
 0.305793369738203D+03 -.640406143047148D+02 -.677561920678886D+01 0.298935571118066D+03
 0.536146053965445D+02 0.212911765747092D+02 -.193883793041344D+02 0.452250202857970D+02
 0.328298248869704D+03 0.525196444358140D+02 -.599522719186022D+02 -.305142427248404D+03
 0.000000000000000D+00 0.000000000000000D+00 0.000000000000000D+00 -.000000000000000D+00
 0.637144430491068D+03 0.000000000000000D+00 0.000000000000000D+00 0.637144430491068D+03
 0.397321680475345D+04 0.000000000000000D+00 0.000000000000000D+00 -.397321680475345D+04
 0.172064344207716D+03 -.131864532081981D+03 0.487874497014246D+02 -.390181641554596D+02
 0.501541196392741D+03 -.388521544985416D+03 -.105981626150589D+03 0.298935571118066D+03
 0.616195347369072D+02 -.250233039459082D+02 -.335484554185861D+02 0.452250202857970D+02
 0.435779133160736D+03 -.254575518380612D+03 -.153842796674132D+03 -.305142427248404D+03
 0.343935702674642D+04 0.799984899393916D+03 0.244585428541882D+03 -.333607237426239D+04
0.221049647109D-04 0.000000000000D+00 0.000000000000D+00 0.324601077769D-06 0.000000000000D+00  7 -2 2 23 -13 13 23 21 0 0.60668676D-01 0.65488401D-01 0.28918608D+05 0.28918608D+05 0.28918608D+05 0.11688181D+01  1  2  2  1  7  1       -2 0.529652137644D-03 0.100000000000D+01
-.735248309648D-07 0.000000000000D+00 -.848888848609D-07 0.324601077769D-06 0.000000000000D+00  7 -2 2 23 -13 13 23 21 2 0.60668676D-01 0.65488401D-01 0.28918608D+05 0.28918608D+05 0.28918608D+05 0.11688181D+01  1  2  3  1  7  1       -2 -.240673793044D-05 0.100000000000D+01
0.126864649342D-05 0.000000000000D+00 0.000000000000D+00 0.324601077769D-06 0.000000000000D+00  7 -2 2 23 -13 13 23 21 2 0.60668676D-01 0.65488401D-01 0.28918608D+05 0.28918608D+05 0.28918608D+05 0.11688181D+01  1  2 15  1  7  1       -2 0.415274621646D-04 0.100000000000D+01
  </mgrwgt>
  </event>
  <event>
  9     66 0.53686478E-06 0.20193240E+03 0.75467711E-02 0.10461816E+00
       21 -1    0    0  502  501 0.00000000E+00 0.00000000E+00 0.11433318E+03 0.11433564E+03 0.75000000E+00 0.0000E+00 0.9000E+01
        2 -1    0    0  501    0 0.00000000E+00 0.00000000E+00 -.53259450E+03 0.53259460E+03 0.32000000E+00 0.0000E+00 0.9000E+01
       25  2    1    2    0    0 -.26898963E+02 -.88169516E+02 -.31788674E+03 0.44666557E+03 0.29993456E+03 0.0000E+00 0.0000E+00
       23  2    1    2    0    0 -.64388012E+01 0.55921923E+02 -.15889525E+02 0.10388447E+03 0.85853279E+02 0.0000E+00 0.0000E+00
       23  1    3    3    0    0 -.22854881E+02 0.77470485E+02 -.95880451E+02 0.15502366E+03 0.91188000E+02 0.0000E+00 0.9000E+01
      -13  1    4    4    0    0 -.13984653E+02 -.16268449E+02 -.22391530E+02 0.31010074E+02 0.10565837E+00 0.0000E+00 0.9000E+01
       13  1    4    4    0    0 0.75458513E+01 0.72190372E+02 0.65020043E+01 0.72874391E+02 0.10565837E+00 0.0000E+00 0.9000E+01
       23  1    3    3    0    0 -.40440827E+01 -.16564000E+03 -.22200629E+03 0.29164192E+03 0.91188000E+02 0.0000E+00 0.9000E+01
        2  1    1    2  502    0 0.33337764E+02 0.32247593E+02 -.84485059E+02 0.96380192E+02 0.32000000E+00 0.0000E+00 0.9000E+01
#aMCatNLO 2  0  0  1  2 0.46382257D+02 0.00000000D+00  -5  7  0 0.00000000D+00 0.00000000D+00 0.00000000D+00 0.00000000D+00 0.00000000D+00
  <mgrwgt>
 0.8844614693D-04    1    2    0
 0.217685229535249D+03 0.000000000000000D+00 0.000000000000000D+00 0.217685229535249D+03
 0.217685229535249D+03 0.000000000000000D+00 0.000000000000000D+00 -.217685229535249D+03
 0.126517456925369D+03 -.133729345225336D+02 0.866423510677316D+02 -.238394349233186D+01
 0.197715376005890D+02 -.123928293651252D+02 -.147287782878685D+02 -.451603471700647D+01
 0.103063495285392D+03 0.151684562660688D+02 0.795638234848430D+02 0.637306832492721D+02
 0.186017969259148D+03 0.105973076215901D+02 -.151477396264706D+03 -.568307050399338D+02
 0.000000000000000D+00 0.000000000000000D+00 0.000000000000000D+00 -.000000000000000D+00
 0.230929385204719D+03 0.000000000000000D+00 0.000000000000000D+00 0.230929385204719D+03
 0.263690202125921D+03 0.000000000000000D+00 0.000000000000000D+00 -.263690202125921D+03
 0.121839871457290D+03 -.228548794774828D+02 0.774704732799791D+02 -.238394349233186D+01
 0.219233326564629D+02 -.139846827936336D+02 -.162685768388686D+02 -.451603471700647D+01
 0.965919796477710D+02 0.754588182625342D+01 0.721905133124884D+02 0.637306832492721D+02
 0.197478974823378D+03 -.404408402914911D+01 -.165640002723743D+03 -.568307050399338D+02
 0.567854287457381D+02 0.333377644740121D+02 0.322475929701446D+02 -.327608169212014D+02
0.295424672815D-07 0.000000000000D+00 0.000000000000D+00 0.749206547971D-08 0.275430880315D-12  7 21 2 23 -13 13 23 2 2 0.17589883D-01 0.81937657D-01 0.50931609D+05 0.50931609D+05 0.50931609D+05 0.11465908D+01  1  2  1  3  7  1       -2 0.884461469272D-04 0.100000000000D+01
  </mgrwgt>
  </event>
  <event>
  8     66 0.53686478E-06 0.19451566E+03 0.75467711E-02 0.94050703E-01
       -2 -1    0    0    0  501 0.00000000E+00 0.00000000E+00 0.76086350E+02 0.76087023E+02 0.32000000E+00 0.0000E+00 0.9000E+01
        2 -1    0    0  501    0 0.00000000E+00 0.00000000E+00 -.77169761E+03 0.77169768E+03 0.32000000E+00 0.0000E+00 0.9000E+01
       25  2    1    2    0    0 -.60326555E+01 -.26373392E+02 -.68980181E+03 0.75268100E+03 0.29995032E+03 0.0000E+00 0.0000E+00
       23  2    1    2    0    0 0.60326555E+01 0.26373392E+02 -.58094490E+01 0.95103706E+02 0.90989101E+02 0.0000E+00 0.0000E+00
       23  1    3    3    0    0 -.70905899E+02 -.11101628E+03 -.39215242E+03 0.42361661E+03 0.91188000E+02 0.0000E+00 0.9000E+01
      -13  1    4    4    0    0 -.19172315E+02 -.24868060E+02 0.14377169E+02 0.34535665E+02 0.10565837E+00 0.0000E+00 0.9000E+01
       13  1    4    4    0    0 0.25204970E+02 0.51241451E+02 -.20186618E+02 0.60568041E+02 0.10565837E+00 0.0000E+00 0.9000E+01
       23  1    3    3    0    0 0.64873243E+02 0.84642892E+02 -.29764940E+03 0.32906439E+03 0.91188000E+02 0.0000E+00 0.9000E+01
#aMCatNLO 1  0  0  1  2 0.45355462D+03 0.00000000D+00  -5  7  0 0.00000000D+00 0.00000000D+00 0.00000000D+00 0.00000000D+00 0.00000000D+00
  <mgrwgt>
 0.2037821408D-03    5    2    0
 0.242313780566796D+03 0.000000000000000D+00 0.000000000000000D+00 0.242313780566796D+03
 0.242313780566796D+03 0.000000000000000D+00 0.000000000000000D+00 -.242313780566796D+03
 0.178178150235973D+03 -.709058975609426D+02 -.111016282087257D+03 -.779739743767923D+02
 0.810513790568421D+02 -.191723738245303D+02 -.248681609450307D+02 0.747216213699918D+02
 0.769799746228751D+02 0.252050294486142D+02 0.512415532897778D+02 0.516229232016538D+02
 0.148418057217901D+03 0.648732419368587D+02 0.846428897425102D+02 -.483705701948533D+02
 0.000000000000000D+00 -.000000000000000D+00 0.000000000000000D+00 0.000000000000000D+00
 0.851897507757957D+03 0.000000000000000D+00 0.000000000000000D+00 0.851897507757957D+03
 0.430775819431487D+03 0.000000000000000D+00 0.000000000000000D+00 -.430775819431487D+03
 0.215360274815556D+03 0.759519306890425D+02 -.161914051796396D+03 -.779739743767923D+02
 0.101677773406074D+03 0.490171720505657D+02 -.485011932721429D+02 0.747216213699918D+02
 0.112017990773616D+03 0.957339256756096D+02 0.267977523649079D+02 0.516229232016538D+02
 0.234702700202074D+03 0.207843480192042D+03 0.350924752451217D+02 -.483705701948533D+02
 0.618914587992124D+03 -.428546508607260D+03 0.148525017458510D+03 0.421121688326471D+03
0.867098734584D-06 0.000000000000D+00 0.000000000000D+00 0.232819615904D-06 0.000000000000D+00  7 -2 2 23 -13 13 23 21 0 0.11705649D-01 0.11872277D+00 0.37836341D+05 0.37836341D+05 0.37836341D+05 0.11580986D+01  1  2  2  1  7  1       -2 0.182343296653D-03 0.100000000000D+01
-.453445384045D-07 0.000000000000D+00 -.332988745314D-08 0.232819615904D-06 0.000000000000D+00  7 -2 2 23 -13 13 23 21 2 0.11705649D-01 0.11872277D+00 0.37836341D+05 0.37836341D+05 0.37836341D+05 0.11580986D+01  1  2  3  1  7  1       -2 -.127890205937D-04 0.100000000000D+01
0.520675622556D-07 0.000000000000D+00 0.000000000000D+00 0.232819615904D-06 0.000000000000D+00  7 -2 2 23 -13 13 23 21 2 0.11705649D-01 0.11872277D+00 0.37836341D+05 0.37836341D+05 0.37836341D+05 0.11580986D+01  1  2 15  1  7  1       -2 0.146851892065D-04 0.100000000000D+01
0.583745442309D-06 0.000000000000D+00 -.411258471454D-06 0.232819615904D-06 0.000000000000D+00  7 -2 2 23 -13 13 23 21 2 0.70791780D-01 0.11872277D+00 0.37836341D+05 0.37836341D+05 0.37836341D+05 0.11580986D+01  1  2  5  1  7  1       -2 0.691735414969D-05 0.100000000000D+01
0.101829785347D-06 0.000000000000D+00 -.907107287340D-07 0.232819615904D-06 0.000000000000D+00  7 21 2 23 -13 13 23 2 2 0.70791780D-01 0.11872277D+00 0.37836341D+05 0.37836341D+05 0.37836341D+05 0.11580986D+01  1  2  5  3  7  1       -2 0.126253213576D-04 0.100000000000D+01
  </mgrwgt>
  </event>
  <event>
  8     66 0.53686478E-06 0.23362338E+03 0.75467711E-02 0.96194958E-01
       -2 -1    0    0    0  501 0.00000000E+00 0.00000000E+00 0.31710025E+03 0.31710042E+03 0.32000000E+00 0.0000E+00 0.9000E+01
        2 -1    0    0  501    0 0.00000000E+00 0.00000000E+00 -.54236745E+03 0.54236754E+03 0.32000000E+00 0.0000E+00 0.9000E+01
       25  2    1    2    0    0 -.14018837E+03 0.17870027E+03 0.15549017E+03 0.40800927E+03 0.30117737E+03 0.0000E+00 0.0000E+00
       23  2    1    2    0    0 0.14018837E+03 -.17870027E+03 -.38075737E+03 0.45145869E+03 0.85159923E+02 0.0000E+00 0.0000E+00
       23  1    3    3    0    0 -.18605070E+03 0.15950474E+03 0.15535230E+03 0.30414834E+03 0.91188000E+02 0.0000E+00 0.9000E+01
      -11  1    4    4    0    0 0.18536995E+02 0.41652681E+01 -.12708661E+02 0.22857815E+02 0.51099893E-03 0.0000E+00 0.9000E+01
       11  1    4    4    0    0 0.12165138E+03 -.18286554E+03 -.36804870E+03 0.42860088E+03 0.51099893E-03 0.0000E+00 0.9000E+01
       23  1    3    3    0    0 0.45862329E+02 0.19195523E+02 0.13787116E+00 0.10386092E+03 0.91188000E+02 0.0000E+00 0.9000E+01
#aMCatNLO 1  0  0  2  1 0.24957407D+03 0.00000000D+00  -5  7  0 0.00000000D+00 0.00000000D+00 0.00000000D+00 0.00000000D+00 0.00000000D+00
  <mgrwgt>
 0.6793256307D-03    8    2    0
 0.414710701795473D+03 0.000000000000000D+00 0.000000000000000D+00 0.414710701795473D+03
 0.414710701795473D+03 0.000000000000000D+00 0.000000000000000D+00 -.414710701795473D+03
 0.357359398436150D+03 -.186050703218816D+03 0.159504744327993D+03 0.243585427879610D+03
 0.202342440735169D+02 0.185369948767275D+02 0.416526812496271D+01 -.696096226207274D+01
 0.344166933269526D+03 0.121651379307230D+03 -.182865535287096D+03 -.264975500514599D+03
 0.107660827811754D+03 0.458623290348592D+02 0.191955228341402D+02 0.283510348970625D+02
 0.000000000000000D+00 0.000000000000000D+00 -.000000000000000D+00 -.000000000000000D+00
 0.484551332517855D+03 0.000000000000000D+00 0.000000000000000D+00 0.484551332517855D+03
 0.735601506096188D+03 0.000000000000000D+00 0.000000000000000D+00 -.735601506096188D+03
 0.434729939083602D+03 -.218121022543725D+03 0.271595705858580D+03 0.243585427879610D+03
 0.208011026409572D+02 0.168755450750393D+02 0.997230434182341D+01 -.696096226207274D+01
 0.296439199643167D+03 0.957143514104336D+02 -.922114209097718D+02 -.264975500514599D+03
 0.114186258771995D+03 0.368801264334210D+02 0.505897760705204D+02 0.283510348970625D+02
 0.353996338474322D+03 0.686509996248305D+02 -.239946365361152D+03 -.251050173578332D+03
0.153848042581D-04 0.000000000000D+00 0.000000000000D+00 0.129790030011D-07 0.000000000000D+00  7 -2 2 23 -11 11 23 21 0 0.48784674D-01 0.83441166D-01 0.91196050D+05 0.91196050D+05 0.91196050D+05 0.11250213D+01  1  2  2  2  7  2        2 0.428156697696D-03 0.100000000000D+01
-.750152415507D-06 0.000000000000D+00 -.590816992632D-07 0.129790030011D-07 0.000000000000D+00  7 -2 2 23 -11 11 23 21 2 0.48784674D-01 0.83441166D-01 0.91196050D+05 0.91196050D+05 0.91196050D+05 0.11250213D+01  1  2  3  2  7  2        2 -.264229804508D-04 0.100000000000D+01
0.908449883799D-06 0.000000000000D+00 0.000000000000D+00 0.129790030011D-07 0.000000000000D+00  7 -2 2 23 -11 11 23 21 2 0.48784674D-01 0.83441166D-01 0.91196050D+05 0.91196050D+05 0.91196050D+05 0.11250213D+01  1  2 15  2  7  2        2 0.319987685488D-04 0.100000000000D+01
0.660542006942D-06 0.000000000000D+00 0.000000000000D+00 0.129790030011D-07 0.000000000000D+00  7 -2 2 23 -11 11 23 21 2 0.48784674D-01 0.15038467D+00 0.19043246D+06 0.19043246D+06 0.19043246D+06 0.10994642D+01  1  2 12  2  7  2        2 0.105483747841D-04 0.100000000000D+01
-.858474547365D-05 0.000000000000D+00 -.506029499288D-05 0.129790030011D-07 0.000000000000D+00  7 -2 2 23 -11 11 23 21 2 0.48784674D-01 0.16244677D+00 0.91196050D+05 0.91196050D+05 0.91196050D+05 0.11250213D+01  1  2  5  2  7  2        2 -.131544627740D-03 0.100000000000D+01
0.104881508201D-04 0.000000000000D+00 0.411323429839D-05 0.129790030011D-07 0.000000000000D+00  7 -2 2 23 -11 11 23 21 2 0.48784674D-01 0.83441166D-01 0.91196050D+05 0.91196050D+05 0.91196050D+05 0.11250213D+01  1  2  6  2  7  2        2 0.369429196461D-03 0.100000000000D+01
0.426619503495D-07 0.000000000000D+00 0.000000000000D+00 0.129790030011D-07 0.000000000000D+00  7 -2 21 23 -11 11 23 -2 2 0.48784674D-01 0.15038467D+00 0.19043246D+06 0.19043246D+06 0.19043246D+06 0.10994642D+01  1  2 12  4  7  2        2 0.501800314976D-06 0.100000000000D+01
-.323419421615D-06 0.000000000000D+00 -.365389388558D-06 0.129790030011D-07 0.000000000000D+00  7 -2 21 23 -11 11 23 -2 2 0.48784674D-01 0.16244677D+00 0.91196050D+05 0.91196050D+05 0.91196050D+05 0.11250213D+01  1  2  5  4  7  2        2 -.334159896277D-05 0.100000000000D+01
  </mgrwgt>
  </event>
  <event>
  8     66 0.53686478E-06 0.26323818E+03 0.75467711E-02 0.98322866E-01
       -2 -1    0    0    0  501 0.00000000E+00 0.00000000E+00 0.61948093E+02 0.61948919E+02 0.32000000E+00 0.0000E+00 0.9000E+01
        2 -1    0    0  501    0 0.00000000E+00 0.00000000E+00 -.18847327E+04 0.18847328E+04 0.32000000E+00 0.0000E+00 0.9000E+01
       25  2    1    2    0    0 -.17480619E+03 0.90371224E+02 -.15846893E+04 0.16248290E+04 0.30017476E+03 0.0000E+00 0.0000E+00
       23  2    1    2    0    0 0.17480619E+03 -.90371224E+02 -.23809530E+03 0.32185266E+03 0.90419013E+02 0.0000E+00 0.0000E+00
       23  1    3    3    0    0 0.20610836E+02 0.24121921E+02 -.20236573E+03 0.22421823E+03 0.91188000E+02 0.0000E+00 0.9000E+01
      -11  1    4    4    0    0 0.44208082E+02 -.51922992E+02 -.13442785E+03 0.15073552E+03 0.51099893E-03 0.0000E+00 0.9000E+01
       11  1    4    4    0    0 0.13059811E+03 -.38448232E+02 -.10366745E+03 0.17111713E+03 0.51099893E-03 0.0000E+00 0.9000E+01
       23  1    3    3    0    0 -.19541703E+03 0.66249303E+02 -.13823236E+04 0.14006108E+04 0.91188000E+02 0.0000E+00 0.9000E+01
#aMCatNLO 1  0  0  2  2 0.18238164D+03 0.00000000D+00  -5  7  0 0.00000000D+00 0.00000000D+00 0.00000000D+00 0.00000000D+00 0.00000000D+00
  <mgrwgt>
 0.2774226812D-03    7    2    0
 0.341696398261154D+03 0.000000000000000D+00 0.000000000000000D+00 0.341696398261154D+03
 0.341696398261154D+03 0.000000000000000D+00 0.000000000000000D+00 -.341696398261154D+03
 0.989363246804352D+02 0.206108357589426D+02 0.241219207826341D+02 0.215979486143177D+02
 0.708246631306759D+02 0.442080817157560D+02 -.519229922134616D+02 0.191254097521482D+02
 0.210928692060343D+03 0.130598109241435D+03 -.384482318925555D+02 0.161111081124748D+03
 0.302703116650854D+03 -.195417026716134D+03 0.662493033233830D+02 -.201834439491214D+03
 0.000000000000000D+00 -.000000000000000D+00 0.000000000000000D+00 -.000000000000000D+00
 0.440023927402079D+03 0.000000000000000D+00 0.000000000000000D+00 0.440023927402079D+03
 0.449937922495119D+03 0.000000000000000D+00 0.000000000000000D+00 -.449937922495119D+03
 0.104673776296634D+03 0.448252863434906D+02 0.128674169931325D+02 0.215979486143177D+02
 0.898429283242364D+02 0.633155691888920D+02 -.608038581832842D+02 0.191254097521482D+02
 0.254242329312182D+03 0.185918845571983D+03 -.641604583375146D+02 0.161111081124748D+03
 0.258551915102428D+03 -.128669443140949D+03 0.352260542240885D+02 -.201834439491214D+03
 0.182650900861717D+03 -.165390257963417D+03 0.768708453035777D+02 -.991399509303963D+01
0.338956302946D-05 0.000000000000D+00 0.000000000000D+00 0.427055153018D-06 0.000000000000D+00  7 -2 2 23 -11 11 23 21 0 0.95305415D-02 0.28995895D+00 0.69294339D+05 0.69294339D+05 0.69294339D+05 0.11350339D+01  1  2  2  2  7  2        2 0.229626586662D-03 0.100000000000D+01
-.172728645615D-06 0.000000000000D+00 -.130168145256D-07 0.427055153018D-06 0.000000000000D+00  7 -2 2 23 -11 11 23 21 2 0.95305415D-02 0.28995895D+00 0.69294339D+05 0.69294339D+05 0.69294339D+05 0.11350339D+01  1  2  3  2  7  2        2 -.150751094107D-04 0.100000000000D+01
0.220627634813D-06 0.000000000000D+00 0.000000000000D+00 0.427055153018D-06 0.000000000000D+00  7 -2 2 23 -11 11 23 21 2 0.95305415D-02 0.28995895D+00 0.69294339D+05 0.69294339D+05 0.69294339D+05 0.11350339D+01  1  2 15  2  7  2        2 0.192555538313D-04 0.100000000000D+01
-.113725159330D-05 0.000000000000D+00 0.000000000000D+00 0.427055153018D-06 0.000000000000D+00  7 -2 2 23 -11 11 23 21 2 0.95305415D-02 0.28995895D+00 0.69294339D+05 0.69294339D+05 0.69294339D+05 0.11350339D+01  1  2  4  2  7  2        2 -.992550606500D-04 0.100000000000D+01
-.189346343513D-05 0.000000000000D+00 -.114658398165D-05 0.427055153018D-06 0.000000000000D+00  7 -2 2 23 -11 11 23 21 2 0.95305415D-02 0.42656487D+00 0.69294339D+05 0.69294339D+05 0.69294339D+05 0.11350339D+01  1  2  5  2  7  2        2 -.531039352716D-04 0.100000000000D+01
0.224699410516D-05 0.000000000000D+00 0.106615582229D-05 0.427055153018D-06 0.000000000000D+00  7 -2 2 23 -11 11 23 21 2 0.95305415D-02 0.28995895D+00 0.69294339D+05 0.69294339D+05 0.69294339D+05 0.11350339D+01  1  2  6  2  7  2        2 0.196109231679D-03 0.100000000000D+01
-.505406731058D-07 0.000000000000D+00 -.531757019795D-07 0.427055153018D-06 0.000000000000D+00  7 -2 21 23 -11 11 23 -2 2 0.95305415D-02 0.42656487D+00 0.69294339D+05 0.69294339D+05 0.69294339D+05 0.11350339D+01  1  2  5  4  7  2        2 -.134585636916D-06 0.100000000000D+01
  </mgrwgt>
  </event>
  <event>
  8     66 0.53686478E-06 0.24604593E+03 0.75467711E-02 0.90229591E-01
       -2 -1    0    0    0  501 0.00000000E+00 0.00000000E+00 0.12388340E+03 0.12388381E+03 0.32000000E+00 0.0000E+00 0.9000E+01
        2 -1    0    0  501    0 0.00000000E+00 0.00000000E+00 -.66003566E+03 0.66003574E+03 0.32000000E+00 0.0000E+00 0.9000E+01
       25  2    1    2    0    0 -.20178006E+02 -.15865619E+03 -.18576004E+03 0.38763379E+03 0.30029024E+03 0.0000E+00 0.0000E+00
       23  2    1    2    0    0 0.20178006E+02 0.15865619E+03 -.35039222E+03 0.39628576E+03 0.93213488E+02 0.0000E+00 0.0000E+00
       23  1    3    3    0    0 0.71433996E+01 -.18665120E+03 -.40574990E+02 0.21178121E+03 0.91188000E+02 0.0000E+00 0.9000E+01
      -11  1    4    4    0    0 0.17834310E+02 0.17126190E+03 -.32934189E+03 0.37163797E+03 0.51099893E-03 0.0000E+00 0.9000E+01
       11  1    4    4    0    0 0.23436960E+01 -.12605712E+02 -.21050332E+02 0.24647787E+02 0.51099893E-03 0.0000E+00 0.9000E+01
       23  1    3    3    0    0 -.27321405E+02 0.27995018E+02 -.14518505E+03 0.17585258E+03 0.91188000E+02 0.0000E+00 0.9000E+01
#aMCatNLO 1  0  0  2  2 0.67727009D+03 0.00000000D+00  -5  7  0 0.00000000D+00 0.00000000D+00 0.00000000D+00 0.00000000D+00 0.00000000D+00
  <mgrwgt>
 0.3546865806D-03    5    2    0
 0.285950436631783D+03 0.000000000000000D+00 0.000000000000000D+00 0.285950436631783D+03
 0.285950436631783D+03 0.000000000000000D+00 0.000000000000000D+00 -.285950436631783D+03
 0.252255354826813D+03 0.714339962825797D+01 -.186651203066806D+03 0.142925900138031D+03
 0.200658671764105D+03 0.178343095817490D+02 0.171261897896872D+03 -.103030103778646D+03
 0.140508588227918D+02 0.234369595125666D+01 -.126057123665604D+02 -.574715048329475D+01
 0.104935987849856D+03 -.273214051612636D+02 0.279950175364944D+02 -.341486458760904D+02
 0.000000000000000D+00 0.000000000000000D+00 0.000000000000000D+00 -.000000000000000D+00
 0.555262125923604D+03 0.000000000000000D+00 0.000000000000000D+00 0.555262125923604D+03
 0.146667734317319D+04 0.000000000000000D+00 0.000000000000000D+00 -.146667734317319D+04
 0.533496275730804D+03 -.262758292520052D+03 -.432242167836871D+03 0.142925900138031D+03
 0.158898083308977D+03 -.105671608628960D+03 0.588804698044780D+02 -.103030103778646D+03
 0.297725508815016D+02 -.127094225850722D+02 -.263029584812817D+02 -.574715048329475D+01
 0.164267175293497D+03 -.119791323693289D+03 -.561459017876067D+02 -.341486458760904D+02
 0.113550538388202D+04 0.500930647427373D+03 0.455810558301282D+03 -.911415217249590D+03
0.297622350471D-05 0.000000000000D+00 0.000000000000D+00 0.950500967663D-07 0.000000000000D+00  7 -2 2 23 -11 11 23 21 0 0.19059022D-01 0.10154399D+00 0.60538602D+05 0.60538602D+05 0.60538602D+05 0.11400601D+01  1  2  2  2  7  2        2 0.349014076921D-03 0.100000000000D+01
-.160804306362D-06 0.000000000000D+00 -.114294819157D-07 0.950500967663D-07 0.000000000000D+00  7 -2 2 23 -11 11 23 21 2 0.19059022D-01 0.10154399D+00 0.60538602D+05 0.60538602D+05 0.60538602D+05 0.11400601D+01  1  2  3  2  7  2        2 -.245092829643D-04 0.100000000000D+01
0.186699439736D-06 0.000000000000D+00 0.000000000000D+00 0.950500967663D-07 0.000000000000D+00  7 -2 2 23 -11 11 23 21 2 0.19059022D-01 0.10154399D+00 0.60538602D+05 0.60538602D+05 0.60538602D+05 0.11400601D+01  1  2 15  2  7  2        2 0.284561371602D-04 0.100000000000D+01
0.125674196556D-05 0.000000000000D+00 -.141601309363D-05 0.950500967663D-07 0.000000000000D+00  7 -2 2 23 -11 11 23 21 2 0.19059022D-01 0.61648092D+00 0.60538602D+05 0.60538602D+05 0.60538602D+05 0.11400601D+01  1  2  5  2  7  2        2 0.172051249876D-05 0.100000000000D+01
0.184006920412D-06 0.000000000000D+00 -.312999742571D-06 0.950500967663D-07 0.000000000000D+00  7 -2 21 23 -11 11 23 -2 2 0.19059022D-01 0.61648092D+00 0.60538602D+05 0.60538602D+05 0.60538602D+05 0.11400601D+01  1  2  5  4  7  2        2 0.513694478516D-08 0.100000000000D+01
  </mgrwgt>
  </event>
  <event>
  8     66 0.53686478E-06 0.36591867E+03 0.75467711E-02 0.92920064E-01
       -2 -1    0    0    0  501 0.00000000E+00 0.00000000E+00 0.10364895E+04 0.10364896E+04 0.32000000E+00 0.0000E+00 0.9000E+01
        2 -1    0    0  501    0 0.00000000E+00 0.00000000E+00 -.14882509E+03 0.14882544E+03 0.32000000E+00 0.0000E+00 0.9000E+01
       25  2    1    2    0    0 -.25803235E+03 -.16280292E+03 0.68583362E+03 0.80807034E+03 0.29920634E+03 0.0000E+00 0.0000E+00
       23  2    1    2    0    0 0.25803235E+03 0.16280292E+03 0.20183081E+03 0.37724467E+03 0.92154095E+02 0.0000E+00 0.0000E+00
       23  1    3    3    0    0 -.10002102E+03 0.39264858E+02 0.33919307E+03 0.36730522E+03 0.91188000E+02 0.0000E+00 0.9000E+01
      -13  1    4    4    0    0 0.25609194E+03 0.17250505E+03 0.19444320E+03 0.36489621E+03 0.10565837E+00 0.0000E+00 0.9000E+01
       13  1    4    4    0    0 0.19404139E+01 -.97021289E+01 0.73876099E+01 0.12348460E+02 0.10565837E+00 0.0000E+00 0.9000E+01
       23  1    3    3    0    0 -.15801133E+03 -.20206778E+03 0.34664054E+03 0.44076512E+03 0.91188000E+02 0.0000E+00 0.9000E+01
#aMCatNLO 1  0  0  2  2 0.35320560D+03 0.00000000D+00  -5  7  0 0.00000000D+00 0.00000000D+00 0.00000000D+00 0.00000000D+00 0.00000000D+00
  <mgrwgt>
 0.4435828982D-03    3    2    0
 0.392754225949452D+03 0.000000000000000D+00 0.000000000000000D+00 0.392754225949452D+03
 0.392754225949452D+03 0.000000000000000D+00 0.000000000000000D+00 -.392754225949452D+03
 0.170950122654858D+03 -.100021019345011D+03 0.392648579768631D+02 0.967613544187593D+02
 0.330890101067984D+03 0.256092271608400D+03 0.172505291372226D+03 -.118940875462617D+03
 0.102847586040662D+02 0.194007985214552D+01 -.970236827762489D+01 -.280649238669035D+01
 0.273383469571996D+03 -.158011332115534D+03 -.202067781071464D+03 0.249860134305478D+02
 0.000000000000000D+00 0.000000000000000D+00 -.000000000000000D+00 0.000000000000000D+00
 0.110547453017550D+04 0.000000000000000D+00 0.000000000000000D+00 0.110547453017550D+04
 0.476848672308491D+03 0.000000000000000D+00 0.000000000000000D+00 -.476848672308491D+03
 0.235679167937924D+03 -.182842746287102D+03 0.665972167372623D+02 0.967613544187593D+02
 0.277759333952507D+03 0.132123343454607D+03 0.213416817182486D+03 -.118940875462617D+03
 0.908101254652002D+01 -.200431531899105D+01 -.840066125108978D+01 -.280649238669035D+01
 0.338745671988308D+03 -.282689002387877D+03 -.160922360188401D+03 0.249860134305478D+02
 0.721058016058731D+03 0.335412720539363D+03 -.110691012480257D+03 0.628625857867008D+03
0.588562964865D-04 0.000000000000D+00 0.000000000000D+00 0.197161695932D-06 0.000000000000D+00  7 -2 2 23 -13 13 23 21 0 0.15945996D+00 0.22896198D-01 0.13389647D+06 0.13389647D+06 0.13389647D+06 0.11114653D+01  1  2  2  2  7  2        2 0.439313335464D-03 0.100000000000D+01
-.324988125544D-05 0.000000000000D+00 -.226023675727D-06 0.197161695932D-06 0.000000000000D+00  7 -2 2 23 -13 13 23 21 2 0.15945996D+00 0.22896198D-01 0.13389647D+06 0.13389647D+06 0.13389647D+06 0.11114653D+01  1  2  3  2  7  2        2 -.299668258035D-04 0.100000000000D+01
0.371291233994D-05 0.000000000000D+00 0.000000000000D+00 0.197161695932D-06 0.000000000000D+00  7 -2 2 23 -13 13 23 21 2 0.15945996D+00 0.22896198D-01 0.13389647D+06 0.13389647D+06 0.13389647D+06 0.11114653D+01  1  2 15  2  7  2        2 0.342363885230D-04 0.100000000000D+01
  </mgrwgt>
  </event>
  <event>
  8     66 0.53686478E-06 0.48442780E+03 0.75467711E-02 0.84218160E-01
       -2 -1    0    0    0  501 0.00000000E+00 0.00000000E+00 0.49787205E+03 0.49787216E+03 0.32000000E+00 0.0000E+00 0.9000E+01
        2 -1    0    0  501    0 0.00000000E+00 0.00000000E+00 -.49182168E+03 0.49182178E+03 0.32000000E+00 0.0000E+00 0.9000E+01
       25  2    1    2    0    0 0.40984572E+03 0.17427559E+03 -.21227626E+01 0.53637070E+03 0.29890387E+03 0.0000E+00 0.0000E+00
       23  2    1    2    0    0 -.40984572E+03 -.17427559E+03 0.81731395E+01 0.45332324E+03 0.84200111E+02 0.0000E+00 0.0000E+00
       23  1    3    3    0    0 0.21906110E+03 -.13463446E+02 -.65620774E+02 0.24655702E+03 0.91188000E+02 0.0000E+00 0.9000E+01
      -13  1    4    4    0    0 -.25935620E+03 -.13728736E+03 -.26102149E+02 0.29460956E+03 0.10565837E+00 0.0000E+00 0.9000E+01
       13  1    4    4    0    0 -.15048952E+03 -.36988232E+02 0.34275289E+02 0.15871368E+03 0.10565837E+00 0.0000E+00 0.9000E+01
       23  1    3    3    0    0 0.19078463E+03 0.18773903E+03 0.63498012E+02 0.28981368E+03 0.91188000E+02 0.0000E+00 0.9000E+01
#aMCatNLO 1  0  0  2  2 0.12383949D+04 0.00000000D+00  -5  7  0 0.00000000D+00 0.00000000D+00 0.00000000D+00 0.00000000D+00 0.00000000D+00
  <mgrwgt>
 0.3141116926D-03    5    2    0
 0.494837722352802D+03 0.000000000000000D+00 0.000000000000000D+00 0.494837722352802D+03
 0.494837722352802D+03 0.000000000000000D+00 0.000000000000000D+00 -.494837722352802D+03
 0.246962801900577D+03 0.219061095068424D+03 -.134634462139151D+02 -.671293260956130D+02
 0.294774851473642D+03 -.259356372431129D+03 -.137287514177570D+03 -.279038275441995D+02
 0.158506890908892D+03 -.150489352508546D+03 -.369880737585165D+02 0.333057299394058D+02
 0.289430900422493D+03 0.190784629871250D+03 0.187739034150002D+03 0.617274237004067D+02
 0.000000000000000D+00 -.000000000000000D+00 -.000000000000000D+00 -.000000000000000D+00
 0.956390664872991D+03 0.000000000000000D+00 0.000000000000000D+00 0.956390664872991D+03
 0.313395812737698D+04 0.000000000000000D+00 0.000000000000000D+00 -.313395812737698D+04
 0.489894527359662D+03 0.360943903501595D+03 0.311278892146458D+03 -.671293260956130D+02
 0.184819215912726D+03 -.167009929657764D+03 0.740756530493468D+02 -.279038275441995D+02
 0.136092816791006D+03 -.937638070979894D+02 0.928457409567328D+02 0.333057299394058D+02
 0.774462977210511D+03 0.395638738311714D+03 0.656610512888877D+03 0.617274237004067D+02
 0.250507925497607D+04 -.495808905057556D+03 -.113481079904141D+04 -.217756746250399D+04
0.260069121368D-04 0.000000000000D+00 0.000000000000D+00 0.601979393291D-08 0.000000000000D+00  7 -2 2 23 -13 13 23 21 0 0.76595717D-01 0.75664889D-01 0.23467029D+06 0.23467029D+06 0.23467029D+06 0.10925326D+01  1  2  2  2  7  2        2 0.311014232298D-03 0.100000000000D+01
-.144403433429D-05 0.000000000000D+00 -.998733903825D-07 0.601979393291D-08 0.000000000000D+00  7 -2 2 23 -13 13 23 21 2 0.76595717D-01 0.75664889D-01 0.23467029D+06 0.23467029D+06 0.23467029D+06 0.10925326D+01  1  2  3  2  7  2        2 -.206128386512D-04 0.100000000000D+01
0.158448299060D-05 0.000000000000D+00 0.000000000000D+00 0.601979393291D-08 0.000000000000D+00  7 -2 2 23 -13 13 23 21 2 0.76595717D-01 0.75664889D-01 0.23467029D+06 0.23467029D+06 0.23467029D+06 0.10925326D+01  1  2 15  2  7  2        2 0.226176701309D-04 0.100000000000D+01
0.827320549400D-05 0.000000000000D+00 -.152034006918D-04 0.601979393291D-08 0.000000000000D+00  7 -2 2 23 -13 13 23 21 2 0.76595717D-01 0.57608894D+00 0.23467029D+06 0.23467029D+06 0.23467029D+06 0.10925326D+01  1  2  5  2  7  2        2 0.109137755766D-05 0.100000000000D+01
0.368400460012D-06 0.000000000000D+00 -.375756824413D-05 0.601979393291D-08 0.000000000000D+00  7 -2 21 23 -13 13 23 -2 2 0.76595717D-01 0.57608894D+00 0.23467029D+06 0.23467029D+06 0.23467029D+06 0.10925326D+01  1  2  5  4  7  2        2 0.125126687448D-08 0.100000000000D+01
  </mgrwgt>
  </event>
  <event>
  8     66 0.53686478E-06 0.22143649E+03 0.75467711E-02 0.94718725E-01
       -2 -1    0    0    0  501 0.00000000E+00 0.00000000E+00 0.31668054E+03 0.31668070E+03 0.32000000E+00 0.0000E+00 0.9000E+01
        2 -1    0    0  501    0 0.00000000E+00 0.00000000E+00 -.87233886E+03 0.87233892E+03 0.32000000E+00 0.0000E+00 0.9000E+01
       25  2    1    2    0    0 0.20816331E+02 0.42069192E+03 -.55426638E+03 0.75717041E+03 0.29779322E+03 0.0000E+00 0.0000E+00
       23  2    1    2    0    0 -.20816331E+02 -.42069192E+03 -.13919424E+01 0.43184921E+03 0.95272164E+02 0.0000E+00 0.0000E+00
       23  1    3    3    0    0 0.21036211E+02 0.40165219E+03 -.50430222E+03 0.65146219E+03 0.91188000E+02 0.0000E+00 0.9000E+01
      -13  1    4    4    0    0 -.50448530E+01 -.39184907E+01 -.13141311E+02 0.14611992E+02 0.10565837E+00 0.0000E+00 0.9000E+01
       13  1    4    4    0    0 -.15771478E+02 -.41677343E+03 0.11749368E+02 0.41723721E+03 0.10565837E+00 0.0000E+00 0.9000E+01
       23  1    3    3    0    0 -.21988005E+00 0.19039733E+02 -.49964160E+02 0.10570822E+03 0.91188000E+02 0.0000E+00 0.9000E+01
#aMCatNLO 1  0  0  1  2 0.60807913D+02 0.00000000D+00  -5  7  0 0.00000000D+00 0.00000000D+00 0.00000000D+00 0.00000000D+00 0.00000000D+00
  <mgrwgt>
 0.3627361222D-03    6    2    0
 0.525597631622157D+03 0.000000000000000D+00 0.000000000000000D+00 0.525597631622157D+03
 0.525597631622157D+03 0.000000000000000D+00 0.000000000000000D+00 -.525597631622157D+03
 0.470304249043948D+03 0.210362112225684D+02 0.401652189697524D+03 -.226061566068572D+03
 0.958077072408943D+01 -.504483965539456D+01 -.391798308614810D+01 -.714074009158611D+01
 0.478153288691675D+03 -.157714915178095D+02 -.416773939519721D+03 0.233840353402018D+03
 0.931569547846002D+02 -.219880049364328D+00 0.190397329083444D+02 -.638047241859311D+00
 0.000000000000000D+00 -.000000000000000D+00 0.000000000000000D+00 -.000000000000000D+00
 0.555091171491135D+03 0.000000000000000D+00 0.000000000000000D+00 0.555091171491135D+03
 0.558781152446502D+03 0.000000000000000D+00 0.000000000000000D+00 -.558781152446502D+03
 0.458439035012286D+03 0.427668762736165D+02 0.385899287534219D+03 -.226061566068572D+03
 0.949353312805065D+01 -.459854053785749D+01 -.424151236229383D+01 -.714074009158611D+01
 0.492364024845266D+03 0.693659911257974D+01 -.433235392916369D+03 0.233840353402018D+03
 0.926559623170431D+02 0.412775651825525D+01 0.158880625231798D+02 -.638047241859311D+00
 0.609197686349916D+02 -.492326913665940D+02 0.356895552212639D+02 -.368998095536645D+01
0.170575035966D-04 0.000000000000D+00 0.000000000000D+00 0.101372770081D-07 0.000000000000D+00  7 -2 2 23 -13 13 23 21 0 0.48720100D-01 0.13420600D+00 0.21577181D+06 0.21577181D+06 0.21577181D+06 0.10953025D+01  1  2  2  1  7  1       -2 0.262911077322D-03 0.100000000000D+01
-.930052028305D-06 0.000000000000D+00 -.655053051550D-07 0.101372770081D-07 0.000000000000D+00  7 -2 2 23 -13 13 23 21 2 0.48720100D-01 0.13420600D+00 0.21577181D+06 0.21577181D+06 0.21577181D+06 0.10953025D+01  1  2  3  1  7  1       -2 -.171976399958D-04 0.100000000000D+01
0.102828981876D-05 0.000000000000D+00 0.000000000000D+00 0.101372770081D-07 0.000000000000D+00  7 -2 2 23 -13 13 23 21 2 0.48720100D-01 0.13420600D+00 0.21577181D+06 0.21577181D+06 0.21577181D+06 0.10953025D+01  1  2 15  1  7  1       -2 0.190141600428D-04 0.100000000000D+01
0.243759546387D-04 0.000000000000D+00 0.000000000000D+00 0.101372770081D-07 0.000000000000D+00  7 -2 2 23 -13 13 23 21 2 0.52903491D-01 0.13420600D+00 0.24593416D+06 0.24593416D+06 0.24593416D+06 0.10909952D+01  1  2 12  1  7  1       -2 0.378379879168D-03 0.100000000000D+01
-.180753812448D-04 0.000000000000D+00 0.000000000000D+00 0.101372770081D-07 0.000000000000D+00  7 -2 2 23 -13 13 23 21 2 0.48720100D-01 0.13420600D+00 0.21577181D+06 0.21577181D+06 0.21577181D+06 0.10953025D+01  1  2  4  1  7  1       -2 -.334232806309D-03 0.100000000000D+01
0.334156024808D-06 0.000000000000D+00 0.000000000000D+00 0.101372770081D-07 0.000000000000D+00  7 21 2 23 -13 13 23 2 2 0.52903491D-01 0.13420600D+00 0.24593416D+06 0.24593416D+06 0.24593416D+06 0.10909952D+01  1  2 12  3  7  1       -2 0.538614519259D-04 0.100000000000D+01
  </mgrwgt>
  </event>
  <event>
  9     66 0.53686478E-06 0.34520581E+03 0.75467711E-02 0.95885528E-01
       21 -1    0    0  502  501 0.00000000E+00 0.00000000E+00 0.12742454E+03 0.12742674E+03 0.75000000E+00 0.0000E+00 0.9000E+01
        2 -1    0    0  501    0 0.00000000E+00 0.00000000E+00 -.19256926E+04 0.19256926E+04 0.32000000E+00 0.0000E+00 0.9000E+01
       25  2    1    2    0    0 -.32168320E+03 0.18717202E+03 -.10620538E+04 0.11648792E+04 0.30078520E+03 0.0000E+00 0.0000E+00
       23  2    1    2    0    0 0.14024760E+03 -.17355991E+03 -.63611047E+03 0.68057449E+03 0.93555745E+02 0.0000E+00 0.0000E+00
       23  1    3    3    0    0 -.20028190E+03 0.23239841E+03 -.70333457E+03 0.77273321E+03 0.91188000E+02 0.0000E+00 0.9000E+01
      -11  1    4    4    0    0 -.90878153E+01 -.17719244E+02 -.11204975E+03 0.11380556E+03 0.51099893E-03 0.0000E+00 0.9000E+01
       11  1    4    4    0    0 0.14933541E+03 -.15584066E+03 -.52406072E+03 0.56676893E+03 0.51099893E-03 0.0000E+00 0.9000E+01
       23  1    3    3    0    0 -.12140130E+03 -.45226386E+02 -.35871925E+03 0.39214596E+03 0.91188000E+02 0.0000E+00 0.9000E+01
        2  1    1    2  502    0 0.18143560E+03 -.13612113E+02 -.10010373E+03 0.20766566E+03 0.32000000E+00 0.0000E+00 0.9000E+01
#aMCatNLO 2  0  0  1  2 0.18194550D+03 0.00000000D+00  -5  7  0 0.00000000D+00 0.00000000D+00 0.00000000D+00 0.00000000D+00 0.00000000D+00
  <mgrwgt>
 0.9815552621D-04    2    2    0
 0.349583007464101D+03 0.000000000000000D+00 0.000000000000000D+00 0.349583007464101D+03
 0.349583007464101D+03 0.000000000000000D+00 0.000000000000000D+00 -.349583007464101D+03
 0.274847456357638D+03 -.124278868090190D+03 0.226696317351271D+03 0.197336151745384D+02
 0.262260383737612D+02 -.225277454985110D+01 -.182320393175712D+02 -.187169131518015D+02
 0.264916586607892D+03 0.210704954864947D+03 -.160444881598300D+03 -.645444221021044D+01
 0.133175933588911D+03 -.841733122249062D+02 -.480193964353999D+02 0.543774018747354D+01
 0.000000000000000D+00 0.000000000000000D+00 -.000000000000000D+00 0.000000000000000D+00
 0.625020853497614D+03 0.000000000000000D+00 0.000000000000000D+00 0.625020853497614D+03
 0.392599172384506D+03 0.000000000000000D+00 0.000000000000000D+00 -.392599172384506D+03
 0.320665751335392D+03 -.200281896937168D+03 0.232398405603146D+03 0.197336151745384D+02
 0.273291571339913D+02 -.908781534575471D+01 -.177192438880380D+02 -.187169131518015D+02
 0.215937577998166D+03 0.149335412642161D+03 -.155840663173847D+03 -.645444221021044D+01
 0.158519783661907D+03 -.121401299323022D+03 -.452263858002512D+02 0.543774018747354D+01
 0.295167755752664D+03 0.181435598963784D+03 -.136121127410097D+02 0.232421681113108D+03
-.188259615146D-06 0.000000000000D+00 0.000000000000D+00 0.471138724803D-07 0.000000000000D+00  7 21 2 23 -11 11 23 2 2 0.19814340D-01 0.26379994D+00 0.20078683D+06 0.20078683D+06 0.20078683D+06 0.10976944D+01  1  2 13  3  7  1       -2 -.728637165269D-04 0.100000000000D+01
0.563436357133D-06 0.000000000000D+00 0.000000000000D+00 0.471138724803D-07 0.100147114701D-11  7 21 2 23 -11 11 23 2 2 0.19603942D-01 0.29626050D+00 0.20078683D+06 0.20078683D+06 0.20078683D+06 0.10976944D+01  1  2  1  3  7  1       -2 0.171019242732D-03 0.100000000000D+01
  </mgrwgt>
  </event>
  <event>
  8     66 0.53686478E-06 0.19744345E+03 0.75467711E-02 0.10435233E+00
       -2 -1    0    0    0  501 0.00000000E+00 0.00000000E+00 0.86815338E+02 0.86815928E+02 0.32000000E+00 0.0000E+00 0.9000E+01
        2 -1    0    0  501    0 0.00000000E+00 0.00000000E+00 -.83928238E+03 0.83928244E+03 0.32000000E+00 0.0000E+00 0.9000E+01
       25  2    1    2    0    0 -.83005356E+02 0.11368214E+03 -.31312272E+03 0.45543736E+03 0.29927218E+03 0.0000E+00 0.0000E+00
       23  2    1    2    0    0 0.83005356E+02 -.11368214E+03 -.43934432E+03 0.47066101E+03 0.93192440E+02 0.0000E+00 0.0000E+00
       23  1    3    3    0    0 -.13378886E+02 0.66814453E+02 -.31133161E+03 0.33149026E+03 0.91188000E+02 0.0000E+00 0.9000E+01
      -11  1    4    4    0    0 -.77535554E+01 -.38473238E+02 -.48282689E+02 0.62221586E+02 0.51099893E-03 0.0000E+00 0.9000E+01
       11  1    4    4    0    0 0.90758911E+02 -.75208903E+02 -.39106164E+03 0.40843942E+03 0.51099893E-03 0.0000E+00 0.9000E+01
       23  1    3    3    0    0 -.69626469E+02 0.46867689E+02 -.17911057E+01 0.12394711E+03 0.91188000E+02 0.0000E+00 0.9000E+01
#aMCatNLO 1  0  0  1  2 0.59029692D+02 0.00000000D+00  -5  7  0 0.00000000D+00 0.00000000D+00 0.00000000D+00 0.00000000D+00 0.00000000D+00
  <mgrwgt>
 0.2254262995D-03    4    2    0
 0.269931259977700D+03 0.000000000000000D+00 0.000000000000000D+00 0.269931259977700D+03
 0.269931259977700D+03 0.000000000000000D+00 0.000000000000000D+00 -.269931259977700D+03
 0.134711719481649D+03 -.133788864330739D+02 0.668144526131470D+02 -.720335362280570D+02
 0.394399984982573D+02 -.775355531815742D+01 -.384732382379305D+02 0.389946162415407D+01
 0.155584223309652D+03 0.907589110806323D+02 -.752089031956601D+02 -.101552407565904D+03
 0.210126578665842D+03 -.696264693294011D+02 0.468676888204436D+02 0.169686482169807D+03
 0.000000000000000D+00 0.000000000000000D+00 -.000000000000000D+00 -.000000000000000D+00
 0.283597988509285D+03 0.000000000000000D+00 0.000000000000000D+00 0.283597988509285D+03
 0.343785242007686D+03 0.000000000000000D+00 0.000000000000000D+00 -.343785242007686D+03
 0.137485810642769D+03 -.281795233362364D+02 0.678541148871826D+02 -.720335362280570D+02
 0.402259962174351D+02 -.120853634017109D+02 -.381689528566798D+02 0.389946162415407D+01
 0.146035908099823D+03 0.743584314523443D+02 -.740568608844284D+02 -.101552407565904D+03
 0.219332431078711D+03 -.929781392182333D+02 0.485080135157927D+02 0.169686482169807D+03
 0.843030844782327D+02 0.588845945038362D+02 -.413631466186709D+01 -.601872534984015D+02
0.175378083356D-05 0.000000000000D+00 0.000000000000D+00 0.413775833798D-07 0.000000000000D+00  7 -2 2 23 -11 11 23 21 0 0.13356256D-01 0.12912042D+00 0.38983916D+05 0.38983916D+05 0.38983916D+05 0.11569256D+01  1  2  2  1  7  1       -2 0.270823107027D-03 0.100000000000D+01
-.858476414747D-07 0.000000000000D+00 -.673498018198D-08 0.413775833798D-07 0.000000000000D+00  7 -2 2 23 -11 11 23 21 2 0.13356256D-01 0.12912042D+00 0.38983916D+05 0.38983916D+05 0.38983916D+05 0.11569256D+01  1  2  3  1  7  1       -2 -.177439213583D-04 0.100000000000D+01
0.115975949329D-06 0.000000000000D+00 0.000000000000D+00 0.413775833798D-07 0.000000000000D+00  7 -2 2 23 -11 11 23 21 2 0.13356256D-01 0.12912042D+00 0.38983916D+05 0.38983916D+05 0.38983916D+05 0.11569256D+01  1  2 15  1  7  1       -2 0.239711666972D-04 0.100000000000D+01
-.249764586373D-06 0.000000000000D+00 0.000000000000D+00 0.413775833798D-07 0.000000000000D+00  7 -2 2 23 -11 11 23 21 2 0.13356256D-01 0.12912042D+00 0.38983916D+05 0.38983916D+05 0.38983916D+05 0.11569256D+01  1  2  4  1  7  1       -2 -.516240528284D-04 0.100000000000D+01
  </mgrwgt>
  </event>
  <event>
  8     66 0.53686478E-06 0.18635863E+03 0.75467711E-02 0.10474943E+00
       -2 -1    0    0    0  501 0.00000000E+00 0.00000000E+00 0.14725911E+03 0.14725946E+03 0.32000000E+00 0.0000E+00 0.9000E+01
        2 -1    0    0  501    0 0.00000000E+00 0.00000000E+00 -.11108154E+04 0.11108154E+04 0.32000000E+00 0.0000E+00 0.9000E+01
       25  2    1    2    0    0 -.14366534E+03 -.10460462E+03 -.99676277E+03 0.10558822E+04 0.29961532E+03 0.0000E+00 0.0000E+00
       23  2    1    2    0    0 0.14366534E+03 0.10460462E+03 0.33206512E+02 0.20219268E+03 0.90539217E+02 0.0000E+00 0.0000E+00
       23  1    3    3    0    0 -.71823236E+02 -.70619092E+02 -.87045719E+03 0.88099750E+03 0.91188000E+02 0.0000E+00 0.9000E+01
      -11  1    4    4    0    0 0.14148809E+03 0.75821159E+02 0.50822163E+02 0.16837642E+03 0.51099893E-03 0.0000E+00 0.9000E+01
       11  1    4    4    0    0 0.21772541E+01 0.28783459E+02 -.17615652E+02 0.33816255E+02 0.51099893E-03 0.0000E+00 0.9000E+01
       23  1    3    3    0    0 -.71842109E+02 -.33985526E+02 -.12630558E+03 0.17488469E+03 0.91188000E+02 0.0000E+00 0.9000E+01
#aMCatNLO 1  0  0  2  2 0.90184996D+00 0.00000000D+00  -5  7  0 0.00000000D+00 0.00000000D+00 0.00000000D+00 0.00000000D+00 0.00000000D+00
  <mgrwgt>
 0.3589130854D-03   10    2    0
 0.404447688558517D+03 0.000000000000000D+00 0.000000000000000D+00 0.404447688558517D+03
 0.404447688558517D+03 0.000000000000000D+00 0.000000000000000D+00 -.404447688558517D+03
 0.333326611225387D+03 -.718232360672573D+02 -.706190921384022D+02 -.304377635501322D+03
 0.322415196057858D+03 0.141488090537270D+03 0.758211592329420D+02 0.279613716934125D+03
 0.316106512314653D+02 0.217725407297224D+01 0.287834587026641D+02 0.128843059995910D+02
 0.121542918602323D+03 -.718421085429852D+02 -.339855257972039D+02 0.118796125676056D+02
 0.000000000000000D+00 0.000000000000000D+00 0.000000000000000D+00 -.000000000000000D+00
 0.404630359542270D+03 0.000000000000000D+00 0.000000000000000D+00 0.404630359542270D+03
 0.405562586186933D+03 0.000000000000000D+00 0.000000000000000D+00 -.405562586186933D+03
 0.333432618196253D+03 -.719855556458845D+02 -.709534658645094D+02 -.304377635501322D+03
 0.322270459850968D+03 0.141331144672261D+03 0.754978552044083D+02 0.279613716934125D+03
 0.315807414943717D+02 0.216187040854359D+01 0.287517687904570D+02 0.128843059995910D+02
 0.121612060318516D+03 -.719013035446859D+02 -.341074658210319D+02 0.118796125676056D+02
 0.129706586909343D+01 0.393844109765346D+00 0.811307690676112D+00 -.932226644663208D+00
0.264525341860D-05 0.000000000000D+00 0.000000000000D+00 0.985368176976D-06 0.000000000000D+00  7 -2 2 23 -11 11 23 21 0 0.22655278D-01 0.17089470D+00 0.49778248D+05 0.49778248D+05 0.49778248D+05 0.11474652D+01  1  2  2  2  7  2        2 0.119075163467D-03 0.100000000000D+01
-.837319631482D-07 0.000000000000D+00 -.101584696386D-07 0.985368176976D-06 0.000000000000D+00  7 -2 2 23 -11 11 23 21 2 0.22655278D-01 0.17089470D+00 0.49778248D+05 0.49778248D+05 0.49778248D+05 0.11474652D+01  1  2  3  2  7  2        2 -.496277104807D-05 0.100000000000D+01
0.161850047167D-06 0.000000000000D+00 0.000000000000D+00 0.985368176976D-06 0.000000000000D+00  7 -2 2 23 -11 11 23 21 2 0.22655278D-01 0.17089470D+00 0.49778248D+05 0.49778248D+05 0.49778248D+05 0.11474652D+01  1  2 15  2  7  2        2 0.959280898251D-05 0.100000000000D+01
-.404811264607D-03 0.000000000000D+00 0.000000000000D+00 0.985368176976D-06 0.000000000000D+00  7 -2 2 23 -11 11 23 21 2 0.22655278D-01 0.17089470D+00 0.49778248D+05 0.49778248D+05 0.49778248D+05 0.11474652D+01  1  2  4  2  7  2        2 -.239930553207D-01 0.100000000000D+01
-.138979457209D-02 0.000000000000D+00 -.104525763991D-03 0.985368176976D-06 0.000000000000D+00  7 -2 2 23 -11 11 23 21 2 0.22655278D-01 0.17140492D+00 0.49778248D+05 0.49778248D+05 0.49778248D+05 0.11474652D+01  1  2  5  2  7  2        2 -.820120560424D-01 0.100000000000D+01
0.139010046428D-02 0.000000000000D+00 0.104525299526D-03 0.985368176976D-06 0.000000000000D+00  7 -2 2 23 -11 11 23 21 2 0.22655278D-01 0.17089470D+00 0.49778248D+05 0.49778248D+05 0.49778248D+05 0.11474652D+01  1  2  6  2  7  2        2 0.823908825096D-01 0.100000000000D+01
0.404812260744D-03 0.000000000000D+00 0.000000000000D+00 0.985368176976D-06 0.850533209095D-05  7 -2 2 23 -11 11 23 21 2 0.22665511D-01 0.17136579D+00 0.49980931D+05 0.49980931D+05 0.49980931D+05 0.11473100D+01  1  2 11  2  7  2        2 0.238701556249D-01 0.100000000000D+01
0.843773572586D-12 0.000000000000D+00 0.000000000000D+00 0.985368176976D-06 0.000000000000D+00  7 -2 21 23 -11 11 23 -2 2 0.22655278D-01 0.17140432D+00 0.49980931D+05 0.49980931D+05 0.49980931D+05 0.11473100D+01  1  2 12  4  7  2        2 0.317046792007D-10 0.100000000000D+01
-.773032412405D-06 0.000000000000D+00 -.581654880134D-07 0.985368176976D-06 0.000000000000D+00  7 -2 21 23 -11 11 23 -2 2 0.22655278D-01 0.17140492D+00 0.49778248D+05 0.49778248D+05 0.49778248D+05 0.11474652D+01  1  2  5  4  7  2        2 -.290621222112D-04 0.100000000000D+01
0.222055009221D-06 0.000000000000D+00 0.000000000000D+00 0.985368176976D-06 0.437485395870D-08  7 -2 21 23 -11 11 23 -2 2 0.22665511D-01 0.17136579D+00 0.49980931D+05 0.49980931D+05 0.49980931D+05 0.11473100D+01  1  2 11  4  7  2        2 0.834320310293D-05 0.100000000000D+01
  </mgrwgt>
  </event>
  <event>
  8     66 0.53686478E-06 0.16441458E+03 0.75467711E-02 0.91450535E-01
       -2 -1    0    0    0  501 0.00000000E+00 0.00000000E+00 0.27645276E+03 0.27645295E+03 0.32000000E+00 0.0000E+00 0.9000E+01
        2 -1    0    0  501    0 0.00000000E+00 0.00000000E+00 -.81380131E+03 0.81380137E+03 0.32000000E+00 0.0000E+00 0.9000E+01
       25  2    1    2    0    0 -.62963881E+01 -.53801485E+02 0.18725891E+03 0.35802834E+03 0.30030676E+03 0.0000E+00 0.0000E+00
       23  2    1    2    0    0 0.62963881E+01 0.53801485E+02 -.72460746E+03 0.73222598E+03 0.90358589E+02 0.0000E+00 0.0000E+00
       23  1    3    3    0    0 0.57273485E+02 0.24724511E+02 -.17805766E+02 0.11191001E+03 0.91188000E+02 0.0000E+00 0.9000E+01
      -13  1    4    4    0    0 0.32290622E+02 0.15152272E+02 -.56057799E+03 0.56171165E+03 0.10565837E+00 0.0000E+00 0.9000E+01
       13  1    4    4    0    0 -.25994234E+02 0.38649213E+02 -.16402946E+03 0.17051433E+03 0.10565837E+00 0.0000E+00 0.9000E+01
       23  1    3    3    0    0 -.63569873E+02 -.78525996E+02 0.20506468E+03 0.24611833E+03 0.91188000E+02 0.0000E+00 0.9000E+01
#aMCatNLO 1  0  0  1  1 0.63375775D+03 0.00000000D+00  -5  7  0 0.00000000D+00 0.00000000D+00 0.00000000D+00 0.00000000D+00 0.00000000D+00
  <mgrwgt>
 0.2852410570D-03    5    2    0
 0.474318201617966D+03 0.000000000000000D+00 0.000000000000000D+00 0.474318201617966D+03
 0.474318201617966D+03 0.000000000000000D+00 0.000000000000000D+00 -.474318201617966D+03
 0.118530628176539D+03 0.572734849422149D+02 0.247245110921018D+02 0.429267392863159D+02
 0.328031974442191D+03 0.322907015077854D+02 0.151522395928563D+02 -.326086946208980D+03
 0.103056031189937D+03 -.259943133997601D+02 0.386492454137037D+02 -.919297398258458D+02
 0.399017769427266D+03 -.635698730502401D+02 -.785259960986618D+02 0.375089946748510D+03
 0.000000000000000D+00 -.000000000000000D+00 -.000000000000000D+00 0.000000000000000D+00
 0.205690468507428D+04 0.000000000000000D+00 0.000000000000000D+00 0.205690468507428D+04
 0.637980204027889D+03 0.000000000000000D+00 0.000000000000000D+00 -.637980204027889D+03
 0.174537325210259D+03 0.973320613015558D+02 0.104075892715780D+03 0.429267392863159D+02
 0.413259716742909D+03 0.133615631349879D+03 0.215865143210998D+03 -.326086946208980D+03
 0.139162107624158D+03 0.711375487304674D+01 0.104232478746100D+03 -.919297398258458D+02
 0.413900137772688D+03 0.475454286506790D+02 0.141580495714889D+03 0.375089946748510D+03
 0.155402560175215D+04 -.285606876175161D+03 -.565754010387767D+03 0.141892448104639D+04
0.109948455379D-04 0.000000000000D+00 0.000000000000D+00 0.957171541725D-06 0.000000000000D+00  7 -2 2 23 -13 13 23 21 0 0.42531214D-01 0.12520022D+00 0.27032155D+05 0.27032155D+05 0.27032155D+05 0.11715568D+01  1  2  2  1  7  1       -2 0.252209856467D-03 0.100000000000D+01
0.222836425773D-06 0.000000000000D+00 -.422231018749D-07 0.957171541725D-06 0.000000000000D+00  7 -2 2 23 -13 13 23 21 2 0.42531214D-01 0.12520022D+00 0.27032155D+05 0.27032155D+05 0.27032155D+05 0.11715568D+01  1  2  3  1  7  1       -2 0.701593928372D-05 0.100000000000D+01
0.673120420971D-06 0.000000000000D+00 0.000000000000D+00 0.957171541725D-06 0.000000000000D+00  7 -2 2 23 -13 13 23 21 2 0.42531214D-01 0.12520022D+00 0.27032155D+05 0.27032155D+05 0.27032155D+05 0.11715568D+01  1  2 15  1  7  1       -2 0.211929983520D-04 0.100000000000D+01
0.312125138985D-05 0.000000000000D+00 -.444952489417D-05 0.957171541725D-06 0.000000000000D+00  7 -2 2 23 -13 13 23 21 2 0.21537231D+00 0.12520022D+00 0.27032155D+05 0.27032155D+05 0.27032155D+05 0.11715568D+01  1  2  5  1  7  1       -2 0.208493296307D-05 0.100000000000D+01
0.480343014618D-06 0.000000000000D+00 -.880305569674D-06 0.957171541725D-06 0.000000000000D+00  7 21 2 23 -13 13 23 2 2 0.21537231D+00 0.12520022D+00 0.27032155D+05 0.27032155D+05 0.27032155D+05 0.11715568D+01  1  2  5  3  7  1       -2 0.273732991987D-05 0.100000000000D+01
  </mgrwgt>
  </event>
  <event>
  8     66 0.53686478E-06 0.55434774E+03 0.75467711E-02 0.89684601E-01
       -2 -1    0    0    0  501 0.00000000E+00 0.00000000E+00 0.37066171E+03 0.37066184E+03 0.32000000E+00 0.0000E+00 0.9000E+01
        2 -1    0    0  501    0 0.00000000E+00 0.00000000E+00 -.20684424E+04 0.20684424E+04 0.32000000E+00 0.0000E+00 0.9000E+01
       25  2    1    2    0    0 -.75424193E+02 -.51110916E+03 -.18071500E+04 0.19033517E+04 0.30005909E+03 0.0000E+00 0.0000E+00
       23  2    1    2    0    0 0.75424193E+02 0.51110916E+03 0.10936924E+03 0.53575257E+03 0.90265175E+02 0.0000E+00 0.0000E+00
       23  1    3    3    0    0 -.12233397E+03 -.43909566E+03 -.15328620E+04 0.16017965E+04 0.91188000E+02 0.0000E+00 0.9000E+01
      -11  1    4    4    0    0 0.32725476E+02 0.10001360E+03 -.95869177E+01 0.10566733E+03 0.51099893E-03 0.0000E+00 0.9000E+01
       11  1    4    4    0    0 0.42698717E+02 0.41109556E+03 0.11895615E+03 0.43008523E+03 0.51099893E-03 0.0000E+00 0.9000E+01
       23  1    3    3    0    0 0.46909774E+02 -.72013496E+02 -.27428791E+03 0.30155527E+03 0.91188000E+02 0.0000E+00 0.9000E+01
#aMCatNLO 1  0  0  1  1 0.40078388D+03 0.00000000D+00  -5  7  0 0.00000000D+00 0.00000000D+00 0.00000000D+00 0.00000000D+00 0.00000000D+00
  <mgrwgt>
 0.3058326525D-03    3    2    0
 0.875609841265757D+03 0.000000000000000D+00 0.000000000000000D+00 0.875609841265757D+03
 0.875609841265757D+03 0.000000000000000D+00 0.000000000000000D+00 -.875609841265757D+03
 0.744900828803558D+03 -.122333966871995D+03 -.439095661282303D+03 -.582057895918135D+03
 0.137879422305813D+03 0.327254763216284D+02 0.100013595109703D+03 0.890901739146327D+02
 0.714350240547665D+03 0.426987168673845D+02 0.411095562531770D+03 0.582643565325383D+03
 0.154089190874478D+03 0.469097736829821D+02 -.720134963591708D+02 -.896758433218803D+02
 0.000000000000000D+00 0.000000000000000D+00 -.000000000000000D+00 -.000000000000000D+00
 0.939642435366929D+03 0.000000000000000D+00 0.000000000000000D+00 0.939642435366929D+03
 0.186835325270641D+04 0.000000000000000D+00 0.000000000000000D+00 -.186835325270641D+04
 0.735681726387853D+03 -.265083807732369D+03 -.351925463521004D+03 -.582057895918135D+03
 0.146981139279992D+03 0.526074651565456D+01 0.116784933797142D+03 0.890901739146327D+02
 0.773511956715629D+03 -.100752988096168D+03 0.498694353644255D+03 0.582643565325383D+03
 0.140321237303026D+03 0.185242968835881D+02 -.546799034722117D+02 -.896758433218803D+02
 0.101149962838684D+04 0.342051752429295D+03 -.208873920448181D+03 -.928710817339478D+03
0.129471144731D-03 0.000000000000D+00 0.000000000000D+00 0.444011916816D-05 0.000000000000D+00  7 -2 2 23 -11 11 23 21 0 0.57024890D-01 0.31822192D+00 0.30730142D+06 0.30730142D+06 0.30730142D+06 0.10837801D+01  1  2  2  1  7  1       -2 0.300004459737D-03 0.100000000000D+01
-.536533693489D-05 0.000000000000D+00 -.497203286302D-06 0.444011916816D-05 0.000000000000D+00  7 -2 2 23 -11 11 23 21 2 0.57024890D-01 0.31822192D+00 0.30730142D+06 0.30730142D+06 0.30730142D+06 0.10837801D+01  1  2  3  1  7  1       -2 -.146027295950D-04 0.100000000000D+01
0.750673234278D-05 0.000000000000D+00 0.000000000000D+00 0.444011916816D-05 0.000000000000D+00  7 -2 2 23 -11 11 23 21 2 0.57024890D-01 0.31822192D+00 0.30730142D+06 0.30730142D+06 0.30730142D+06 0.10837801D+01  1  2 15  1  7  1       -2 0.204309223957D-04 0.100000000000D+01
  </mgrwgt>
  </event>
  <event>
  8     66 0.53686478E-06 0.25607723E+03 0.75467711E-02 0.98085032E-01
       -2 -1    0    0    0  501 0.00000000E+00 0.00000000E+00 0.26884181E+03 0.26884200E+03 0.32000000E+00 0.0000E+00 0.9000E+01
        2 -1    0    0  501    0 0.00000000E+00 0.00000000E+00 -.31687695E+03 0.31687711E+03 0.32000000E+00 0.0000E+00 0.9000E+01
       25  2    1    2    0    0 -.18032982E+03 0.85543290E+02 0.34488467E+01 0.36052284E+03 0.30021380E+03 0.0000E+00 0.0000E+00
       23  2    1    2    0    0 0.18032982E+03 -.85543290E+02 -.51483987E+02 0.22519627E+03 0.90698724E+02 0.0000E+00 0.0000E+00
       23  1    3    3    0    0 -.62824070E+02 -.39781112E+02 0.89506212E+02 0.14783780E+03 0.91188000E+02 0.0000E+00 0.9000E+01
      -13  1    4    4    0    0 0.59732772E+01 -.47511577E+00 0.18120333E+02 0.19085686E+02 0.10565837E+00 0.0000E+00 0.9000E+01
       13  1    4    4    0    0 0.17435655E+03 -.85068174E+02 -.69604320E+02 0.20611058E+03 0.10565837E+00 0.0000E+00 0.9000E+01
       23  1    3    3    0    0 -.11750575E+03 0.12532440E+03 -.86057365E+02 0.21268505E+03 0.91188000E+02 0.0000E+00 0.9000E+01
#aMCatNLO 1  0  0  1  1 0.20029547D+03 0.00000000D+00  -5  7  0 0.00000000D+00 0.00000000D+00 0.00000000D+00 0.00000000D+00 0.00000000D+00
  <mgrwgt>
 0.2483428142D-03    4    2    0
 0.291873046985765D+03 0.000000000000000D+00 0.000000000000000D+00 0.291873046985765D+03
 0.291873046985765D+03 0.000000000000000D+00 0.000000000000000D+00 -.291873046985765D+03
 0.155702739458096D+03 -.628240702764043D+02 -.397811123384861D+02 0.101973972295748D+03
 0.206410297891510D+02 0.597304909066288D+01 -.475001227408473D+00 0.197521940338564D+02
 0.201079883311830D+03 0.174356774708407D+03 -.850682890968478D+02 -.528793038543072D+02
 0.206322441412453D+03 -.117505753522666D+03 0.125324402662742D+03 -.688468624752974D+02
 0.000000000000000D+00 -.000000000000000D+00 -.000000000000000D+00 -.000000000000000D+00
 0.399487732914841D+03 0.000000000000000D+00 0.000000000000000D+00 0.399487732914841D+03
 0.418899115557191D+03 0.000000000000000D+00 0.000000000000000D+00 -.418899115557191D+03
 0.140013588160606D+03 -.296493197751567D+02 -.328334230689823D+01 0.101973972295748D+03
 0.230801908175122D+02 0.108778867670805D+02 0.492113995983043D+01 0.197521940338564D+02
 0.231227594327557D+03 0.222854917594189D+03 -.317122264510181D+02 -.528793038543072D+02
 0.222831588089596D+03 -.693613782357763D+02 0.178291261824781D+03 -.688468624752974D+02
 0.201233887076760D+03 -.134722106350336D+03 -.148216833026695D+03 -.194113826423502D+02
0.507663743453D-05 0.000000000000D+00 0.000000000000D+00 0.394968369529D-06 0.000000000000D+00  7 -2 2 23 -13 13 23 21 0 0.41360305D-01 0.48750327D-01 0.65575548D+05 0.65575548D+05 0.65575548D+05 0.11370781D+01  1  2  2  1  7  1       -2 0.349708132969D-03 0.100000000000D+01
-.276165045956D-06 0.000000000000D+00 -.194956244579D-07 0.394968369529D-06 0.000000000000D+00  7 -2 2 23 -13 13 23 21 2 0.41360305D-01 0.48750327D-01 0.65575548D+05 0.65575548D+05 0.65575548D+05 0.11370781D+01  1  2  3  1  7  1       -2 -.245968148855D-04 0.100000000000D+01
0.328987028647D-06 0.000000000000D+00 0.000000000000D+00 0.394968369529D-06 0.000000000000D+00  7 -2 2 23 -13 13 23 21 2 0.41360305D-01 0.48750327D-01 0.65575548D+05 0.65575548D+05 0.65575548D+05 0.11370781D+01  1  2 15  1  7  1       -2 0.293014382588D-04 0.100000000000D+01
-.119091884809D-05 0.000000000000D+00 0.000000000000D+00 0.394968369529D-06 0.000000000000D+00  7 -2 2 23 -13 13 23 21 2 0.41360305D-01 0.48750327D-01 0.65575548D+05 0.65575548D+05 0.65575548D+05 0.11370781D+01  1  2  4  1  7  1       -2 -.106069942156D-03 0.100000000000D+01
  </mgrwgt>
  </event>
  <event>
  8     66 0.53686478E-06 0.11890287E+03 0.75467711E-02 0.10098486E+00
       -2 -1    0    0    0  501 0.00000000E+00 0.00000000E+00 0.30845314E+02 0.30846974E+02 0.32000000E+00 0.0000E+00 0.9000E+01
        2 -1    0    0  501    0 0.00000000E+00 0.00000000E+00 -.26627074E+04 0.26627074E+04 0.32000000E+00 0.0000E+00 0.9000E+01
       25  2    1    2    0    0 0.13392566E+03 -.72185279E+01 -.22909811E+04 0.23144764E+04 0.30036377E+03 0.0000E+00 0.0000E+00
       23  2    1    2    0    0 -.13392566E+03 0.72185279E+01 -.34088101E+03 0.37907802E+03 0.97529961E+02 0.0000E+00 0.0000E+00
       23  1    3    3    0    0 -.60334194E+02 0.15398755E+02 -.92287067E+03 0.92945299E+03 0.91188000E+02 0.0000E+00 0.9000E+01
      -13  1    4    4    0    0 -.12193585E+03 0.37563703E+02 -.22465273E+03 0.25835682E+03 0.10565837E+00 0.0000E+00 0.9000E+01
       13  1    4    4    0    0 -.11989807E+02 -.30345175E+02 -.11622827E+03 0.12072120E+03 0.10565837E+00 0.0000E+00 0.9000E+01
       23  1    3    3    0    0 0.19425986E+03 -.22617283E+02 -.13681104E+04 0.13850234E+04 0.91188000E+02 0.0000E+00 0.9000E+01
#aMCatNLO 1  0  0  1  2 0.91684317D+02 0.00000000D+00  -5  7  0 0.00000000D+00 0.00000000D+00 0.00000000D+00 0.00000000D+00 0.00000000D+00
  <mgrwgt>
 0.2525728627D-03    9    2    0
 0.286590835967272D+03 0.000000000000000D+00 0.000000000000000D+00 0.286590835967272D+03
 0.286590835967272D+03 0.000000000000000D+00 0.000000000000000D+00 -.286590835967272D+03
 0.130262120089706D+03 -.603341787357642D+02 0.153987546096863D+02 -.691059608066959D+02
 0.182565569345925D+03 -.121936001055043D+03 0.375637238526851D+02 0.130578579436389D+03
 0.336232080900188D+02 -.119897015190358D+02 -.303451937655750D+02 0.812012284875313D+01
 0.226730774408893D+03 0.194259881309843D+03 -.226172846967963D+02 -.695927414784467D+02
 0.000000000000000D+00 0.000000000000000D+00 -.000000000000000D+00 0.000000000000000D+00
 0.460173543833950D+03 0.000000000000000D+00 0.000000000000000D+00 0.460173543833950D+03
 0.302600249521346D+03 0.000000000000000D+00 0.000000000000000D+00 -.302600249521346D+03
 0.137878523191175D+03 -.684684475499180D+02 0.350952088534461D+02 -.691059608066959D+02
 0.197885093209611D+03 -.133477287455658D+03 0.655099873334646D+02 0.130578579436389D+03
 0.302963049119220D+02 -.139287529618375D+02 -.256499422448746D+02 0.812012284875313D+01
 0.214408202726723D+03 0.180877564550563D+03 0.978688041587156D+01 -.695927414784467D+02
 0.182305669315864D+03 0.349969234168502D+02 -.847421343579077D+02 0.157573294312604D+03
0.355340768653D-05 0.000000000000D+00 0.000000000000D+00 0.148439431391D-07 0.000000000000D+00  7 -2 2 23 -13 13 23 21 0 0.47455621D-02 0.40964742D+00 0.59152336D+05 0.59152336D+05 0.59152336D+05 0.11409290D+01  1  2  2  1  7  1       -2 0.256592166033D-03 0.100000000000D+01
-.190946422240D-06 0.000000000000D+00 -.136460211500D-07 0.148439431391D-07 0.000000000000D+00  7 -2 2 23 -13 13 23 21 2 0.47455621D-02 0.40964742D+00 0.59152336D+05 0.59152336D+05 0.59152336D+05 0.11409290D+01  1  2  3  1  7  1       -2 -.179484571566D-04 0.100000000000D+01
0.235606995748D-06 0.000000000000D+00 0.000000000000D+00 0.148439431391D-07 0.000000000000D+00  7 -2 2 23 -13 13 23 21 2 0.47455621D-02 0.40964742D+00 0.59152336D+05 0.59152336D+05 0.59152336D+05 0.11409290D+01  1  2 15  1  7  1       -2 0.221464325928D-04 0.100000000000D+01
0.526372355150D-05 0.000000000000D+00 0.000000000000D+00 0.148439431391D-07 0.000000000000D+00  7 -2 2 23 -13 13 23 21 2 0.76851631D-02 0.40964742D+00 0.87517907D+05 0.87517907D+05 0.87517907D+05 0.11265049D+01  1  2 12  1  7  1       -2 0.232161723492D-03 0.100000000000D+01
-.587149433613D-05 0.000000000000D+00 0.000000000000D+00 0.148439431391D-07 0.000000000000D+00  7 -2 2 23 -13 13 23 21 2 0.47455621D-02 0.40964742D+00 0.59152336D+05 0.59152336D+05 0.59152336D+05 0.11409290D+01  1  2  4  1  7  1       -2 -.551904891964D-03 0.100000000000D+01
-.637019532647D-05 0.000000000000D+00 -.125563927557D-05 0.148439431391D-07 0.000000000000D+00  7 -2 2 23 -13 13 23 21 2 0.81469341D-02 0.40964742D+00 0.59152336D+05 0.59152336D+05 0.59152336D+05 0.11409290D+01  1  2  5  1  7  1       -2 -.267272757107D-03 0.100000000000D+01
0.627354121656D-05 0.000000000000D+00 0.109221893983D-05 0.148439431391D-07 0.000000000000D+00  7 -2 2 23 -13 13 23 21 2 0.47455621D-02 0.40964742D+00 0.59152336D+05 0.59152336D+05 0.59152336D+05 0.11409290D+01  1  2  6  1  7  1       -2 0.589696232194D-03 0.100000000000D+01
0.288393016496D-06 0.000000000000D+00 0.000000000000D+00 0.148439431391D-07 0.000000000000D+00  7 21 2 23 -13 13 23 2 2 0.76851631D-02 0.40964742D+00 0.87517907D+05 0.87517907D+05 0.87517907D+05 0.11265049D+01  1  2 12  3  7  1       -2 0.194534001579D-03 0.100000000000D+01
-.320890325801D-06 0.000000000000D+00 -.753897149440D-07 0.148439431391D-07 0.000000000000D+00  7 21 2 23 -13 13 23 2 2 0.81469341D-02 0.40964742D+00 0.59152336D+05 0.59152336D+05 0.59152336D+05 0.11409290D+01  1  2  5  3  7  1       -2 -.205431586998D-03 0.100000000000D+01
  </mgrwgt>
  </event>
  <event>
  7     66 0.53686478E-06 0.31517522E+03 0.75467711E-02 0.98935914E-01
       -2 -1    0    0    0  501 0.00000000E+00 0.00000000E+00 0.52994708E+03 0.52994718E+03 0.32000000E+00 0.0000E+00 0.9000E+01
        2 -1    0    0  501    0 0.00000000E+00 0.00000000E+00 -.66823583E+03 0.66823591E+03 0.32000000E+00 0.0000E+00 0.9000E+01
       25  2    1    2    0    0 -.16071965E+03 -.12694621E+03 -.55549342E+03 0.66345448E+03 0.29942069E+03 0.0000E+00 0.0000E+00
       23  1    3    3    0    0 -.17547769E+03 -.11303298E+03 -.51205527E+03 0.56043262E+03 0.91188000E+02 0.0000E+00 0.9000E+01
      -13  1    1    2    0    0 0.18983957E+03 0.11603564E+02 0.14995823E+03 0.24220071E+03 0.10565837E+00 0.0000E+00 0.9000E+01
       13  1    1    2    0    0 -.29119922E+02 0.11534265E+03 0.26724644E+03 0.29252790E+03 0.10565837E+00 0.0000E+00 0.9000E+01
       23  1    3    3    0    0 0.14758040E+02 -.13913230E+02 -.43438154E+02 0.10302185E+03 0.91188000E+02 0.0000E+00 0.9000E+01
#aMCatNLO 1  0  0  2  2 0.67492080D+02 0.00000000D+00  -5  7  0 0.00000000D+00 0.00000000D+00 0.00000000D+00 0.00000000D+00 0.00000000D+00
  <mgrwgt>
 0.8510828873D-03    4    2    0
 0.595088004479726D+03 0.000000000000000D+00 0.000000000000000D+00 0.595088004479726D+03
 0.595088004479726D+03 0.000000000000000D+00 0.000000000000000D+00 -.595088004479726D+03
 0.504707285107281D+03 -.175477974771532D+03 -.113033211687989D+03 -.450383354179461D+03
 0.261253512225840D+03 0.189837799195148D+03 0.116044120322319D+02 0.179109869265950D+03
 0.325547371329312D+03 -.291178081767931D+02 0.115342074103658D+03 0.303033744272599D+03
 0.986678402970199D+02 0.147579837531771D+02 -.139132744479016D+02 -.317602593590880D+02
 0.000000000000000D+00 -.000000000000000D+00 -.000000000000000D+00 0.000000000000000D+00
 0.678825466061414D+03 0.000000000000000D+00 0.000000000000000D+00 0.678825466061414D+03
 0.609800721414660D+03 0.000000000000000D+00 0.000000000000000D+00 -.609800721414660D+03
 0.494035856933925D+03 -.156124086630028D+03 -.923919934000507D+02 -.450383354179461D+03
 0.269516642084402D+03 0.200123192669164D+03 0.225739417888510D+02 0.179109869265950D+03
 0.329712405166059D+03 -.164200244483368D+02 0.128884455034859D+03 0.303033744272599D+03
 0.988232272836342D+02 0.185850138172738D+02 -.983168823793889D+01 -.317602593590880D+02
 0.965380560080548D+02 -.461640954080729D+02 -.492347151857208D+02 0.690247446467541D+02
0.161670884151D-03 0.000000000000D+00 0.000000000000D+00 0.138000416361D-09 0.000000000000D+00  7 -2 2 23 -13 13 23 21 0 0.81530333D-01 0.10280553D+00 0.99335422D+05 0.99335422D+05 0.99335422D+05 0.11219598D+01  1  2  2  2  7  2        2 0.121021837560D-02 0.100000000000D+01
-.457025921590D-05 0.000000000000D+00 -.620858764061D-06 0.138000416361D-09 0.000000000000D+00  7 -2 2 23 -13 13 23 21 2 0.81530333D-01 0.10280553D+00 0.99335422D+05 0.99335422D+05 0.99335422D+05 0.11219598D+01  1  2  3  2  7  2        2 -.430652848901D-04 0.100000000000D+01
0.947921317577D-05 0.000000000000D+00 0.000000000000D+00 0.138000416361D-09 0.000000000000D+00  7 -2 2 23 -13 13 23 21 2 0.81530333D-01 0.10280553D+00 0.99335422D+05 0.99335422D+05 0.99335422D+05 0.11219598D+01  1  2 15  2  7  2        2 0.893220705137D-04 0.100000000000D+01
-.430218395359D-04 0.000000000000D+00 0.000000000000D+00 0.138000416361D-09 0.000000000000D+00  7 -2 2 23 -13 13 23 21 2 0.81530333D-01 0.10280553D+00 0.99335422D+05 0.99335422D+05 0.99335422D+05 0.11219598D+01  1  2  4  2  7  2        2 -.405392273957D-03 0.100000000000D+01
  </mgrwgt>
  </event>
  <event>
  8     66 0.53686478E-06 0.16588580E+03 0.75467711E-02 0.10104316E+00
       -2 -1    0    0    0  501 0.00000000E+00 0.00000000E+00 0.35864910E+02 0.35866337E+02 0.32000000E+00 0.0000E+00 0.9000E+01
        2 -1    0    0  501    0 0.00000000E+00 0.00000000E+00 -.26611165E+04 0.26611165E+04 0.32000000E+00 0.0000E+00 0.9000E+01
       25  2    1    2    0    0 -.22230240E+03 0.10007478E+02 -.14820659E+04 0.15285378E+04 0.30064890E+03 0.0000E+00 0.0000E+00
       23  2    1    2    0    0 0.22230240E+03 -.10007478E+02 -.11431856E+04 0.11684451E+04 0.94191189E+02 0.0000E+00 0.0000E+00
       23  1    3    3    0    0 -.23314713E+03 0.48467968E+01 -.13071312E+04 0.13308975E+04 0.91188000E+02 0.0000E+00 0.9000E+01
      -11  1    4    4    0    0 0.16963624E+03 -.45852086E+02 -.76428077E+03 0.78422188E+03 0.51099893E-03 0.0000E+00 0.9000E+01
       11  1    4    4    0    0 0.52666157E+02 0.35844608E+02 -.37890486E+03 0.38422318E+03 0.51099893E-03 0.0000E+00 0.9000E+01
       23  1    3    3    0    0 0.10844726E+02 0.51606812E+01 -.17493474E+03 0.19764022E+03 0.91188000E+02 0.0000E+00 0.9000E+01
#aMCatNLO 1  0  0  2  1 0.72052628D+01 0.00000000D+00  -5  7  0 0.00000000D+00 0.00000000D+00 0.00000000D+00 0.00000000D+00 0.00000000D+00
  <mgrwgt>
 0.2804855725D-03   11    2    0
 0.308937944142338D+03 0.000000000000000D+00 0.000000000000000D+00 0.308937944142338D+03
 0.308937944142338D+03 0.000000000000000D+00 0.000000000000000D+00 -.308937944142338D+03
 0.255487595079122D+03 -.233147126005273D+03 0.484679684074696D+01 -.507699329444048D+02
 0.175769394718624D+03 0.169636242984321D+03 -.458520857306079D+02 -.400142725398308D+01
 0.672024060464730D+02 0.526661569466306D+02 0.358446077226669D+02 -.213916663239693D+02
 0.119416492440457D+03 0.108447260743217D+02 0.516068116719406D+01 0.761630265223572D+02
 0.000000000000000D+00 0.000000000000000D+00 0.000000000000000D+00 -.000000000000000D+00
 0.311058068937197D+03 0.000000000000000D+00 0.000000000000000D+00 0.311058068937197D+03
 0.315141994806196D+03 0.000000000000000D+00 0.000000000000000D+00 -.315141994806196D+03
 0.257814875767330D+03 -.235721543750889D+03 0.332062395376858D+01 -.507699329444048D+02
 0.174352368095951D+03 0.167880241931316D+03 -.468930827487355D+02 -.400142725398308D+01
 0.664655167682601D+02 0.519957587076616D+02 0.354471805306213D+02 -.213916663239693D+02
 0.119285137746722D+03 0.964754167026463D+01 0.445096325863136D+01 0.761630265223572D+02
 0.828216536512952D+01 0.619800144164669D+01 0.367431500571423D+01 -.408392586899906D+01
0.114108590706D-05 0.000000000000D+00 0.000000000000D+00 0.144595033896D-07 0.000000000000D+00  7 -2 2 23 -11 11 23 21 0 0.55177897D-02 0.40940264D+00 0.84622377D+05 0.84622377D+05 0.84622377D+05 0.11277217D+01  1  2  2  2  7  2        2 0.654183158341D-04 0.100000000000D+01
-.631146690678D-07 0.000000000000D+00 -.438207033793D-08 0.144595033896D-07 0.000000000000D+00  7 -2 2 23 -11 11 23 21 2 0.55177897D-02 0.40940264D+00 0.84622377D+05 0.84622377D+05 0.84622377D+05 0.11277217D+01  1  2  3  2  7  2        2 -.460166747612D-05 0.100000000000D+01
0.734988940387D-07 0.000000000000D+00 0.000000000000D+00 0.144595033896D-07 0.000000000000D+00  7 -2 2 23 -11 11 23 21 2 0.55177897D-02 0.40940264D+00 0.84622377D+05 0.84622377D+05 0.84622377D+05 0.11277217D+01  1  2 15  2  7  2        2 0.535877752707D-05 0.100000000000D+01
0.107274647258D-05 0.000000000000D+00 0.000000000000D+00 0.144595033896D-07 0.000000000000D+00  7 -2 2 23 -11 11 23 21 2 0.55177897D-02 0.41900983D+00 0.86733830D+05 0.86733830D+05 0.86733830D+05 0.11268300D+01  1  2 12  2  7  2        2 0.717364783464D-04 0.100000000000D+01
-.132876460339D-05 0.000000000000D+00 0.000000000000D+00 0.144595033896D-07 0.000000000000D+00  7 -2 2 23 -11 11 23 21 2 0.55177897D-02 0.40940264D+00 0.84622377D+05 0.84622377D+05 0.84622377D+05 0.11277217D+01  1  2  4  2  7  2        2 -.968797420496D-04 0.100000000000D+01
-.381442614521D-04 0.000000000000D+00 -.435652845661D-05 0.144595033896D-07 0.000000000000D+00  7 -2 2 23 -11 11 23 21 2 0.55177897D-02 0.41859114D+00 0.84622377D+05 0.84622377D+05 0.84622377D+05 0.11277217D+01  1  2  5  2  7  2        2 -.256601063613D-02 0.100000000000D+01
0.382326118197D-04 0.000000000000D+00 0.435545557606D-05 0.144595033896D-07 0.000000000000D+00  7 -2 2 23 -11 11 23 21 2 0.55177897D-02 0.40940264D+00 0.84622377D+05 0.84622377D+05 0.84622377D+05 0.11277217D+01  1  2  6  2  7  2        2 0.278752576757D-02 0.100000000000D+01
0.278909700677D-06 0.000000000000D+00 0.000000000000D+00 0.144595033896D-07 0.188701646722D-08  7 -2 2 23 -11 11 23 21 2 0.55556563D-02 0.41762421D+00 0.86733830D+05 0.86733830D+05 0.86733830D+05 0.11268300D+01  1  2 11  2  7  2        2 0.186885004744D-04 0.100000000000D+01
0.396544209258D-07 0.000000000000D+00 0.000000000000D+00 0.144595033896D-07 0.000000000000D+00  7 -2 21 23 -11 11 23 -2 2 0.55177897D-02 0.41900983D+00 0.86733830D+05 0.86733830D+05 0.86733830D+05 0.11268300D+01  1  2 12  4  7  2        2 0.262015793781D-06 0.100000000000D+01
-.152805234394D-06 0.000000000000D+00 -.175415667436D-07 0.144595033896D-07 0.000000000000D+00  7 -2 21 23 -11 11 23 -2 2 0.55177897D-02 0.41859114D+00 0.84622377D+05 0.84622377D+05 0.84622377D+05 0.11277217D+01  1  2  5  4  7  2        2 -.102033275579D-05 0.100000000000D+01
0.121070511819D-08 0.000000000000D+00 0.000000000000D+00 0.144595033896D-07 0.681627483232D-11  7 -2 21 23 -11 11 23 -2 2 0.55556563D-02 0.41762421D+00 0.86733830D+05 0.86733830D+05 0.86733830D+05 0.11268300D+01  1  2 11  4  7  2        2 0.809532733199D-08 0.100000000000D+01
  </mgrwgt>
  </event>
  <event>
  8     66 0.53686478E-06 0.30911232E+03 0.75467711E-02 0.93147372E-01
       -2 -1    0    0    0  501 0.00000000E+00 0.00000000E+00 0.13263776E+03 0.13263815E+03 0.32000000E+00 0.0000E+00 0.9000E+01
        2 -1    0    0  501    0 0.00000000E+00 0.00000000E+00 -.17224153E+04 0.17224153E+04 0.32000000E+00 0.0000E+00 0.9000E+01
       25  2    1    2    0    0 0.13051515E+03 -.37763156E+03 -.11429747E+04 0.12473010E+04 0.29954747E+03 0.0000E+00 0.0000E+00
       23  2    1    2    0    0 -.13051515E+03 0.37763156E+03 -.44680280E+03 0.60775250E+03 0.10045177E+03 0.0000E+00 0.0000E+00
       23  1    3    3    0    0 0.14270837E+03 -.14633886E+03 -.34361825E+03 0.41008474E+03 0.91188000E+02 0.0000E+00 0.9000E+01
      -13  1    4    4    0    0 -.15483202E+02 0.31055281E+02 -.93152974E+02 0.99406477E+02 0.10565837E+00 0.0000E+00 0.9000E+01
       13  1    4    4    0    0 -.11503195E+03 0.34657628E+03 -.35364983E+03 0.50834602E+03 0.10565837E+00 0.0000E+00 0.9000E+01
       23  1    3    3    0    0 -.12193219E+02 -.23129270E+03 -.79935650E+03 0.83721625E+03 0.91188000E+02 0.0000E+00 0.9000E+01
#aMCatNLO 1  0  0  2  1 0.24045669D+03 0.00000000D+00  -5  7  0 0.00000000D+00 0.00000000D+00 0.00000000D+00 0.00000000D+00 0.00000000D+00
  <mgrwgt>
 0.3089721009D-03    7    2    0
 0.477972487286199D+03 0.000000000000000D+00 0.000000000000000D+00 0.477972487286199D+03
 0.477972487286199D+03 0.000000000000000D+00 0.000000000000000D+00 -.477972487286199D+03
 0.224335666286155D+03 0.142708373415740D+03 -.146338862992490D+03 0.151821328920506D+02
 0.379848666715353D+02 -.154830907285614D+02 0.310549324004698D+02 -.154504100640630D+02
 0.398333477831955D+03 -.115032063937770D+03 0.346576629042199D+03 0.159128325667254D+03
 0.295290963782752D+03 -.121932187494095D+02 -.231292698450178D+03 -.158860048495242D+03
 0.000000000000000D+00 -.000000000000000D+00 -.000000000000000D+00 -.000000000000000D+00
 0.522163205708559D+03 0.000000000000000D+00 0.000000000000000D+00 0.522163205708559D+03
 0.986174241852093D+03 0.000000000000000D+00 0.000000000000000D+00 -.986174241852093D+03
 0.254084954503866D+03 0.199054831403570D+03 -.128025738416055D+03 0.151821328920506D+02
 0.378787290201859D+02 -.654818131685896D+01 0.339588613248223D+02 -.154504100640630D+02
 0.410169708668904D+03 -.198098079322287D+02 0.377524750697962D+03 0.159128325667254D+03
 0.283589800342657D+03 0.559850311803132D+02 -.209134131098242D+03 -.158860048495242D+03
 0.522614255025038D+03 -.228681873334796D+03 -.743237425084874D+02 -.464011036143534D+03
0.132880374658D-04 0.000000000000D+00 0.000000000000D+00 0.190715720015D-07 0.000000000000D+00  7 -2 2 23 -13 13 23 21 0 0.20405842D-01 0.26498700D+00 0.19036128D+06 0.19036128D+06 0.19036128D+06 0.10994767D+01  1  2  2  2  7  2        2 0.318800149359D-03 0.100000000000D+01
-.730756554284D-06 0.000000000000D+00 -.510295626894D-07 0.190715720015D-07 0.000000000000D+00  7 -2 2 23 -13 13 23 21 2 0.20405842D-01 0.26498700D+00 0.19036128D+06 0.19036128D+06 0.19036128D+06 0.10994767D+01  1  2  3  2  7  2        2 -.211934892567D-04 0.100000000000D+01
0.852610217387D-06 0.000000000000D+00 0.000000000000D+00 0.190715720015D-07 0.000000000000D+00  7 -2 2 23 -13 13 23 21 2 0.20405842D-01 0.26498700D+00 0.19036128D+06 0.19036128D+06 0.19036128D+06 0.10994767D+01  1  2 15  2  7  2        2 0.247275038129D-04 0.100000000000D+01
0.847043565548D-05 0.000000000000D+00 0.000000000000D+00 0.190715720015D-07 0.000000000000D+00  7 -2 2 23 -13 13 23 21 2 0.20405842D-01 0.54647634D+00 0.32583241D+06 0.32583241D+06 0.32583241D+06 0.10819078D+01  1  2 12  2  7  2        2 0.182639966740D-04 0.100000000000D+01
-.150542181903D-04 0.000000000000D+00 -.340918952435D-05 0.190715720015D-07 0.000000000000D+00  7 -2 2 23 -13 13 23 21 2 0.20405842D-01 0.55536730D+00 0.19036128D+06 0.19036128D+06 0.19036128D+06 0.10994767D+01  1  2  5  2  7  2        2 -.316082918667D-04 0.100000000000D+01
0.662950482732D-06 0.000000000000D+00 0.000000000000D+00 0.190715720015D-07 0.000000000000D+00  7 -2 21 23 -13 13 23 -2 2 0.20405842D-01 0.54647634D+00 0.32583241D+06 0.32583241D+06 0.32583241D+06 0.10819078D+01  1  2 12  4  7  2        2 0.467587102138D-07 0.100000000000D+01
-.993764760809D-06 0.000000000000D+00 -.272814731314D-06 0.190715720015D-07 0.000000000000D+00  7 -2 21 23 -13 13 23 -2 2 0.20405842D-01 0.55536730D+00 0.19036128D+06 0.19036128D+06 0.19036128D+06 0.10994767D+01  1  2  5  4  7  2        2 -.645265298672D-07 0.100000000000D+01
  </mgrwgt>
  </event>
  <event>
  8     66 0.53686478E-06 0.90955258E+02 0.75467711E-02 0.10722478E+00
       -2 -1    0    0    0  501 0.00000000E+00 0.00000000E+00 0.12994256E+04 0.12994256E+04 0.32000000E+00 0.0000E+00 0.9000E+01
        2 -1    0    0  501    0 0.00000000E+00 0.00000000E+00 -.61733119E+02 0.61733948E+02 0.32000000E+00 0.0000E+00 0.9000E+01
       25  2    1    2    0    0 0.61977296E+01 -.10903601E+02 0.12248024E+04 0.12611748E+04 0.30043881E+03 0.0000E+00 0.0000E+00
       23  2    1    2    0    0 -.61977296E+01 0.10903601E+02 0.12890054E+02 0.99984832E+02 0.98354018E+02 0.0000E+00 0.0000E+00
       23  1    3    3    0    0 -.25762313E+02 -.86553881E+02 0.96897079E+03 0.97743282E+03 0.91188000E+02 0.0000E+00 0.9000E+01
      -13  1    4    4    0    0 0.39957017E+02 0.54856369E+00 0.29694949E+02 0.49786196E+02 0.10565837E+00 0.0000E+00 0.9000E+01
       13  1    4    4    0    0 -.46154747E+02 0.10355037E+02 -.16804894E+02 0.50198636E+02 0.10565837E+00 0.0000E+00 0.9000E+01
       23  1    3    3    0    0 0.31960043E+02 0.75650280E+02 0.25583164E+03 0.28374194E+03 0.91188000E+02 0.0000E+00 0.9000E+01
#aMCatNLO 1  0  0  1  2 0.36788480D+02 0.00000000D+00  -5  7  0 0.00000000D+00 0.00000000D+00 0.00000000D+00 0.00000000D+00 0.00000000D+00
  <mgrwgt>
 0.3314758456D-03    9    2    0
 0.283228152996744D+03 0.000000000000000D+00 0.000000000000000D+00 0.283228152996744D+03
 0.283228152996744D+03 0.000000000000000D+00 0.000000000000000D+00 -.283228152996744D+03
 0.231534537265217D+03 -.257623125075247D+02 -.865538806365731D+02 0.192711493179915D+03
 0.547503283808303D+02 0.399570842859234D+02 0.548554534325736D+00 -.374263137524820D+02
 0.157342612006499D+03 -.461548147533439D+02 0.103550475208913D+02 -.150063998410519D+03
 0.122828828340942D+03 0.319600429749451D+02 0.756502785813560D+02 -.522118101691424D+01
 0.000000000000000D+00 0.000000000000000D+00 -.000000000000000D+00 0.000000000000000D+00
 0.373049897286312D+03 0.000000000000000D+00 0.000000000000000D+00 0.373049897286312D+03
 0.287616905270168D+03 0.000000000000000D+00 0.000000000000000D+00 -.287616905270168D+03
 0.226990776610222D+03 -.294469882455005D+02 -.721437218456923D+02 0.192711493179915D+03
 0.542573256817155D+02 0.390811067858305D+02 0.397435798928921D+01 -.374263137524820D+02
 0.159068206709379D+03 -.486974688482761D+02 0.202989481145389D+02 -.150063998410519D+03
 0.127333353107321D+03 0.299497580623178D+02 0.835121711509817D+02 -.522118101691424D+01
 0.930171404478419D+02 0.911359224562834D+01 -.356417554091175D+02 0.854329920161445D+02
0.243785013532D-04 0.000000000000D+00 0.000000000000D+00 0.107819778852D-07 0.000000000000D+00  7 -2 2 23 -13 13 23 21 0 0.19991170D+00 0.94974698D-02 0.28614826D+05 0.28614826D+05 0.28614826D+05 0.11692455D+01  1  2  2  1  7  1       -2 0.283468882477D-03 0.100000000000D+01
-.916913487532D-06 0.000000000000D+00 -.936198642029D-07 0.107819778852D-07 0.000000000000D+00  7 -2 2 23 -13 13 23 21 2 0.19991170D+00 0.94974698D-02 0.28614826D+05 0.28614826D+05 0.28614826D+05 0.11692455D+01  1  2  3  1  7  1       -2 -.145759944291D-04 0.100000000000D+01
0.148883605784D-05 0.000000000000D+00 0.000000000000D+00 0.107819778852D-07 0.000000000000D+00  7 -2 2 23 -13 13 23 21 2 0.19991170D+00 0.94974698D-02 0.28614826D+05 0.28614826D+05 0.28614826D+05 0.11692455D+01  1  2 15  1  7  1       -2 0.236677357026D-04 0.100000000000D+01
0.101926232459D-03 0.000000000000D+00 0.000000000000D+00 0.107819778852D-07 0.000000000000D+00  7 -2 2 23 -13 13 23 21 2 0.26450831D+00 0.94974698D-02 0.35344456D+05 0.35344456D+05 0.35344456D+05 0.11607869D+01  1  2 12  1  7  1       -2 0.616376337049D-03 0.100000000000D+01
-.102417782737D-03 0.000000000000D+00 0.000000000000D+00 0.107819778852D-07 0.000000000000D+00  7 -2 2 23 -13 13 23 21 2 0.19991170D+00 0.94974698D-02 0.28614826D+05 0.28614826D+05 0.28614826D+05 0.11692455D+01  1  2  4  1  7  1       -2 -.162811546664D-02 0.100000000000D+01
-.110467432436D-03 0.000000000000D+00 -.106812821891D-04 0.107819778852D-07 0.000000000000D+00  7 -2 2 23 -13 13 23 21 2 0.26471331D+00 0.94974698D-02 0.28614826D+05 0.28614826D+05 0.28614826D+05 0.11692455D+01  1  2  5  1  7  1       -2 -.680185360919D-03 0.100000000000D+01
0.109528404859D-03 0.000000000000D+00 0.102736645451D-04 0.107819778852D-07 0.000000000000D+00  7 -2 2 23 -13 13 23 21 2 0.19991170D+00 0.94974698D-02 0.28614826D+05 0.28614826D+05 0.28614826D+05 0.11692455D+01  1  2  6  1  7  1       -2 0.174115163618D-02 0.100000000000D+01
0.374783866562D-05 0.000000000000D+00 0.000000000000D+00 0.107819778852D-07 0.000000000000D+00  7 21 2 23 -13 13 23 2 2 0.26450831D+00 0.94974698D-02 0.35344456D+05 0.35344456D+05 0.35344456D+05 0.11607869D+01  1  2 12  3  7  1       -2 0.182397934334D-03 0.100000000000D+01
-.385420818667D-05 0.000000000000D+00 -.393541422675D-06 0.107819778852D-07 0.000000000000D+00  7 21 2 23 -13 13 23 2 2 0.26471331D+00 0.94974698D-02 0.28614826D+05 0.28614826D+05 0.28614826D+05 0.11692455D+01  1  2  5  3  7  1       -2 -.192709858159D-03 0.100000000000D+01
  </mgrwgt>
  </event>
  <event>
  8     66 0.53686478E-06 0.22517227E+03 0.75467711E-02 0.10338396E+00
       -2 -1    0    0    0  501 0.00000000E+00 0.00000000E+00 0.21923318E+02 0.21925654E+02 0.32000000E+00 0.0000E+00 0.9000E+01
        2 -1    0    0  501    0 0.00000000E+00 0.00000000E+00 -.30794080E+04 0.30794080E+04 0.32000000E+00 0.0000E+00 0.9000E+01
       25  2    1    2    0    0 0.13282168E+03 0.58159726E+02 -.16842514E+04 0.17169756E+04 0.30046339E+03 0.0000E+00 0.0000E+00
       23  2    1    2    0    0 -.13282168E+03 -.58159726E+02 -.13732333E+04 0.13843581E+04 0.98252181E+02 0.0000E+00 0.0000E+00
       23  1    3    3    0    0 0.69254473E+02 -.91386019E+02 -.68337740E+03 0.69890451E+03 0.91188000E+02 0.0000E+00 0.9000E+01
      -13  1    4    4    0    0 0.71040080E+01 -.10751113E+02 -.25696657E+02 0.28746873E+02 0.10565837E+00 0.0000E+00 0.9000E+01
       13  1    4    4    0    0 -.13992569E+03 -.47408613E+02 -.13475366E+04 0.13556112E+04 0.10565837E+00 0.0000E+00 0.9000E+01
       23  1    3    3    0    0 0.63567212E+02 0.14954575E+03 -.10008740E+04 0.10180711E+04 0.91188000E+02 0.0000E+00 0.9000E+01
#aMCatNLO 1  0  0  2  2 0.29482089D+00 0.00000000D+00  -5  7  0 0.00000000D+00 0.00000000D+00 0.00000000D+00 0.00000000D+00 0.00000000D+00
  <mgrwgt>
 0.7189483087D-03    9    2    0
 0.259835504514480D+03 0.000000000000000D+00 0.000000000000000D+00 0.259835504514480D+03
 0.259835504514480D+03 0.000000000000000D+00 0.000000000000000D+00 -.259835504514480D+03
 0.150326158932727D+03 0.692544918863115D+02 -.913860072588197D+02 0.336914788385323D+02
 0.203713644720372D+02 0.710414777390613D+01 -.107510675774571D+02 0.157777729988752D+02
 0.161891235730684D+03 -.139925875699447D+03 -.474086777249189D+02 -.661962143368166D+02
 0.187082249893511D+03 0.635672360392292D+02 0.149545752561196D+03 0.167269624994091D+02
 0.000000000000000D+00 -.000000000000000D+00 0.000000000000000D+00 -.000000000000000D+00
 0.259924479519082D+03 0.000000000000000D+00 0.000000000000000D+00 0.259924479519082D+03
 0.260079885251025D+03 0.000000000000000D+00 0.000000000000000D+00 -.260079885251025D+03
 0.150384182626587D+03 0.693312112195015D+02 -.914232926817683D+02 0.336914788385323D+02
 0.203776587455463D+02 0.711454395074922D+01 -.107561200959622D+02 0.157777729988752D+02
 0.161831620548877D+03 -.139843285251964D+03 -.474488164961761D+02 -.661962143368166D+02
 0.187077630737160D+03 0.636626943344098D+02 0.149499360044971D+03 0.167269624994091D+02
 0.333272111937218D+00 -.265164252696472D+00 0.128869228935558D+00 -.155405731942455D+00
0.163723351671D-05 0.000000000000D+00 0.000000000000D+00 0.683462662470D-08 0.000000000000D+00  7 -2 2 23 -13 13 23 21 0 0.33729991D-02 0.47375526D+00 0.60875757D+05 0.60875757D+05 0.60875757D+05 0.11398521D+01  1  2  2  2  7  2        2 0.109774026491D-03 0.100000000000D+01
-.906612068425D-07 0.000000000000D+00 -.628740779765D-08 0.683462662470D-08 0.000000000000D+00  7 -2 2 23 -13 13 23 21 2 0.33729991D-02 0.47375526D+00 0.60875757D+05 0.60875757D+05 0.60875757D+05 0.11398521D+01  1  2  3  2  7  2        2 -.789782494728D-05 0.100000000000D+01
0.103573957218D-06 0.000000000000D+00 0.000000000000D+00 0.683462662470D-08 0.000000000000D+00  7 -2 2 23 -13 13 23 21 2 0.33729991D-02 0.47375526D+00 0.60875757D+05 0.60875757D+05 0.60875757D+05 0.11398521D+01  1  2 15  2  7  2        2 0.902270123789D-05 0.100000000000D+01
-.245556127542D-03 0.000000000000D+00 0.000000000000D+00 0.683462662470D-08 0.000000000000D+00  7 -2 2 23 -13 13 23 21 2 0.33729991D-02 0.47375526D+00 0.60875757D+05 0.60875757D+05 0.60875757D+05 0.11398521D+01  1  2  4  2  7  2        2 -.213912805444D-01 0.100000000000D+01
-.173586809936D-02 0.000000000000D+00 -.117231292432D-03 0.683462662470D-08 0.000000000000D+00  7 -2 2 23 -13 13 23 21 2 0.33729991D-02 0.47424973D+00 0.60875757D+05 0.60875757D+05 0.60875757D+05 0.11398521D+01  1  2  5  2  7  2        2 -.150516047499D+00 0.100000000000D+01
0.173598951199D-02 0.000000000000D+00 0.117231228645D-03 0.683462662470D-08 0.000000000000D+00  7 -2 2 23 -13 13 23 21 2 0.33729991D-02 0.47375526D+00 0.60875757D+05 0.60875757D+05 0.60875757D+05 0.11398521D+01  1  2  6  2  7  2        2 0.151228312015D+00 0.100000000000D+01
0.245556311978D-03 0.000000000000D+00 0.000000000000D+00 0.683462662470D-08 0.544829164656D-06  7 -2 2 23 -13 13 23 21 2 0.33741541D-02 0.47420084D+00 0.60948402D+05 0.60948402D+05 0.60948402D+05 0.11398075D+01  1  2 11  2  7  2        2 0.212887187065D-01 0.100000000000D+01
-.338951058889D-06 0.000000000000D+00 -.228941771492D-07 0.683462662470D-08 0.000000000000D+00  7 -2 21 23 -13 13 23 -2 2 0.33729991D-02 0.47424973D+00 0.60875757D+05 0.60875757D+05 0.60875757D+05 0.11398521D+01  1  2  5  4  7  2        2 -.195777985424D-05 0.100000000000D+01
0.527111700840D-07 0.000000000000D+00 0.000000000000D+00 0.683462662470D-08 0.958802034757D-10  7 -2 21 23 -13 13 23 -2 2 0.33741541D-02 0.47420084D+00 0.60948402D+05 0.60948402D+05 0.60948402D+05 0.11398075D+01  1  2 11  4  7  2        2 0.304507619740D-06 0.100000000000D+01
  </mgrwgt>
  </event>
  <event>
  8     66 0.53686478E-06 0.56835771E+03 0.75467711E-02 0.86978302E-01
       -2 -1    0    0    0  501 0.00000000E+00 0.00000000E+00 0.15460079E+03 0.15460112E+03 0.32000000E+00 0.0000E+00 0.9000E+01
        2 -1    0    0  501    0 0.00000000E+00 0.00000000E+00 -.23944605E+04 0.23944605E+04 0.32000000E+00 0.0000E+00 0.9000E+01
       25  2    1    2    0    0 0.48977318E+03 0.19213561E+03 -.16277576E+04 0.17367803E+04 0.30002883E+03 0.0000E+00 0.0000E+00
       23  2    1    2    0    0 -.48977318E+03 -.19213561E+03 -.61210213E+03 0.81228131E+03 0.91312905E+02 0.0000E+00 0.0000E+00
       23  1    3    3    0    0 0.25433422E+03 0.22425820E+03 -.94594525E+03 0.10090120E+04 0.91188000E+02 0.0000E+00 0.9000E+01
      -13  1    4    4    0    0 -.47670256E+03 -.19868226E+03 -.60657803E+03 0.79665356E+03 0.10565837E+00 0.0000E+00 0.9000E+01
       13  1    4    4    0    0 -.13070625E+02 0.65466468E+01 -.55240923E+01 0.15627751E+02 0.10565837E+00 0.0000E+00 0.9000E+01
       23  1    3    3    0    0 0.23543897E+03 -.32122594E+02 -.68181235E+03 0.72776830E+03 0.91188000E+02 0.0000E+00 0.9000E+01
#aMCatNLO 1  0  0  2  1 0.73246785D+03 0.00000000D+00  -5  7  0 0.00000000D+00 0.00000000D+00 0.00000000D+00 0.00000000D+00 0.00000000D+00
  <mgrwgt>
 0.3518259498D-03    3    2    0
 0.608429063908391D+03 0.000000000000000D+00 0.000000000000000D+00 0.608429063908391D+03
 0.608429063908391D+03 0.000000000000000D+00 0.000000000000000D+00 -.608429063908391D+03
 0.372475002664738D+03 0.254334215355936D+03 0.224258204539831D+03 -.124276871790162D+03
 0.552299538315511D+03 -.476703176678505D+03 -.198682531724639D+03 0.195739911504111D+03
 0.225679920589000D+02 -.130700044208234D+02 0.654692159958385D+01 0.171938089898409D+02
 0.269515594777633D+03 0.235438965743392D+03 -.321225944147759D+02 -.886568487037901D+02
 0.000000000000000D+00 0.000000000000000D+00 -.000000000000000D+00 0.000000000000000D+00
 0.119796299404156D+04 0.000000000000000D+00 0.000000000000000D+00 0.119796299404156D+04
 0.985106572687559D+03 0.000000000000000D+00 0.000000000000000D+00 -.985106572687559D+03
 0.479980100079029D+03 0.140993751996752D+03 0.432136166229818D+03 -.124276871790162D+03
 0.676994856294887D+03 -.640147322700433D+03 0.101090690637487D+03 0.195739911504111D+03
 0.335670524570681D+02 -.205335904040029D+02 0.202358989965128D+02 0.171938089898409D+02
 0.229758258922796D+03 0.169056666265807D+03 0.896293086453278D+02 -.886568487037901D+02
 0.762769298975335D+03 0.350630494841877D+03 -.643092064509145D+03 0.212856421353996D+03
0.451598022631D-04 0.000000000000D+00 0.000000000000D+00 0.339046498262D-05 0.000000000000D+00  7 -2 2 23 -13 13 23 21 0 0.23784763D-01 0.36837857D+00 0.32303048D+06 0.32303048D+06 0.32303048D+06 0.10821833D+01  1  2  2  2  7  2        2 0.348914265509D-03 0.100000000000D+01
-.249471900664D-05 0.000000000000D+00 -.173425531539D-06 0.339046498262D-05 0.000000000000D+00  7 -2 2 23 -13 13 23 21 2 0.23784763D-01 0.36837857D+00 0.32303048D+06 0.32303048D+06 0.32303048D+06 0.10821833D+01  1  2  3  2  7  2        2 -.225730362599D-04 0.100000000000D+01
0.281651152016D-05 0.000000000000D+00 0.000000000000D+00 0.339046498262D-05 0.000000000000D+00  7 -2 2 23 -13 13 23 21 2 0.23784763D-01 0.36837857D+00 0.32303048D+06 0.32303048D+06 0.32303048D+06 0.10821833D+01  1  2 15  2  7  2        2 0.254847205244D-04 0.100000000000D+01
  </mgrwgt>
  </event>
  <event>
  7     66 0.53686478E-06 0.31296217E+03 0.75467711E-02 0.94167221E-01
       -2 -1    0    0    0  501 0.00000000E+00 0.00000000E+00 0.75328561E+02 0.75329241E+02 0.32000000E+00 0.0000E+00 0.9000E+01
        2 -1    0    0  501    0 0.00000000E+00 0.00000000E+00 -.32772002E+04 0.32772002E+04 0.32000000E+00 0.0000E+00 0.9000E+01
       25  2    1    2    0    0 0.20052797E+03 0.16068308E+03 -.29300305E+04 0.29568616E+04 0.30318551E+03 0.0000E+00 0.0000E+00
       23  1    3    3    0    0 0.16649884E+03 0.15673170E+03 -.26281451E+04 0.26396493E+04 0.91188000E+02 0.0000E+00 0.9000E+01
      -13  1    1    2    0    0 0.11879308E+02 0.50656542E+01 -.33677348E+02 0.36068736E+02 0.10565837E+00 0.0000E+00 0.9000E+01
       13  1    1    2    0    0 -.21240728E+03 -.16574873E+03 -.23816377E+03 0.35959906E+03 0.10565837E+00 0.0000E+00 0.9000E+01
       23  1    3    3    0    0 0.34029137E+02 0.39513831E+01 -.30188541E+03 0.31721231E+03 0.91188000E+02 0.0000E+00 0.9000E+01
#aMCatNLO 1  0  0  1  1 0.33441354D+03 0.00000000D+00  -5  7  0 0.00000000D+00 0.00000000D+00 0.00000000D+00 0.00000000D+00 0.00000000D+00
  <mgrwgt>
 0.6369699344D-04    5    2    0
 0.496858067724285D+03 0.000000000000000D+00 0.000000000000000D+00 0.496858067724285D+03
 0.496858067724285D+03 0.000000000000000D+00 0.000000000000000D+00 -.496858067724285D+03
 0.437266636385319D+03 0.166498849083815D+03 0.156731706949761D+03 -.361386448614375D+03
 0.131734161547532D+02 0.118794284048736D+02 0.506575237222062D+01 0.259927429547866D+01
 0.445798274061121D+03 -.212407418240977D+03 -.165748845927437D+03 0.355171099479954D+03
 0.974778088473766D+02 0.340291407522891D+02 0.395138660545543D+01 0.361607483894169D+01
 0.000000000000000D+00 -.000000000000000D+00 0.000000000000000D+00 0.000000000000000D+00
 0.192738745362668D+04 0.000000000000000D+00 0.000000000000000D+00 0.192738745362668D+04
 0.544163794266340D+03 0.000000000000000D+00 0.000000000000000D+00 -.544163794266340D+03
 0.462098201853469D+03 0.268463378817261D+03 0.504652930648288D+02 -.361386448614375D+03
 0.154371262426686D+02 0.151231181478312D+02 0.168521133858328D+01 0.259927429547866D+01
 0.461123063120995D+03 -.109586178495722D+03 -.272908114424971D+03 0.355171099479954D+03
 0.109818681919913D+03 0.575311593967721D+02 -.205421823536216D+02 0.361607483894169D+01
 0.142307417475598D+04 -.231531477866142D+03 0.241299792375181D+03 0.138322365936035D+04
0.420675063011D-04 0.000000000000D+00 0.000000000000D+00 0.110395904131D-09 0.000000000000D+00  7 -2 2 23 -13 13 23 21 0 0.11589063D-01 0.50418470D+00 0.97945317D+05 0.97945317D+05 0.97945317D+05 0.11224627D+01  1  2  2  1  7  1       -2 0.322286719661D-03 0.100000000000D+01
-.172998795423D-05 0.000000000000D+00 -.161550300825D-06 0.110395904131D-09 0.000000000000D+00  7 -2 2 23 -13 13 23 21 2 0.11589063D-01 0.50418470D+00 0.97945317D+05 0.97945317D+05 0.97945317D+05 0.11224627D+01  1  2  3  1  7  1       -2 -.166986956203D-04 0.100000000000D+01
0.224355283884D-05 0.000000000000D+00 0.000000000000D+00 0.110395904131D-09 0.000000000000D+00  7 -2 2 23 -13 13 23 21 2 0.11589063D-01 0.50418470D+00 0.97945317D+05 0.97945317D+05 0.97945317D+05 0.11224627D+01  1  2 15  1  7  1       -2 0.216558767778D-04 0.100000000000D+01
-.116377569768D-03 0.000000000000D+00 -.158928649595D-04 0.110395904131D-09 0.000000000000D+00  7 -2 2 23 -13 13 23 21 2 0.50153366D-01 0.50418470D+00 0.97945317D+05 0.97945317D+05 0.97945317D+05 0.11224627D+01  1  2  5  1  7  1       -2 -.907775912621D-04 0.100000000000D+01
-.205641002510D-04 0.000000000000D+00 -.280445049745D-05 0.110395904131D-09 0.000000000000D+00  7 21 2 23 -13 13 23 2 2 0.50153366D-01 0.50418470D+00 0.97945317D+05 0.97945317D+05 0.97945317D+05 0.11224627D+01  1  2  5  3  7  1       -2 -.172769316119D-03 0.100000000000D+01
  </mgrwgt>
  </event>
  <event>
  8     66 0.53686478E-06 0.41366849E+03 0.75467711E-02 0.89409416E-01
       -2 -1    0    0    0  501 0.00000000E+00 0.00000000E+00 0.25402829E+03 0.25402849E+03 0.32000000E+00 0.0000E+00 0.9000E+01
        2 -1    0    0  501    0 0.00000000E+00 0.00000000E+00 -.11309899E+04 0.11309899E+04 0.32000000E+00 0.0000E+00 0.9000E+01
       25  2    1    2    0    0 -.12195020E+03 -.36326057E+03 -.76353468E+02 0.49282868E+03 0.30036671E+03 0.0000E+00 0.0000E+00
       23  2    1    2    0    0 0.12195020E+03 0.36326057E+03 -.80060812E+03 0.89218973E+03 0.90548621E+02 0.0000E+00 0.0000E+00
       23  1    3    3    0    0 -.11576113E+03 -.29474747E+03 0.37368166E+02 0.33164490E+03 0.91188000E+02 0.0000E+00 0.9000E+01
      -11  1    4    4    0    0 0.48007447E+02 0.17021924E+03 -.47112331E+03 0.50322607E+03 0.51099893E-03 0.0000E+00 0.9000E+01
       11  1    4    4    0    0 0.73942751E+02 0.19304133E+03 -.32948481E+03 0.38896366E+03 0.51099893E-03 0.0000E+00 0.9000E+01
       23  1    3    3    0    0 -.61890722E+01 -.68513105E+02 -.11372163E+03 0.16118378E+03 0.91188000E+02 0.0000E+00 0.9000E+01
#aMCatNLO 1  0  0  2  2 0.65084450D+03 0.00000000D+00  -5  7  0 0.00000000D+00 0.00000000D+00 0.00000000D+00 0.00000000D+00 0.00000000D+00
  <mgrwgt>
 0.2387704115D-03    5    2    0
 0.536007080337202D+03 0.000000000000000D+00 0.000000000000000D+00 0.536007080337202D+03
 0.536007080337202D+03 0.000000000000000D+00 0.000000000000000D+00 -.536007080337202D+03
 0.459046860407977D+03 -.115761125405850D+03 -.294747466108985D+03 0.319581072301731D+03
 0.264754269453562D+03 0.480074470584462D+02 0.170219242502368D+03 -.197016541698254D+03
 0.232997201770283D+03 0.739427505117591D+02 0.193041328898183D+03 -.107495167411197D+03
 0.115215829042583D+03 -.618907216435533D+01 -.685131052915659D+02 -.150693631922806D+02
 0.000000000000000D+00 0.000000000000000D+00 0.000000000000000D+00 -.000000000000000D+00
 0.806204314059009D+03 0.000000000000000D+00 0.000000000000000D+00 0.806204314059009D+03
 0.121819802692175D+04 0.000000000000000D+00 0.000000000000000D+00 -.121819802692175D+04
 0.727992072423018D+03 -.200635218274208D+03 -.615849538102691D+03 0.319581072301731D+03
 0.202367435039531D+03 0.146079267635062D+02 0.438596572878882D+02 -.197016541698254D+03
 0.147796206020228D+03 0.467157622786174D+02 0.900341327049927D+02 -.107495167411197D+03
 0.175962669169462D+03 -.270085332746817D+02 -.147278861417962D+03 -.150693631922806D+02
 0.770283958328516D+03 0.166320062506766D+03 0.629234609527771D+03 -.411993712862738D+03
0.144483035604D-04 0.000000000000D+00 0.000000000000D+00 0.113159263011D-05 0.000000000000D+00  7 -2 2 23 -11 11 23 21 0 0.39081294D-01 0.17399846D+00 0.17112162D+06 0.17112162D+06 0.17112162D+06 0.11030650D+01  1  2  2  2  7  2        2 0.236387233982D-03 0.100000000000D+01
-.737174387148D-06 0.000000000000D+00 -.554852899976D-07 0.113159263011D-05 0.000000000000D+00  7 -2 2 23 -11 11 23 21 2 0.39081294D-01 0.17399846D+00 0.17112162D+06 0.17112162D+06 0.17112162D+06 0.11030650D+01  1  2  3  2  7  2        2 -.146750516893D-04 0.100000000000D+01
0.863126588014D-06 0.000000000000D+00 0.000000000000D+00 0.113159263011D-05 0.000000000000D+00  7 -2 2 23 -11 11 23 21 2 0.39081294D-01 0.17399846D+00 0.17112162D+06 0.17112162D+06 0.17112162D+06 0.11030650D+01  1  2 15  2  7  2        2 0.171824028539D-04 0.100000000000D+01
-.862239204026D-07 0.000000000000D+00 -.411450501925D-05 0.113159263011D-05 0.000000000000D+00  7 -2 2 23 -11 11 23 21 2 0.39081294D-01 0.45995420D+00 0.17112162D+06 0.17112162D+06 0.17112162D+06 0.11030650D+01  1  2  5  2  7  2        2 -.153418093028D-06 0.100000000000D+01
0.235130123525D-06 0.000000000000D+00 -.444440741500D-06 0.113159263011D-05 0.000000000000D+00  7 -2 21 23 -11 11 23 -2 2 0.39081294D-01 0.45995420D+00 0.17112162D+06 0.17112162D+06 0.17112162D+06 0.11030650D+01  1  2  5  4  7  2        2 0.292444643147D-07 0.100000000000D+01
  </mgrwgt>
  </event>
  <event>
  8     66 0.53686478E-06 0.24914407E+03 0.75467711E-02 0.97359528E-01
       -2 -1    0    0    0  501 0.00000000E+00 0.00000000E+00 0.10278954E+03 0.10279003E+03 0.32000000E+00 0.0000E+00 0.9000E+01
        2 -1    0    0  501    0 0.00000000E+00 0.00000000E+00 -.64855162E+03 0.64855170E+03 0.32000000E+00 0.0000E+00 0.9000E+01
       25  2    1    2    0    0 -.32923828E+02 -.14085027E+03 -.27540683E+03 0.43137496E+03 0.29885223E+03 0.0000E+00 0.0000E+00
       23  2    1    2    0    0 0.32923828E+02 0.14085027E+03 -.27035525E+03 0.31996678E+03 0.91454898E+02 0.0000E+00 0.0000E+00
       23  1    3    3    0    0 0.29714524E+02 0.49919162E+02 -.12040011E+03 0.16182185E+03 0.91188000E+02 0.0000E+00 0.9000E+01
      -11  1    4    4    0    0 0.32765118E+02 0.42487081E+01 -.70873342E+02 0.78196132E+02 0.51099893E-03 0.0000E+00 0.9000E+01
       11  1    4    4    0    0 0.15870998E+00 0.13660156E+03 -.19948191E+03 0.24177064E+03 0.51099893E-03 0.0000E+00 0.9000E+01
       23  1    3    3    0    0 -.62638352E+02 -.19076943E+03 -.15500672E+03 0.26955310E+03 0.91188000E+02 0.0000E+00 0.9000E+01
#aMCatNLO 1  0  0  1  2 0.23953977D+03 0.00000000D+00  -5  7  0 0.00000000D+00 0.00000000D+00 0.00000000D+00 0.00000000D+00 0.00000000D+00
  <mgrwgt>
 0.1735974466D-03    5    2    0
 0.258194764681775D+03 0.000000000000000D+00 0.000000000000000D+00 0.258194764681775D+03
 0.258194764681775D+03 0.000000000000000D+00 0.000000000000000D+00 -.258194764681775D+03
 0.108200682639727D+03 0.297145239627825D+02 0.499191621323885D+02 -.415459954369846D+01
 0.388699486608964D+02 0.327651177358797D+02 0.424870808953168D+01 -.204760457174867D+02
 0.140945365137402D+03 0.158709981385673D+00 0.136601559898614D+03 -.347215293171649D+02
 0.228373532925525D+03 -.626383516800479D+02 -.190769430120534D+03 0.593521745783501D+02
 0.000000000000000D+00 -.000000000000000D+00 0.000000000000000D+00 0.000000000000000D+00
 0.443343516762200D+03 0.000000000000000D+00 0.000000000000000D+00 0.443343516762200D+03
 0.374998430165539D+03 0.000000000000000D+00 0.000000000000000D+00 -.374998430165539D+03
 0.964443910451815D+02 0.307601382087885D+02 0.477728166257849D+01 -.415459954369846D+01
 0.412299712496019D+02 0.331743805432088D+02 -.134202293792900D+02 -.204760457174867D+02
 0.920241223491411D+02 0.134904508505744D+01 0.852117044388001D+02 -.347215293171649D+02
 0.339544385511768D+03 -.597366299068945D+02 -.316044289315203D+03 0.593521745783501D+02
 0.249099076772047D+03 -.554693393016032D+01 0.239475532593114D+03 0.683450865966607D+02
0.105673655836D-05 0.000000000000D+00 0.000000000000D+00 0.356548693349D-07 0.000000000000D+00  7 -2 2 23 -11 11 23 21 0 0.15813819D-01 0.99777216D-01 0.62072769D+05 0.62072769D+05 0.62072769D+05 0.11391238D+01  1  2  2  1  7  1       -2 0.171000314467D-03 0.100000000000D+01
-.586167009601D-07 0.000000000000D+00 -.405814662923D-08 0.356548693349D-07 0.000000000000D+00  7 -2 2 23 -11 11 23 21 2 0.15813819D-01 0.99777216D-01 0.62072769D+05 0.62072769D+05 0.62072769D+05 0.11391238D+01  1  2  3  1  7  1       -2 -.123081670045D-04 0.100000000000D+01
0.686791394733D-07 0.000000000000D+00 0.000000000000D+00 0.356548693349D-07 0.000000000000D+00  7 -2 2 23 -11 11 23 21 2 0.15813819D-01 0.99777216D-01 0.62072769D+05 0.62072769D+05 0.62072769D+05 0.11391238D+01  1  2 15  1  7  1       -2 0.144210490272D-04 0.100000000000D+01
-.103271493864D-06 0.000000000000D+00 -.323847777632D-06 0.356548693349D-07 0.000000000000D+00  7 -2 2 23 -11 11 23 21 2 0.38906652D-01 0.99777216D-01 0.62072769D+05 0.62072769D+05 0.62072769D+05 0.11391238D+01  1  2  5  1  7  1       -2 -.468802483011D-05 0.100000000000D+01
0.996031619405D-08 0.000000000000D+00 -.320135754082D-07 0.356548693349D-07 0.000000000000D+00  7 21 2 23 -11 11 23 2 2 0.38906652D-01 0.99777216D-01 0.62072769D+05 0.62072769D+05 0.62072769D+05 0.11391238D+01  1  2  5  3  7  1       -2 0.517227497805D-05 0.100000000000D+01
  </mgrwgt>
  </event>
  <event>
  9     66 0.53686478E-06 0.36605375E+03 0.75467711E-02 0.97610183E-01
       -2 -1    0    0    0  501 0.00000000E+00 0.00000000E+00 0.32440056E+03 0.32440072E+03 0.32000000E+00 0.0000E+00 0.9000E+01
        2 -1    0    0  502    0 0.00000000E+00 0.00000000E+00 -.78608762E+03 0.78608769E+03 0.32000000E+00 0.0000E+00 0.9000E+01
       25  2    1    2    0    0 0.20322021E+03 -.21742838E+03 0.65820451E+02 0.42768769E+03 0.30001813E+03 0.0000E+00 0.0000E+00
       23  2    1    2    0    0 -.24096126E+03 0.20293614E+03 -.54726530E+03 0.63779689E+03 0.89666887E+02 0.0000E+00 0.0000E+00
       23  1    3    3    0    0 0.11819272E+03 -.24795242E+03 0.75051529E+02 0.29899482E+03 0.91188000E+02 0.0000E+00 0.9000E+01
      -13  1    4    4    0    0 -.21303453E+03 0.19179802E+03 -.53144045E+03 0.60382046E+03 0.10565837E+00 0.0000E+00 0.9000E+01
       13  1    4    4    0    0 -.27926732E+02 0.11138122E+02 -.15824853E+02 0.33976422E+02 0.10565837E+00 0.0000E+00 0.9000E+01
       23  1    3    3    0    0 0.85027488E+02 0.30524038E+02 -.92310774E+01 0.12869287E+03 0.91188000E+02 0.0000E+00 0.9000E+01
       21  1    1    2  502  501 0.37741049E+02 0.14492239E+02 0.19757786E+02 0.45003826E+02 0.75000000E+00 0.0000E+00 0.9000E+01
#aMCatNLO 2  0  0  2  2 0.40427858D+02 0.00000000D+00  -5  7  0 0.00000000D+00 0.00000000D+00 0.00000000D+00 0.00000000D+00 0.00000000D+00
  <mgrwgt>
 0.7003307344D-04    1    2    0
 0.474824660193182D+03 0.000000000000000D+00 0.000000000000000D+00 0.474824660193182D+03
 0.474824660193182D+03 0.000000000000000D+00 0.000000000000000D+00 -.474824660193182D+03
 0.374427559257885D+03 0.133041664971835D+03 -.242250551566523D+03 0.235574471102144D+03
 0.402508635949939D+03 -.196942798162915D+03 0.197977454554035D+03 -.289882154942913D+03
 0.291576052489717D+02 -.267500885468205D+02 0.115895938387828D+02 -.529170335681329D+00
 0.143555519929569D+03 0.906512217379001D+02 0.326835031737051D+02 0.548368541764504D+02
 0.000000000000000D+00 0.000000000000000D+00 0.000000000000000D+00 0.000000000000000D+00
 0.527951139834961D+03 0.000000000000000D+00 0.000000000000000D+00 0.527951139834961D+03
 0.483008637601400D+03 0.000000000000000D+00 0.000000000000000D+00 -.483008637601400D+03
 0.373176237119010D+03 0.118192721018636D+03 -.247952418559409D+03 0.235574471102144D+03
 0.407678867560788D+03 -.213034782833827D+03 0.191798270597635D+03 -.289882154942913D+03
 0.300702547710098D+02 -.279264752615039D+02 0.111378714401756D+02 -.529170335681329D+00
 0.139584105758072D+03 0.850274883471109D+02 0.305240378340288D+02 0.548368541764504D+02
 0.604503122274815D+02 0.377410487295845D+02 0.144922386875697D+02 0.449425022335609D+02
0.336331501634D-05 0.000000000000D+00 0.000000000000D+00 0.782050923340D-06 0.314794821928D-08  7 -2 2 23 -13 13 23 21 2 0.49907558D-01 0.12093600D+00 0.15012942D+06 0.15012942D+06 0.15012942D+06 0.11075223D+01  1  2  1  2  7  2        2 0.700330734356D-04 0.100000000000D+01
  </mgrwgt>
  </event>
  <event>
  8     66 0.53686478E-06 0.27523562E+03 0.75467711E-02 0.96138363E-01
       -2 -1    0    0    0  501 0.00000000E+00 0.00000000E+00 0.10284552E+03 0.10284602E+03 0.32000000E+00 0.0000E+00 0.9000E+01
        2 -1    0    0  501    0 0.00000000E+00 0.00000000E+00 -.18581773E+04 0.18581773E+04 0.32000000E+00 0.0000E+00 0.9000E+01
       25  2    1    2    0    0 -.36507030E+03 -.60945472E+02 -.78219216E+03 0.91581854E+03 0.29984723E+03 0.0000E+00 0.0000E+00
       23  2    1    2    0    0 0.36507030E+03 0.60945472E+02 -.97313960E+03 0.10452048E+04 0.91987478E+02 0.0000E+00 0.0000E+00
       23  1    3    3    0    0 -.89068802E+02 0.78738677E+02 -.30581971E+03 0.34054953E+03 0.91188000E+02 0.0000E+00 0.9000E+01
      -11  1    4    4    0    0 0.15795298E+02 -.81944960E+01 -.11129289E+03 0.11270647E+03 0.51099893E-03 0.0000E+00 0.9000E+01
       11  1    4    4    0    0 0.34927500E+03 0.69139968E+02 -.86184671E+03 0.93249832E+03 0.51099893E-03 0.0000E+00 0.9000E+01
       23  1    3    3    0    0 -.27600149E+03 -.13968415E+03 -.47637244E+03 0.57526902E+03 0.91188000E+02 0.0000E+00 0.9000E+01
#aMCatNLO 1  0  0  1  2 0.30136756D+02 0.00000000D+00  -5  7  0 0.00000000D+00 0.00000000D+00 0.00000000D+00 0.00000000D+00 0.00000000D+00
  <mgrwgt>
 0.4696219459D-03    6    2    0
 0.437156415575659D+03 0.000000000000000D+00 0.000000000000000D+00 0.437156415575659D+03
 0.437156415575659D+03 0.000000000000000D+00 0.000000000000000D+00 -.437156415575659D+03
 0.149843974732309D+03 -.890688022913138D+02 0.787386771006498D+02 -.222139739971443D+01
 0.293534239185559D+02 0.157952975991217D+02 -.819449599700067D+01 -.233448560683669D+02
 0.361225461018542D+03 0.349274998022627D+03 0.691399683478944D+02 -.609136620242462D+02
 0.333889971481911D+03 -.276001493330435D+03 -.139684149451543D+03 0.864799154923276D+02
 0.000000000000000D+00 -.000000000000000D+00 -.000000000000000D+00 -.000000000000000D+00
 0.452297944552992D+03 0.000000000000000D+00 0.000000000000000D+00 0.452297944552992D+03
 0.452673218060242D+03 0.000000000000000D+00 0.000000000000000D+00 -.452673218060242D+03
 0.146979263799907D+03 -.839592008177769D+02 0.789529646992141D+02 -.222139739971443D+01
 0.299029922324463D+02 0.168153547643858D+02 -.815171661362315D+01 -.233448560683669D+02
 0.373568458761500D+03 0.361923954060638D+03 0.696704430684316D+02 -.609136620242462D+02
 0.324381355255150D+03 -.264669819443595D+03 -.139208919201689D+03 0.864799154923276D+02
 0.301390925642305D+02 -.301102885636523D+02 -.126277195233337D+01 -.375273507249997D+00
0.920060663343D-05 0.000000000000D+00 0.000000000000D+00 0.900053465444D-06 0.000000000000D+00  7 -2 2 23 -11 11 23 21 0 0.15822429D-01 0.28587347D+00 0.17900113D+06 0.17900113D+06 0.17900113D+06 0.11015446D+01  1  2  2  1  7  1       -2 0.283750777887D-03 0.100000000000D+01
-.510479566914D-06 0.000000000000D+00 -.353327520477D-07 0.900053465444D-06 0.000000000000D+00  7 -2 2 23 -11 11 23 21 2 0.15822429D-01 0.28587347D+00 0.17900113D+06 0.17900113D+06 0.17900113D+06 0.11015446D+01  1  2  3  1  7  1       -2 -.191030673305D-04 0.100000000000D+01
0.607438616367D-06 0.000000000000D+00 0.000000000000D+00 0.900053465444D-06 0.000000000000D+00  7 -2 2 23 -11 11 23 21 2 0.15822429D-01 0.28587347D+00 0.17900113D+06 0.17900113D+06 0.17900113D+06 0.11015446D+01  1  2 15  1  7  1       -2 0.227314500710D-04 0.100000000000D+01
0.168861344664D-04 0.000000000000D+00 0.000000000000D+00 0.900053465444D-06 0.000000000000D+00  7 -2 2 23 -11 11 23 21 2 0.16641596D-01 0.28587347D+00 0.19228058D+06 0.19228058D+06 0.19228058D+06 0.10991407D+01  1  2 12  1  7  1       -2 0.578430871933D-03 0.100000000000D+01
-.128126330039D-04 0.000000000000D+00 0.000000000000D+00 0.900053465444D-06 0.000000000000D+00  7 -2 2 23 -11 11 23 21 2 0.15822429D-01 0.28587347D+00 0.17900113D+06 0.17900113D+06 0.17900113D+06 0.11015446D+01  1  2  4  1  7  1       -2 -.479471866883D-03 0.100000000000D+01
0.185682033694D-06 0.000000000000D+00 0.000000000000D+00 0.900053465444D-06 0.000000000000D+00  7 21 2 23 -11 11 23 2 2 0.16641596D-01 0.28587347D+00 0.19228058D+06 0.19228058D+06 0.19228058D+06 0.10991407D+01  1  2 12  3  7  1       -2 0.832837802002D-04 0.100000000000D+01
  </mgrwgt>
  </event>
  <event>
  9     66 0.53686478E-06 0.36726888E+03 0.75467711E-02 0.97828025E-01
       21 -1    0    0  502  501 0.00000000E+00 0.00000000E+00 0.89073851E+02 0.89077008E+02 0.75000000E+00 0.0000E+00 0.9000E+01
        2 -1    0    0  501    0 0.00000000E+00 0.00000000E+00 -.17669438E+04 0.17669439E+04 0.32000000E+00 0.0000E+00 0.9000E+01
       25  2    1    2    0    0 -.27070525E+03 0.11003760E+03 -.97876790E+03 0.10651113E+04 0.30180418E+03 0.0000E+00 0.0000E+00
       23  2    1    2    0    0 0.29695060E+03 -.10701839E+03 -.68818111E+03 0.76232110E+03 0.88924770E+02 0.0000E+00 0.0000E+00
       23  1    3    3    0    0 -.18102795E+03 0.17090622E+03 -.50154064E+03 0.56730795E+03 0.91188000E+02 0.0000E+00 0.9000E+01
      -11  1    4    4    0    0 0.30296136E+03 -.10084288E+03 -.67110406E+03 0.74319280E+03 0.51099893E-03 0.0000E+00 0.9000E+01
       11  1    4    4    0    0 -.60107575E+01 -.61755173E+01 -.17077052E+02 0.19128302E+02 0.51099893E-03 0.0000E+00 0.9000E+01
       23  1    3    3    0    0 -.89677308E+02 -.60868619E+02 -.47722727E+03 0.49780330E+03 0.91188000E+02 0.0000E+00 0.9000E+01
        2  1    1    2  502    0 -.26245349E+02 -.30192021E+01 -.10920972E+02 0.28588528E+02 0.32000000E+00 0.0000E+00 0.9000E+01
#aMCatNLO 2  0  0  1  2 0.26418439D+02 0.00000000D+00  -5  7  0 0.00000000D+00 0.00000000D+00 0.00000000D+00 0.00000000D+00 0.00000000D+00
  <mgrwgt>
 0.1435998344D-04    2    2    0
 0.374196482296388D+03 0.000000000000000D+00 0.000000000000000D+00 0.374196482296388D+03
 0.374196482296388D+03 0.000000000000000D+00 0.000000000000000D+00 -.374196482296388D+03
 0.273799171662449D+03 -.190524680914949D+03 0.169813733307790D+03 0.389149971267007D+02
 0.309718892121521D+03 0.291927611669259D+03 -.102112172819075D+03 0.166482985386458D+02
 0.890641956192559D+01 -.631877264728303D+01 -.621095065554089D+01 0.906373873981031D+00
 0.155968481246881D+03 -.950841581070268D+02 -.614906098331736D+02 -.564696695393275D+02
 0.000000000000000D+00 -.000000000000000D+00 -.000000000000000D+00 0.000000000000000D+00
 0.415649765864629D+03 0.000000000000000D+00 0.000000000000000D+00 0.415649765864629D+03
 0.378662513163376D+03 0.000000000000000D+00 0.000000000000000D+00 -.378662513163376D+03
 0.267973281660303D+03 -.181027945376521D+03 0.170906215016237D+03 0.389149971267007D+02
 0.319737449760021D+03 0.302961359094350D+03 -.100842876944849D+03 0.166482985386458D+02
 0.866531783064392D+01 -.601075746130507D+01 -.617551732634651D+01 0.906373873981031D+00
 0.152483058567443D+03 -.896773075333738D+02 -.608686186944161D+02 -.564696695393275D+02
 0.454531712095937D+02 -.262453487231503D+02 -.301920205062556D+01 0.369872527012533D+02
-.642142591845D-06 0.000000000000D+00 0.000000000000D+00 0.162163298633D-07 0.000000000000D+00  7 21 2 23 -11 11 23 2 2 0.13772440D-01 0.26863125D+00 0.14482358D+06 0.14482358D+06 0.14482358D+06 0.11087575D+01  1  2 13  3  7  1       -2 -.479989405670D-03 0.100000000000D+01
0.672628670686D-06 0.000000000000D+00 0.000000000000D+00 0.162163298633D-07 0.266391596159D-11  7 21 2 23 -11 11 23 2 2 0.13703894D-01 0.27183736D+00 0.14482358D+06 0.14482358D+06 0.14482358D+06 0.11087575D+01  1  2  1  3  7  1       -2 0.494349389111D-03 0.100000000000D+01
  </mgrwgt>
  </event>
  <event>
  8     66 0.53686478E-06 0.16895519E+03 0.75467711E-02 0.10259498E+00
       -2 -1    0    0    0  501 0.00000000E+00 0.00000000E+00 0.14415183E+02 0.14418734E+02 0.32000000E+00 0.0000E+00 0.9000E+01
        2 -1    0    0  501    0 0.00000000E+00 0.00000000E+00 -.29294736E+04 0.29294736E+04 0.32000000E+00 0.0000E+00 0.9000E+01
       25  2    1    2    0    0 0.28444617E+02 -.19809155E+02 -.18664909E+04 0.18908470E+04 0.30052038E+03 0.0000E+00 0.0000E+00
       23  2    1    2    0    0 -.28444617E+02 0.19809155E+02 -.10485675E+04 0.10530454E+04 0.90604825E+02 0.0000E+00 0.0000E+00
       23  1    3    3    0    0 0.93579794E+02 0.60403678E+02 -.60680850E+03 0.62364861E+03 0.91188000E+02 0.0000E+00 0.9000E+01
      -13  1    4    4    0    0 0.10653787E+02 -.27611777E+01 -.81937279E+03 0.81944671E+03 0.10565837E+00 0.0000E+00 0.9000E+01
       13  1    4    4    0    0 -.39098404E+02 0.22570332E+02 -.22919472E+03 0.23359867E+03 0.10565837E+00 0.0000E+00 0.9000E+01
       23  1    3    3    0    0 -.65135177E+02 -.80212832E+02 -.12596824E+04 0.12671984E+04 0.91188000E+02 0.0000E+00 0.9000E+01
#aMCatNLO 1  0  0  1  2 0.15527863D+03 0.00000000D+00  -5  7  0 0.00000000D+00 0.00000000D+00 0.00000000D+00 0.00000000D+00 0.00000000D+00
  <mgrwgt>
 0.9301137362D-03    3    2    0
 0.205509492894361D+03 0.000000000000000D+00 0.000000000000000D+00 0.205509492894361D+03
 0.205509492894361D+03 0.000000000000000D+00 0.000000000000000D+00 -.205509492894361D+03
 0.163185165539917D+03 0.935799198673801D+02 0.604035898503075D+02 0.768658040945428D+02
 0.580103517651912D+02 0.106536198867655D+02 -.276106724745656D+01 -.569568064666951D+02
 0.476213608310511D+02 -.390984725133556D+02 0.225703862985131D+02 0.151552339757407D+02
 0.142202107652562D+03 -.651350672407901D+02 -.802129089013640D+02 -.350642316035883D+02
 0.000000000000000D+00 0.000000000000000D+00 -.000000000000000D+00 -.000000000000000D+00
 0.268304847135827D+03 0.000000000000000D+00 0.000000000000000D+00 0.268304847135827D+03
 0.343668653632733D+03 0.000000000000000D+00 0.000000000000000D+00 -.343668653632733D+03
 0.162437284695920D+03 0.484234398517113D+02 0.990829892020341D+02 0.768658040945428D+02
 0.582767585724523D+02 -.547277609802758D+01 0.110522173616063D+02 -.569568064666951D+02
 0.676716519130489D+02 -.550870096125467D+02 0.362655859973143D+02 0.151552339757407D+02
 0.150986653716566D+03 -.105793727090548D+03 -.453861788088254D+02 -.350642316035883D+02
 0.172601151870573D+03 0.117930072949411D+03 -.101014613752129D+03 -.753638064969063D+02
0.590970313650D-05 0.000000000000D+00 0.000000000000D+00 0.514280015978D-07 0.000000000000D+00  7 -2 2 23 -13 13 23 21 0 0.22179950D-02 0.45068852D+00 0.28545855D+05 0.28545855D+05 0.28545855D+05 0.11693433D+01  1  2  2  1  7  1       -2 0.918415832780D-03 0.100000000000D+01
-.313003833492D-06 0.000000000000D+00 -.226948161047D-07 0.514280015978D-07 0.000000000000D+00  7 -2 2 23 -13 13 23 21 2 0.22179950D-02 0.45068852D+00 0.28545855D+05 0.28545855D+05 0.28545855D+05 0.11693433D+01  1  2  3  1  7  1       -2 -.665131331005D-04 0.100000000000D+01
0.368052941185D-06 0.000000000000D+00 0.000000000000D+00 0.514280015978D-07 0.000000000000D+00  7 -2 2 23 -13 13 23 21 2 0.22179950D-02 0.45068852D+00 0.28545855D+05 0.28545855D+05 0.28545855D+05 0.11693433D+01  1  2 15  1  7  1       -2 0.782110365613D-04 0.100000000000D+01
  </mgrwgt>
  </event>
  <event>
  8     66 0.53686478E-06 0.16478713E+03 0.75467711E-02 0.10634740E+00
       -2 -1    0    0    0  501 0.00000000E+00 0.00000000E+00 0.56880955E+03 0.56880964E+03 0.32000000E+00 0.0000E+00 0.9000E+01
        2 -1    0    0  501    0 0.00000000E+00 0.00000000E+00 -.73878419E+03 0.73878426E+03 0.32000000E+00 0.0000E+00 0.9000E+01
       25  2    1    2    0    0 -.43117671E+02 0.72411623E+02 -.69836535E+03 0.76453661E+03 0.29949873E+03 0.0000E+00 0.0000E+00
       23  2    1    2    0    0 0.43117671E+02 -.72411623E+02 0.52839071E+03 0.54305728E+03 0.92800283E+02 0.0000E+00 0.0000E+00
       23  1    3    3    0    0 -.13607101E+03 0.36593412E+02 -.29808799E+03 0.34209077E+03 0.91188000E+02 0.0000E+00 0.9000E+01
      -11  1    4    4    0    0 -.41717050E+01 -.33286820E+02 0.46858297E+02 0.57629120E+02 0.51099893E-03 0.0000E+00 0.9000E+01
       11  1    4    4    0    0 0.47289376E+02 -.39124803E+02 0.48153242E+03 0.48542816E+03 0.51099893E-03 0.0000E+00 0.9000E+01
       23  1    3    3    0    0 0.92953336E+02 0.35818211E+02 -.40027736E+03 0.42244584E+03 0.91188000E+02 0.0000E+00 0.9000E+01
#aMCatNLO 1  0  0  1  1 0.13483865D+01 0.00000000D+00  -5  7  0 0.00000000D+00 0.00000000D+00 0.00000000D+00 0.00000000D+00 0.00000000D+00
  <mgrwgt>
 0.1856889854D-03   10    2    0
 0.648249646533993D+03 0.000000000000000D+00 0.000000000000000D+00 0.648249646533993D+03
 0.648249646533993D+03 0.000000000000000D+00 0.000000000000000D+00 -.648249646533993D+03
 0.305938005260063D+03 -.136071006920606D+03 0.365934119682602D+02 -.255789786728556D+03
 0.642655249935731D+02 -.417170504228650D+01 -.332868200621154D+02 0.548146165716050D+02
 0.552712374626504D+03 0.472893758002686D+02 -.391248026837248D+02 0.549294032205566D+03
 0.373583388187847D+03 0.929533361626241D+02 0.358182107775801D+02 -.348318862048615D+03
 0.000000000000000D+00 -.000000000000000D+00 0.000000000000000D+00 0.000000000000000D+00
 0.650637351692202D+03 0.000000000000000D+00 0.000000000000000D+00 0.650637351692202D+03
 0.648440390518019D+03 0.000000000000000D+00 0.000000000000000D+00 -.648440390518019D+03
 0.305894737048609D+03 -.136058858703371D+03 0.362754846105974D+02 -.255789786728556D+03
 0.642999878347225D+02 -.416915231558393D+01 -.333536267086931D+02 0.548146165716050D+02
 0.552755212394179D+03 0.473113253617500D+02 -.396992380884028D+02 0.549294032205566D+03
 0.373550056965440D+03 0.929681708368215D+02 0.354299769587381D+02 -.348318862048615D+03
 0.257774796727007D+01 -.514851796166095D-01 0.134740322776036D+01 0.219696117418260D+01
0.214549362042D-04 0.000000000000D+00 0.000000000000D+00 0.935443710455D-06 0.000000000000D+00  7 -2 2 23 -11 11 23 21 0 0.87509173D-01 0.11365912D+00 0.39563519D+05 0.39563519D+05 0.39563519D+05 0.11563475D+01  1  2  2  1  7  1       -2 0.125283928161D-03 0.100000000000D+01
0.830905367944D-06 0.000000000000D+00 -.823926042388D-07 0.935443710455D-06 0.000000000000D+00  7 -2 2 23 -11 11 23 21 2 0.87509173D-01 0.11365912D+00 0.39563519D+05 0.39563519D+05 0.39563519D+05 0.11563475D+01  1  2  3  1  7  1       -2 0.648778509929D-05 0.100000000000D+01
0.125320804245D-05 0.000000000000D+00 0.000000000000D+00 0.935443710455D-06 0.000000000000D+00  7 -2 2 23 -11 11 23 21 2 0.87509173D-01 0.11365912D+00 0.39563519D+05 0.39563519D+05 0.39563519D+05 0.11563475D+01  1  2 15  1  7  1       -2 0.978516300141D-05 0.100000000000D+01
-.469427760646D-02 0.000000000000D+00 0.000000000000D+00 0.935443710455D-06 0.000000000000D+00  7 -2 2 23 -11 11 23 21 2 0.87509173D-01 0.11365912D+00 0.39563519D+05 0.39563519D+05 0.39563519D+05 0.11563475D+01  1  2  4  1  7  1       -2 -.366533488434D-01 0.100000000000D+01
-.976037645703D-02 0.000000000000D+00 -.658723014157D-03 0.935443710455D-06 0.000000000000D+00  7 -2 2 23 -11 11 23 21 2 0.87845815D-01 0.11365912D+00 0.39563519D+05 0.39563519D+05 0.39563519D+05 0.11563475D+01  1  2  5  1  7  1       -2 -.755490633448D-01 0.100000000000D+01
0.976283854823D-02 0.000000000000D+00 0.658718158698D-03 0.935443710455D-06 0.000000000000D+00  7 -2 2 23 -11 11 23 21 2 0.87509173D-01 0.11365912D+00 0.39563519D+05 0.39563519D+05 0.39563519D+05 0.11563475D+01  1  2  6  1  7  1       -2 0.762291361971D-01 0.100000000000D+01
0.469430691655D-02 0.000000000000D+00 0.000000000000D+00 0.935443710455D-06 0.366713612904D-05  7 -2 2 23 -11 11 23 21 2 0.87831497D-01 0.11369256D+00 0.39887965D+05 0.39887965D+05 0.39887965D+05 0.11560280D+01  1  2 11  1  7  1       -2 0.363057586689D-01 0.100000000000D+01
0.304140596742D-09 0.000000000000D+00 0.000000000000D+00 0.935443710455D-06 0.000000000000D+00  7 21 2 23 -11 11 23 2 2 0.87844346D-01 0.11365912D+00 0.39887965D+05 0.39887965D+05 0.39887965D+05 0.11560280D+01  1  2 12  3  7  1       -2 0.237131855797D-07 0.100000000000D+01
-.698272262965D-05 0.000000000000D+00 -.471505114344D-06 0.935443710455D-06 0.000000000000D+00  7 21 2 23 -11 11 23 2 2 0.87845815D-01 0.11365912D+00 0.39563519D+05 0.39563519D+05 0.39563519D+05 0.11563475D+01  1  2  5  3  7  1       -2 -.545023629284D-03 0.100000000000D+01
0.329172429084D-05 0.000000000000D+00 0.000000000000D+00 0.935443710455D-06 0.251453560957D-08  7 21 2 23 -11 11 23 2 2 0.87831497D-01 0.11369256D+00 0.39887965D+05 0.39887965D+05 0.39887965D+05 0.11560280D+01  1  2 11  3  7  1       -2 0.256649347453D-03 0.100000000000D+01
  </mgrwgt>
  </event>
  <event>
  8     66 0.53686478E-06 0.11621569E+03 0.75467711E-02 0.10582397E+00
       -2 -1    0    0    0  501 0.00000000E+00 0.00000000E+00 0.12828212E+04 0.12828212E+04 0.32000000E+00 0.0000E+00 0.9000E+01
        2 -1    0    0  501    0 0.00000000E+00 0.00000000E+00 -.59949068E+02 0.59949922E+02 0.32000000E+00 0.0000E+00 0.9000E+01
       25  2    1    2    0    0 0.11790958E+03 -.84280632E+02 0.10405826E+04 0.10927796E+04 0.30058157E+03 0.0000E+00 0.0000E+00
       23  2    1    2    0    0 -.11790958E+03 0.84280632E+02 0.18228950E+03 0.24999150E+03 0.90886703E+02 0.0000E+00 0.0000E+00
       23  1    3    3    0    0 0.56600112E+02 -.46711769E+02 0.91215588E+03 0.91963534E+03 0.91188000E+02 0.0000E+00 0.9000E+01
      -13  1    4    4    0    0 -.80667408E+02 0.68702050E+02 0.61228517E+02 0.12237706E+03 0.10565837E+00 0.0000E+00 0.9000E+01
       13  1    4    4    0    0 -.37242172E+02 0.15578582E+02 0.12106099E+03 0.12761444E+03 0.10565837E+00 0.0000E+00 0.9000E+01
       23  1    3    3    0    0 0.61309468E+02 -.37568863E+02 0.12842671E+03 0.17314428E+03 0.91188000E+02 0.0000E+00 0.9000E+01
#aMCatNLO 1  0  0  1  2 0.34536547D+02 0.00000000D+00  -5  7  0 0.00000000D+00 0.00000000D+00 0.00000000D+00 0.00000000D+00 0.00000000D+00
  <mgrwgt>
 0.4588033726D-03    9    2    0
 0.277316664403551D+03 0.000000000000000D+00 0.000000000000000D+00 0.277316664403551D+03
 0.277316664403551D+03 0.000000000000000D+00 0.000000000000000D+00 -.277316664403551D+03
 0.215295049256207D+03 0.566001129129912D+02 -.467117696197062D+02 0.180696277458792D+03
 0.161277412366741D+03 -.806674684645766D+02 0.687021229806332D+02 -.121586107632337D+03
 0.420364077962651D+02 -.372421132960116D+02 0.155785100127825D+02 0.117215444137097D+02
 0.136024459387888D+03 0.613094688475970D+02 -.375688633737095D+02 -.708317142401649D+02
 0.000000000000000D+00 0.000000000000000D+00 -.000000000000000D+00 0.000000000000000D+00
 0.320338158735242D+03 0.000000000000000D+00 0.000000000000000D+00 0.320338158735242D+03
 0.284872677403373D+03 0.000000000000000D+00 0.000000000000000D+00 -.284872677403373D+03
 0.211443144297792D+03 0.500513925867728D+02 -.351662528455458D+02 0.180696277458792D+03
 0.167789133300397D+03 -.857173205960244D+02 0.776051070120688D+02 -.121586107632337D+03
 0.441057450256272D+02 -.385640499673715D+02 0.179091091609030D+02 0.117215444137097D+02
 0.132369546600116D+03 0.571906969424842D+02 -.303073912462410D+02 -.708317142401649D+02
 0.495032669146832D+02 0.170392810341389D+02 -.300405720811850D+02 0.354654813318687D+02
0.229153729789D-04 0.000000000000D+00 0.000000000000D+00 0.190161361989D-06 0.000000000000D+00  7 -2 2 23 -13 13 23 21 0 0.19735717D+00 0.92230022D-02 0.36006078D+05 0.36006078D+05 0.36006078D+05 0.11600532D+01  1  2  2  1  7  1       -2 0.286523907108D-03 0.100000000000D+01
-.105022312042D-05 0.000000000000D+00 -.880010659952D-07 0.190161361989D-06 0.000000000000D+00  7 -2 2 23 -13 13 23 21 2 0.19735717D+00 0.92230022D-02 0.36006078D+05 0.36006078D+05 0.36006078D+05 0.11600532D+01  1  2  3  1  7  1       -2 -.176714148315D-04 0.100000000000D+01
0.149170198067D-05 0.000000000000D+00 0.000000000000D+00 0.190161361989D-06 0.000000000000D+00  7 -2 2 23 -13 13 23 21 2 0.19735717D+00 0.92230022D-02 0.36006078D+05 0.36006078D+05 0.36006078D+05 0.11600532D+01  1  2 15  1  7  1       -2 0.250998897213D-04 0.100000000000D+01
0.561088164864D-04 0.000000000000D+00 0.000000000000D+00 0.190161361989D-06 0.000000000000D+00  7 -2 2 23 -13 13 23 21 2 0.23038279D+00 0.92230022D-02 0.42913905D+05 0.42913905D+05 0.42913905D+05 0.11531796D+01  1  2 12  1  7  1       -2 0.567038836017D-03 0.100000000000D+01
-.574468461015D-04 0.000000000000D+00 0.000000000000D+00 0.190161361989D-06 0.000000000000D+00  7 -2 2 23 -13 13 23 21 2 0.19735717D+00 0.92230022D-02 0.36006078D+05 0.36006078D+05 0.36006078D+05 0.11600532D+01  1  2  4  1  7  1       -2 -.966620357596D-03 0.100000000000D+01
-.902519442215D-04 0.000000000000D+00 -.165965852236D-04 0.190161361989D-06 0.000000000000D+00  7 -2 2 23 -13 13 23 21 2 0.23073100D+00 0.92230022D-02 0.36006078D+05 0.36006078D+05 0.36006078D+05 0.11600532D+01  1  2  5  1  7  1       -2 -.921810210485D-03 0.100000000000D+01
0.919212849598D-04 0.000000000000D+00 0.163960628030D-04 0.190161361989D-06 0.000000000000D+00  7 -2 2 23 -13 13 23 21 2 0.19735717D+00 0.92230022D-02 0.36006078D+05 0.36006078D+05 0.36006078D+05 0.11600532D+01  1  2  6  1  7  1       -2 0.154669910306D-02 0.100000000000D+01
0.131235819228D-05 0.000000000000D+00 0.000000000000D+00 0.190161361989D-06 0.000000000000D+00  7 21 2 23 -13 13 23 2 2 0.23038279D+00 0.92230022D-02 0.42913905D+05 0.42913905D+05 0.42913905D+05 0.11531796D+01  1  2 12  3  7  1       -2 0.109077705517D-03 0.100000000000D+01
-.200359360378D-05 0.000000000000D+00 -.391230599395D-06 0.190161361989D-06 0.000000000000D+00  7 21 2 23 -13 13 23 2 2 0.23073100D+00 0.92230022D-02 0.36006078D+05 0.36006078D+05 0.36006078D+05 0.11600532D+01  1  2  5  3  7  1       -2 -.169534085940D-03 0.100000000000D+01
  </mgrwgt>
  </event>
  <event>
  8     66 0.53686478E-06 0.16200543E+03 0.75467711E-02 0.10611957E+00
       -2 -1    0    0    0  501 0.00000000E+00 0.00000000E+00 0.86219635E+02 0.86220228E+02 0.32000000E+00 0.0000E+00 0.9000E+01
        2 -1    0    0  501    0 0.00000000E+00 0.00000000E+00 -.10848654E+04 0.10848655E+04 0.32000000E+00 0.0000E+00 0.9000E+01
       25  2    1    2    0    0 0.90660524E+02 0.56614230E+02 -.97817356E+03 0.10286623E+04 0.29983011E+03 0.0000E+00 0.0000E+00
       23  2    1    2    0    0 -.90660524E+02 -.56614230E+02 -.20472245E+02 0.14242342E+03 0.91873918E+02 0.0000E+00 0.0000E+00
       23  1    3    3    0    0 -.46401416E+02 0.29138671E+02 -.66816213E+03 0.67657819E+03 0.91188000E+02 0.0000E+00 0.9000E+01
      -11  1    4    4    0    0 -.63143888E+02 0.33646964E+01 0.18373935E+02 0.65848867E+02 0.51099893E-03 0.0000E+00 0.9000E+01
       11  1    4    4    0    0 -.27516636E+02 -.59978927E+02 -.38846180E+02 0.76574556E+02 0.51099893E-03 0.0000E+00 0.9000E+01
       23  1    3    3    0    0 0.13706194E+03 0.27475560E+02 -.31001142E+03 0.35208410E+03 0.91188000E+02 0.0000E+00 0.9000E+01
#aMCatNLO 1  0  0  2  1 0.27092796D+01 0.00000000D+00  -5  7  0 0.00000000D+00 0.00000000D+00 0.00000000D+00 0.00000000D+00 0.00000000D+00
  <mgrwgt>
 0.3285976780D-03   10    2    0
 0.305838318054867D+03 0.000000000000000D+00 0.000000000000000D+00 0.305838318054867D+03
 0.305838318054867D+03 0.000000000000000D+00 0.000000000000000D+00 -.305838318054867D+03
 0.204476890960907D+03 -.464014164197068D+02 0.291386705324863D+02 -.174623578095522D+03
 0.156068933734300D+03 -.631438878564862D+02 0.336469638537376D+01 0.142685108969237D+03
 0.831841377447145D+02 -.275166361081185D+02 -.599789265917131D+02 0.506454723991289D+02
 0.167946673669812D+03 0.137061940384312D+03 0.274755596738530D+02 -.187070032728433D+02
 0.000000000000000D+00 0.000000000000000D+00 0.000000000000000D+00 -.000000000000000D+00
 0.307011732416328D+03 0.000000000000000D+00 0.000000000000000D+00 0.307011732416328D+03
 0.307409180770646D+03 0.000000000000000D+00 0.000000000000000D+00 -.307409180770646D+03
 0.204657459452837D+03 -.472923222336009D+02 0.289735499474909D+02 -.174623578095522D+03
 0.156342746589085D+03 -.638241763290798D+02 0.323861164239817D+01 0.142685108969237D+03
 0.833532048261958D+02 -.278792775890326D+02 -.600461386050801D+02 0.506454723991289D+02
 0.167329225274594D+03 0.136331864194605D+03 0.273402472697183D+02 -.187070032728433D+02
 0.273827704426333D+01 0.266391195710830D+01 0.493729745472687D+00 -.397448354318474D+00
0.106473957956D-05 0.000000000000D+00 0.000000000000D+00 0.411975594658D-06 0.000000000000D+00  7 -2 2 23 -11 11 23 21 0 0.13264608D-01 0.16690242D+00 0.40503173D+05 0.40503173D+05 0.40503173D+05 0.11554300D+01  1  2  2  2  7  2        2 0.117690832749D-03 0.100000000000D+01
-.465565642272D-07 0.000000000000D+00 -.408888033786D-08 0.411975594658D-06 0.000000000000D+00  7 -2 2 23 -11 11 23 21 2 0.13264608D-01 0.16690242D+00 0.40503173D+05 0.40503173D+05 0.40503173D+05 0.11554300D+01  1  2  3  2  7  2        2 -.687016938843D-05 0.100000000000D+01
0.653478393289D-07 0.000000000000D+00 0.000000000000D+00 0.411975594658D-06 0.000000000000D+00  7 -2 2 23 -11 11 23 21 2 0.13264608D-01 0.16690242D+00 0.40503173D+05 0.40503173D+05 0.40503173D+05 0.11554300D+01  1  2 15  2  7  2        2 0.964312407519D-05 0.100000000000D+01
-.200922642545D-04 0.000000000000D+00 0.000000000000D+00 0.411975594658D-06 0.000000000000D+00  7 -2 2 23 -11 11 23 21 2 0.13264608D-01 0.16690242D+00 0.40503173D+05 0.40503173D+05 0.40503173D+05 0.11554300D+01  1  2  4  2  7  2        2 -.296493654798D-02 0.100000000000D+01
-.152888465907D-03 0.000000000000D+00 -.163299329368D-04 0.411975594658D-06 0.000000000000D+00  7 -2 2 23 -11 11 23 21 2 0.13264608D-01 0.16819861D+00 0.40503173D+05 0.40503173D+05 0.40503173D+05 0.11554300D+01  1  2  5  2  7  2        2 -.223101326779D-01 0.100000000000D+01
0.153010706572D-03 0.000000000000D+00 0.163294442926D-04 0.411975594658D-06 0.000000000000D+00  7 -2 2 23 -11 11 23 21 2 0.13264608D-01 0.16690242D+00 0.40503173D+05 0.40503173D+05 0.40503173D+05 0.11554300D+01  1  2  6  2  7  2        2 0.225791892044D-01 0.100000000000D+01
0.200925095515D-04 0.000000000000D+00 0.000000000000D+00 0.411975594658D-06 0.399184064641D-06  7 -2 2 23 -11 11 23 21 2 0.13315501D-01 0.16775968D+00 0.41174177D+05 0.41174177D+05 0.41174177D+05 0.11547891D+01  1  2 11  2  7  2        2 0.292213515613D-02 0.100000000000D+01
0.263846045763D-09 0.000000000000D+00 0.000000000000D+00 0.411975594658D-06 0.000000000000D+00  7 -2 21 23 -11 11 23 -2 2 0.13264608D-01 0.16807842D+00 0.41174177D+05 0.41174177D+05 0.41174177D+05 0.11547891D+01  1  2 12  4  7  2        2 0.255615681699D-07 0.100000000000D+01
-.218854549793D-06 0.000000000000D+00 -.234145014464D-07 0.411975594658D-06 0.000000000000D+00  7 -2 21 23 -11 11 23 -2 2 0.13264608D-01 0.16819861D+00 0.40503173D+05 0.40503173D+05 0.40503173D+05 0.11554300D+01  1  2  5  4  7  2        2 -.211988485467D-04 0.100000000000D+01
0.315090180574D-07 0.000000000000D+00 0.000000000000D+00 0.411975594658D-06 0.380261325324D-09  7 -2 21 23 -11 11 23 -2 2 0.13315501D-01 0.16775968D+00 0.41174177D+05 0.41174177D+05 0.41174177D+05 0.11547891D+01  1  2 11  4  7  2        2 0.305204281869D-05 0.100000000000D+01
  </mgrwgt>
  </event>
  <event>
  8     66 0.53686478E-06 0.18972805E+03 0.75467711E-02 0.10684720E+00
       -2 -1    0    0    0  501 0.00000000E+00 0.00000000E+00 0.60618993E+02 0.60619837E+02 0.32000000E+00 0.0000E+00 0.9000E+01
        2 -1    0    0  501    0 0.00000000E+00 0.00000000E+00 -.84607622E+03 0.84607628E+03 0.32000000E+00 0.0000E+00 0.9000E+01
       25  2    1    2    0    0 -.57075452E+02 0.41837854E+02 -.39643502E+03 0.50078496E+03 0.29768581E+03 0.0000E+00 0.0000E+00
       23  2    1    2    0    0 0.57075452E+02 -.41837854E+02 -.38902221E+03 0.40591116E+03 0.91747348E+02 0.0000E+00 0.0000E+00
       23  1    3    3    0    0 -.12000811E+03 0.75802863E+02 -.32063170E+03 0.36230920E+03 0.91188000E+02 0.0000E+00 0.9000E+01
      -13  1    4    4    0    0 0.69022909E+02 -.23384209E+02 -.15975411E+03 0.17559149E+03 0.10565837E+00 0.0000E+00 0.9000E+01
       13  1    4    4    0    0 -.11947457E+02 -.18453645E+02 -.22926810E+03 0.23031967E+03 0.10565837E+00 0.0000E+00 0.9000E+01
       23  1    3    3    0    0 0.62932654E+02 -.33965009E+02 -.75803315E+02 0.13847576E+03 0.91188000E+02 0.0000E+00 0.9000E+01
#aMCatNLO 1  0  0  1  1 0.63880267D+01 0.00000000D+00  -5  7  0 0.00000000D+00 0.00000000D+00 0.00000000D+00 0.00000000D+00 0.00000000D+00
  <mgrwgt>
 0.8861244146D-04    6    2    0
 0.226470083395007D+03 0.000000000000000D+00 0.000000000000000D+00 0.226470083395007D+03
 0.226470083395007D+03 0.000000000000000D+00 0.000000000000000D+00 -.226470083395007D+03
 0.169253832459569D+03 -.120008102471576D+03 0.758028615618602D+02 -.135495379425670D+02
 0.744648216565528D+02 0.690230209268771D+02 -.233842205461631D+02 -.152974009530538D+02
 0.634734233019713D+02 -.119475562052660D+02 -.184536424499122D+02 -.595448943799889D+02
 0.145748089371920D+03 0.629326377499647D+02 -.339649985657848D+02 0.883918332756097D+02
 0.000000000000000D+00 -.000000000000000D+00 0.000000000000000D+00 -.000000000000000D+00
 0.227820451318344D+03 0.000000000000000D+00 0.000000000000000D+00 0.227820451318344D+03
 0.234175517260289D+03 0.000000000000000D+00 0.000000000000000D+00 -.234175517260289D+03
 0.167510171690639D+03 -.117638809356103D+03 0.756434189513448D+02 -.135495379425670D+02
 0.754656380661023D+02 0.700778522082576D+02 -.234552058759470D+02 -.152974009530538D+02
 0.633290887648234D+02 -.110554409103946D+02 -.185136777366254D+02 -.595448943799889D+02
 0.146680312690629D+03 0.649900090581718D+02 -.341034502626380D+02 0.883918332756097D+02
 0.901075736643936D+01 -.637361099993214D+01 0.428914923865647D+00 -.635506594194510D+01
0.439189018128D-06 0.000000000000D+00 0.000000000000D+00 0.929544492423D-08 0.000000000000D+00  7 -2 2 23 -13 13 23 21 0 0.93260685D-02 0.13016564D+00 0.35996734D+05 0.35996734D+05 0.35996734D+05 0.11600635D+01  1  2  2  1  7  1       -2 0.116602194117D-03 0.100000000000D+01
-.234697589993D-07 0.000000000000D+00 -.168660147074D-08 0.929544492423D-08 0.000000000000D+00  7 -2 2 23 -13 13 23 21 2 0.93260685D-02 0.13016564D+00 0.35996734D+05 0.35996734D+05 0.35996734D+05 0.11600635D+01  1  2  3  1  7  1       -2 -.838546930852D-05 0.100000000000D+01
0.290481474004D-07 0.000000000000D+00 0.000000000000D+00 0.929544492423D-08 0.000000000000D+00  7 -2 2 23 -13 13 23 21 2 0.93260685D-02 0.13016564D+00 0.35996734D+05 0.35996734D+05 0.35996734D+05 0.11600635D+01  1  2 15  1  7  1       -2 0.103785619828D-04 0.100000000000D+01
-.138233966224D-06 0.000000000000D+00 0.000000000000D+00 0.929544492423D-08 0.000000000000D+00  7 -2 2 23 -13 13 23 21 2 0.93260685D-02 0.13016564D+00 0.35996734D+05 0.35996734D+05 0.35996734D+05 0.11600635D+01  1  2  4  1  7  1       -2 -.493893729884D-04 0.100000000000D+01
0.460427195539D-07 0.000000000000D+00 0.000000000000D+00 0.929544492423D-08 0.163254400314D-08  7 -2 2 23 -13 13 23 21 2 0.93816768D-02 0.13459441D+00 0.37223362D+05 0.37223362D+05 0.37223362D+05 0.11587413D+01  1  2 11  1  7  1       -2 0.155927796582D-04 0.100000000000D+01
0.748784205491D-09 0.000000000000D+00 0.000000000000D+00 0.929544492423D-08 0.184951199678D-11  7 21 2 23 -13 13 23 2 2 0.93816768D-02 0.13459441D+00 0.37223362D+05 0.37223362D+05 0.37223362D+05 0.11587413D+01  1  2 11  3  7  1       -2 0.381374799628D-05 0.100000000000D+01
  </mgrwgt>
  </event>
  <event>
  8     66 0.53686478E-06 0.28620059E+03 0.75467711E-02 0.98038685E-01
       -2 -1    0    0    0  501 0.00000000E+00 0.00000000E+00 0.84634953E+02 0.84635558E+02 0.32000000E+00 0.0000E+00 0.9000E+01
        2 -1    0    0  501    0 0.00000000E+00 0.00000000E+00 -.12970849E+04 0.12970849E+04 0.32000000E+00 0.0000E+00 0.9000E+01
       25  2    1    2    0    0 -.20778673E+03 0.98985619E+02 -.95619713E+03 0.10254340E+04 0.29022129E+03 0.0000E+00 0.0000E+00
       23  2    1    2    0    0 0.20778673E+03 -.98985619E+02 -.25625278E+03 0.35628650E+03 0.91110385E+02 0.0000E+00 0.0000E+00
       23  1    3    3    0    0 -.20138398E+03 0.70688729E+02 -.41189731E+03 0.47278647E+03 0.91188000E+02 0.0000E+00 0.9000E+01
      -11  1    4    4    0    0 0.20918895E+03 -.77499626E+02 -.21537575E+03 0.31008535E+03 0.51099893E-03 0.0000E+00 0.9000E+01
       11  1    4    4    0    0 -.14022279E+01 -.21485993E+02 -.40877030E+02 0.46201144E+02 0.51099893E-03 0.0000E+00 0.9000E+01
       23  1    3    3    0    0 -.64027485E+01 0.28296890E+02 -.54429982E+03 0.55264749E+03 0.91188000E+02 0.0000E+00 0.9000E+01
#aMCatNLO 1  0  0  2  1 0.15312538D+03 0.00000000D+00  -5  7  0 0.00000000D+00 0.00000000D+00 0.00000000D+00 0.00000000D+00 0.00000000D+00
  <mgrwgt>
 0.8677586172D-03    3    2    0
 0.331329386804586D+03 0.000000000000000D+00 0.000000000000000D+00 0.331329386804586D+03
 0.331329386804586D+03 0.000000000000000D+00 0.000000000000000D+00 -.331329386804586D+03
 0.232176638217965D+03 -.201383977923240D+03 0.706887294632323D+02 0.619168417165527D+01
 0.252496414158753D+03 0.209188954289292D+03 -.774996260174240D+02 0.118271841676456D+03
 0.215430858828433D+02 -.140222789826024D+01 -.214859930000305D+02 -.700293566687712D+00
 0.156442635349610D+03 -.640274846779161D+01 0.282968895542221D+02 -.123763232281423D+03
 0.000000000000000D+00 -.000000000000000D+00 0.000000000000000D+00 0.000000000000000D+00
 0.621374890383590D+03 0.000000000000000D+00 0.000000000000000D+00 0.621374890383590D+03
 0.360897633228668D+03 0.000000000000000D+00 0.000000000000000D+00 -.360897633228668D+03
 0.191807927474586D+03 -.163731256529347D+03 0.403580026826868D+02 0.619168417165527D+01
 0.308028663671335D+03 0.258967404491489D+03 -.117598097435925D+03 0.118271841676456D+03
 0.249730394780338D+02 0.272872131607170D+01 -.248136327382974D+02 -.700293566687712D+00
 0.155310970976664D+03 0.212830982171479D+02 0.599486674146544D+01 -.123763232281423D+03
 0.302151922011639D+03 -.119247967495361D+03 0.960588607500705D+02 0.260477257154922D+03
0.998113635699D-05 0.000000000000D+00 0.000000000000D+00 0.184671574229D-08 0.000000000000D+00  7 -2 2 23 -11 11 23 21 0 0.13020812D-01 0.19955157D+00 0.81910780D+05 0.81910780D+05 0.81910780D+05 0.11289035D+01  1  2  2  2  7  2        2 0.858209912600D-03 0.100000000000D+01
-.540053505247D-06 0.000000000000D+00 -.383301917044D-07 0.184671574229D-08 0.000000000000D+00  7 -2 2 23 -11 11 23 21 2 0.13020812D-01 0.19955157D+00 0.81910780D+05 0.81910780D+05 0.81910780D+05 0.11289035D+01  1  2  3  2  7  2        2 -.591785067519D-04 0.100000000000D+01
0.627193442968D-06 0.000000000000D+00 0.000000000000D+00 0.184671574229D-08 0.000000000000D+00  7 -2 2 23 -11 11 23 21 2 0.13020812D-01 0.19955157D+00 0.81910780D+05 0.81910780D+05 0.81910780D+05 0.11289035D+01  1  2 15  2  7  2        2 0.687272113574D-04 0.100000000000D+01
  </mgrwgt>
  </event>
  <event>
  8     66 0.53686478E-06 0.61741113E+03 0.75467711E-02 0.88387076E-01
       -2 -1    0    0    0  501 0.00000000E+00 0.00000000E+00 0.68298141E+03 0.68298148E+03 0.32000000E+00 0.0000E+00 0.9000E+01
        2 -1    0    0  501    0 0.00000000E+00 0.00000000E+00 -.68057778E+03 0.68057786E+03 0.32000000E+00 0.0000E+00 0.9000E+01
       25  2    1    2    0    0 -.56380754E+03 0.12761004E+03 -.28548012E+03 0.71120820E+03 0.30025811E+03 0.0000E+00 0.0000E+00
       23  2    1    2    0    0 0.56380754E+03 -.12761004E+03 0.28788375E+03 0.65235115E+03 0.92313042E+02 0.0000E+00 0.0000E+00
       23  1    3    3    0    0 -.30462516E+03 0.18753805E+03 -.14229688E+03 0.39563956E+03 0.91188000E+02 0.0000E+00 0.9000E+01
      -11  1    4    4    0    0 0.56236852E+03 -.13381750E+03 0.28029291E+03 0.64244034E+03 0.51099893E-03 0.0000E+00 0.9000E+01
       11  1    4    4    0    0 0.14390266E+01 0.62074563E+01 0.75908400E+01 0.99108105E+01 0.51099893E-03 0.0000E+00 0.9000E+01
       23  1    3    3    0    0 -.25918238E+03 -.59928004E+02 -.14318323E+03 0.31556864E+03 0.91188000E+02 0.0000E+00 0.9000E+01
#aMCatNLO 1  0  0  2  1 0.48067948D+03 0.00000000D+00  -5  7  0 0.00000000D+00 0.00000000D+00 0.00000000D+00 0.00000000D+00 0.00000000D+00
  <mgrwgt>
 0.4964347805D-03    3    2    0
 0.681778611525279D+03 0.000000000000000D+00 0.000000000000000D+00 0.681778611525279D+03
 0.681778611525279D+03 0.000000000000000D+00 0.000000000000000D+00 -.681778611525279D+03
 0.395891010425176D+03 -.304625158002748D+03 0.187538049158018D+03 -.142994524445072D+03
 0.641947243588109D+03 0.562368516136496D+03 -.133817501175877D+03 0.279160871161865D+03
 0.989744501146237D+01 0.143902658569741D+01 0.620745633783337D+01 0.757338141482849D+01
 0.315821524025810D+03 -.259182384719445D+03 -.599280043199746D+02 -.143739728131621D+03
 0.000000000000000D+00 -.000000000000000D+00 -.000000000000000D+00 0.000000000000000D+00
 0.159013500464608D+04 0.000000000000000D+00 0.000000000000000D+00 0.159013500464608D+04
 0.789506793900986D+03 0.000000000000000D+00 0.000000000000000D+00 -.789506793900986D+03
 0.471371075966011D+03 -.285350234058726D+03 0.334668865917809D+03 -.142994524445072D+03
 0.659644430895944D+03 0.591296427232262D+03 0.869972319476043D+02 0.279160871161865D+03
 0.127300158112445D+02 0.194192253058863D+01 0.100461999475055D+02 0.757338141482849D+01
 0.302055660993620D+03 -.245450047130984D+03 0.448947203392286D+02 -.143739728131621D+03
 0.933840614880247D+03 -.624380685731403D+02 -.476607018152148D+03 0.800628210745095D+03
0.127515911456D-03 0.000000000000D+00 0.000000000000D+00 0.220767059612D-05 0.000000000000D+00  7 -2 2 23 -11 11 23 21 0 0.10507407D+00 0.10470429D+00 0.38119650D+06 0.38119650D+06 0.38119650D+06 0.10769383D+01  1  2  2  2  7  2        2 0.491424882129D-03 0.100000000000D+01
-.699950769131D-05 0.000000000000D+00 -.489694675703D-06 0.220767059612D-05 0.000000000000D+00  7 -2 2 23 -11 11 23 21 2 0.10507407D+00 0.10470429D+00 0.38119650D+06 0.38119650D+06 0.38119650D+06 0.10769383D+01  1  2  3  2  7  2        2 -.312854156965D-04 0.100000000000D+01
0.812037570818D-05 0.000000000000D+00 0.000000000000D+00 0.220767059612D-05 0.000000000000D+00  7 -2 2 23 -11 11 23 21 2 0.10507407D+00 0.10470429D+00 0.38119650D+06 0.38119650D+06 0.38119650D+06 0.10769383D+01  1  2 15  2  7  2        2 0.362953140200D-04 0.100000000000D+01
  </mgrwgt>
  </event>
  <event>
  8     66 0.53686478E-06 0.11950472E+03 0.75467711E-02 0.10722136E+00
       -2 -1    0    0    0  501 0.00000000E+00 0.00000000E+00 0.18433896E+04 0.18433896E+04 0.32000000E+00 0.0000E+00 0.9000E+01
        2 -1    0    0  501    0 0.00000000E+00 0.00000000E+00 -.33990683E+02 0.33992189E+02 0.32000000E+00 0.0000E+00 0.9000E+01
       25  2    1    2    0    0 -.11614520E+02 0.61432558E+01 0.67062190E+03 0.73479964E+03 0.30004023E+03 0.0000E+00 0.0000E+00
       23  2    1    2    0    0 0.11614520E+02 -.61432558E+01 0.11387770E+04 0.11425822E+04 0.92240493E+02 0.0000E+00 0.0000E+00
       23  1    3    3    0    0 -.32383470E+02 0.92166873E+02 0.52402375E+03 0.54079530E+03 0.91188000E+02 0.0000E+00 0.9000E+01
      -13  1    4    4    0    0 -.40410790E+02 -.74891751E+01 0.48819979E+03 0.48992669E+03 0.10565837E+00 0.0000E+00 0.9000E+01
       13  1    4    4    0    0 0.52025311E+02 0.13459193E+01 0.65057722E+03 0.65265548E+03 0.10565837E+00 0.0000E+00 0.9000E+01
       23  1    3    3    0    0 0.20768949E+02 -.86023617E+02 0.14659816E+03 0.19400434E+03 0.91188000E+02 0.0000E+00 0.9000E+01
#aMCatNLO 1  0  0  1  2 0.22424207D+02 0.00000000D+00  -5  7  0 0.00000000D+00 0.00000000D+00 0.00000000D+00 0.00000000D+00 0.00000000D+00
  <mgrwgt>
 0.3242144814D-03    9    2    0
 0.250318820476002D+03 0.000000000000000D+00 0.000000000000000D+00 0.250318820476002D+03
 0.250318820476002D+03 0.000000000000000D+00 0.000000000000000D+00 -.250318820476002D+03
 0.134051585479286D+03 -.323834700844596D+02 0.921668734129539D+02 0.105429851597980D+02
 0.727697564955872D+02 -.404108973519491D+02 -.748918545433605D+01 0.600525514600991D+02
 0.961370534500714D+02 0.520254185913142D+02 0.134592913161930D+01 0.808324027926493D+02
 0.197679245527060D+03 0.207689488450946D+02 -.860236170902371D+02 -.151427939412546D+03
 0.000000000000000D+00 0.000000000000000D+00 0.000000000000000D+00 0.000000000000000D+00
 0.264040261544459D+03 0.000000000000000D+00 0.000000000000000D+00 0.264040261544459D+03
 0.259902159522880D+03 0.000000000000000D+00 0.000000000000000D+00 -.259902159522880D+03
 0.134985314026114D+03 -.383342716756580D+02 0.912420557514220D+02 0.105429851597980D+02
 0.746828173673332D+02 -.436723868085363D+02 -.799605549631710D+01 0.600525514600991D+02
 0.939215408068748D+02 0.478215306220267D+02 0.692600368844117D+00 0.808324027926493D+02
 0.197549921701791D+03 0.120269124866721D+02 -.873822222290776D+02 -.151427939412546D+03
 0.228028271652255D+02 0.221582153754954D+02 0.344362160512857D+01 0.413810202157886D+01
0.159889571264D-04 0.000000000000D+00 0.000000000000D+00 0.147734330556D-06 0.000000000000D+00  7 -2 2 23 -13 13 23 21 0 0.28359852D+00 0.52294539D-02 0.31302049D+05 0.31302049D+05 0.31302049D+05 0.11656278D+01  1  2  2  1  7  1       -2 0.118408465517D-03 0.100000000000D+01
-.758220097348D-06 0.000000000000D+00 -.614018053544D-07 0.147734330556D-06 0.000000000000D+00  7 -2 2 23 -13 13 23 21 2 0.28359852D+00 0.52294539D-02 0.31302049D+05 0.31302049D+05 0.31302049D+05 0.11656278D+01  1  2  3  1  7  1       -2 -.762917741921D-05 0.100000000000D+01
0.989460914194D-06 0.000000000000D+00 0.000000000000D+00 0.147734330556D-06 0.000000000000D+00  7 -2 2 23 -13 13 23 21 2 0.28359852D+00 0.52294539D-02 0.31302049D+05 0.31302049D+05 0.31302049D+05 0.11656278D+01  1  2 15  1  7  1       -2 0.995591239294D-05 0.100000000000D+01
0.309289457093D-04 0.000000000000D+00 0.000000000000D+00 0.147734330556D-06 0.000000000000D+00  7 -2 2 23 -13 13 23 21 2 0.30432058D+00 0.52294539D-02 0.35360980D+05 0.35360980D+05 0.35360980D+05 0.11607684D+01  1  2 12  1  7  1       -2 0.228347331869D-03 0.100000000000D+01
-.268649384465D-04 0.000000000000D+00 0.000000000000D+00 0.147734330556D-06 0.000000000000D+00  7 -2 2 23 -13 13 23 21 2 0.28359852D+00 0.52294539D-02 0.31302049D+05 0.31302049D+05 0.31302049D+05 0.11656278D+01  1  2  4  1  7  1       -2 -.270313834309D-03 0.100000000000D+01
-.107811135060D-03 0.000000000000D+00 -.212427259952D-04 0.147734330556D-06 0.000000000000D+00  7 -2 2 23 -13 13 23 21 2 0.30484930D+00 0.52294539D-02 0.31302049D+05 0.31302049D+05 0.31302049D+05 0.11656278D+01  1  2  5  1  7  1       -2 -.799380441883D-03 0.100000000000D+01
0.109116443231D-03 0.000000000000D+00 0.211873899718D-04 0.147734330556D-06 0.000000000000D+00  7 -2 2 23 -13 13 23 21 2 0.28359852D+00 0.52294539D-02 0.31302049D+05 0.31302049D+05 0.31302049D+05 0.11656278D+01  1  2  6  1  7  1       -2 0.109792487389D-02 0.100000000000D+01
0.377391757556D-06 0.000000000000D+00 0.000000000000D+00 0.147734330556D-06 0.000000000000D+00  7 21 2 23 -13 13 23 2 2 0.30432058D+00 0.52294539D-02 0.35360980D+05 0.35360980D+05 0.35360980D+05 0.11607684D+01  1  2 12  3  7  1       -2 0.219765474615D-04 0.100000000000D+01
-.127690372780D-05 0.000000000000D+00 -.259071007334D-06 0.147734330556D-06 0.000000000000D+00  7 21 2 23 -13 13 23 2 2 0.30484930D+00 0.52294539D-02 0.31302049D+05 0.31302049D+05 0.31302049D+05 0.11656278D+01  1  2  5  3  7  1       -2 -.750751960678D-04 0.100000000000D+01
  </mgrwgt>
  </event>
  <event>
  7     66 0.53686478E-06 0.52556665E+03 0.75467711E-02 0.83997319E-01
       -2 -1    0    0    0  501 0.00000000E+00 0.00000000E+00 0.12472638E+03 0.12472679E+03 0.32000000E+00 0.0000E+00 0.9000E+01
        2 -1    0    0  501    0 0.00000000E+00 0.00000000E+00 -.22699007E+04 0.22699007E+04 0.32000000E+00 0.0000E+00 0.9000E+01
       23  2    1    2    0    0 0.26677061E+02 0.47484116E+03 -.89629164E+03 0.10187359E+04 0.91094998E+02 0.0000E+00 0.0000E+00
       23  1    1    2    0    0 0.15082846E+02 -.46568094E+03 -.10701762E+04 0.11707598E+04 0.91188000E+02 0.0000E+00 0.9000E+01
      -11  1    3    3    0    0 0.20582564E+02 0.41371956E+03 -.70348703E+03 0.81638320E+03 0.51099893E-03 0.0000E+00 0.9000E+01
       11  1    3    3    0    0 0.60944963E+01 0.61121599E+02 -.19280460E+03 0.20235268E+03 0.51099893E-03 0.0000E+00 0.9000E+01
       23  1    1    2    0    0 -.41759907E+02 -.91602238E+01 -.17870653E+03 0.20513184E+03 0.91188000E+02 0.0000E+00 0.9000E+01
#aMCatNLO 1  0  0  1  2 0.12483789D+04 0.00000000D+00  -5  7  0 0.00000000D+00 0.00000000D+00 0.00000000D+00 0.00000000D+00 0.00000000D+00
  <mgrwgt>
 0.3919400694D-03    5    2    0
 0.532087414116494D+03 0.000000000000000D+00 0.000000000000000D+00 0.532087414116494D+03
 0.532087414116494D+03 0.000000000000000D+00 0.000000000000000D+00 -.532087414116494D+03
 0.477195271016383D+03 0.150828456456165D+02 -.465680937967463D+03 -.481024647744095D+02
 0.418945587198189D+03 0.205825644228193D+02 0.413719563790213D+03 0.626728458892002D+02
 0.666805990155444D+02 0.609449628127323D+01 0.611215986749652D+02 -.259482094867036D+02
 0.101353371002871D+03 -.417599063497090D+02 -.916022449771469D+01 0.113778283719129D+02
 0.000000000000000D+00 0.000000000000000D+00 -.000000000000000D+00 0.000000000000000D+00
 0.147645755840037D+04 0.000000000000000D+00 0.000000000000000D+00 0.147645755840037D+04
 0.141389000271069D+04 0.000000000000000D+00 0.000000000000000D+00 -.141389000271069D+04
 0.350381090560962D+03 -.264492749685271D+03 -.205381098266710D+03 -.481024647744095D+02
 0.958841894778191D+03 -.444867844019025D+03 0.847078800896259D+03 0.626728458892002D+02
 0.146413335976740D+03 -.658938621383882D+02 0.128146612552805D+03 -.259482094867036D+02
 0.184765427876377D+03 -.138417855085172D+03 0.808334980654687D+02 0.113778283719129D+02
 0.124994581191879D+04 0.913672310927857D+03 -.850677813247823D+03 0.625675556896874D+02
0.294811731503D-04 0.000000000000D+00 0.000000000000D+00 0.186074044111D-08 0.000000000000D+00  7 -2 2 23 -11 11 23 21 0 0.19188707D-01 0.34921553D+00 0.27622030D+06 0.27622030D+06 0.27622030D+06 0.10872154D+01  1  2  2  1  7  1       -2 0.387754934178D-03 0.100000000000D+01
-.163754016781D-05 0.000000000000D+00 -.113215467468D-06 0.186074044111D-08 0.000000000000D+00  7 -2 2 23 -11 11 23 21 2 0.19188707D-01 0.34921553D+00 0.27622030D+06 0.27622030D+06 0.27622030D+06 0.10872154D+01  1  2  3  1  7  1       -2 -.254586697244D-04 0.100000000000D+01
0.186768741317D-05 0.000000000000D+00 0.000000000000D+00 0.186074044111D-08 0.000000000000D+00  7 -2 2 23 -11 11 23 21 2 0.19188707D-01 0.34921553D+00 0.27622030D+06 0.27622030D+06 0.27622030D+06 0.10872154D+01  1  2 15  1  7  1       -2 0.290367454399D-04 0.100000000000D+01
0.180284446817D-03 0.000000000000D+00 -.482498717905D-04 0.186074044111D-08 0.000000000000D+00  7 -2 2 23 -11 11 23 21 2 0.47584954D+00 0.34921553D+00 0.27622030D+06 0.27622030D+06 0.27622030D+06 0.10872154D+01  1  2  5  1  7  1       -2 0.180971931673D-06 0.100000000000D+01
0.463971026636D-04 0.000000000000D+00 -.159941165894D-04 0.186074044111D-08 0.000000000000D+00  7 21 2 23 -11 11 23 2 2 0.47584954D+00 0.34921553D+00 0.27622030D+06 0.27622030D+06 0.27622030D+06 0.10872154D+01  1  2  5  3  7  1       -2 0.426087546503D-06 0.100000000000D+01
  </mgrwgt>
  </event>
  <event>
  8     66 0.53686478E-06 0.19333516E+03 0.75467711E-02 0.10219756E+00
       -2 -1    0    0    0  501 0.00000000E+00 0.00000000E+00 0.50091172E+02 0.50092194E+02 0.32000000E+00 0.0000E+00 0.9000E+01
        2 -1    0    0  501    0 0.00000000E+00 0.00000000E+00 -.93860629E+03 0.93860635E+03 0.32000000E+00 0.0000E+00 0.9000E+01
       25  2    1    2    0    0 -.12575555E+02 -.75815059E+02 -.64339240E+03 0.71413819E+03 0.30022243E+03 0.0000E+00 0.0000E+00
       23  2    1    2    0    0 0.12575555E+02 0.75815059E+02 -.24512272E+03 0.27456035E+03 0.96913205E+02 0.0000E+00 0.0000E+00
       23  1    3    3    0    0 0.10724263E+03 -.45326828E+00 -.26831531E+03 0.30300090E+03 0.91188000E+02 0.0000E+00 0.9000E+01
      -11  1    4    4    0    0 0.71502912E+01 0.65293129E+02 -.59700914E+02 0.88761019E+02 0.51099893E-03 0.0000E+00 0.9000E+01
       11  1    4    4    0    0 0.54252638E+01 0.10521930E+02 -.18542181E+03 0.18579933E+03 0.51099893E-03 0.0000E+00 0.9000E+01
       23  1    3    3    0    0 -.11981819E+03 -.75361791E+02 -.37507708E+03 0.41113729E+03 0.91188000E+02 0.0000E+00 0.9000E+01
#aMCatNLO 1  0  0  1  2 0.13684907D+03 0.00000000D+00  -5  7  0 0.00000000D+00 0.00000000D+00 0.00000000D+00 0.00000000D+00 0.00000000D+00
  <mgrwgt>
 0.3032361699D-03    4    2    0
 0.216832703342053D+03 0.000000000000000D+00 0.000000000000000D+00 0.216832703342053D+03
 0.216832703342053D+03 0.000000000000000D+00 0.000000000000000D+00 -.216832703342053D+03
 0.141063447033610D+03 0.107242634786938D+03 -.453268793738189D+00 0.908056035496720D+01
 0.800449493545111D+02 0.715029129988293D+01 0.652931299442265D+02 0.457479445831113D+02
 0.436960086429543D+02 0.542526387122473D+01 0.105219304570394D+02 -.420618195363675D+02
 0.168861001653031D+03 -.119818189958045D+03 -.753617916075277D+02 -.127666854017110D+02
 0.000000000000000D+00 0.000000000000000D+00 0.000000000000000D+00 -.000000000000000D+00
 0.273263082713650D+03 0.000000000000000D+00 0.000000000000000D+00 0.273263082713650D+03
 0.329396581284621D+03 0.000000000000000D+00 0.000000000000000D+00 -.329396581284621D+03
 0.118175705085406D+03 0.720646913239117D+02 -.193512174413404D+02 0.908056035496720D+01
 0.721973240885832D+02 -.135085098267500D+02 0.541950120789090D+02 0.457479445831113D+02
 0.427405179618616D+02 -.630390288923662D+01 0.422090290119786D+01 -.420618195363675D+02
 0.221631824627370D+03 -.172806847162504D+03 -.103827836639631D+03 -.127666854017110D+02
 0.147914292235050D+03 0.120554568554579D+03 0.647631391008641D+02 -.561334985709705D+02
0.123547072991D-05 0.000000000000D+00 0.000000000000D+00 0.920947330906D-08 0.000000000000D+00  7 -2 2 23 -11 11 23 21 0 0.77064169D-02 0.14440105D+00 0.37378484D+05 0.37378484D+05 0.37378484D+05 0.11585776D+01  1  2  2  1  7  1       -2 0.382340155684D-03 0.100000000000D+01
-.675393327243D-07 0.000000000000D+00 -.474453290979D-08 0.920947330906D-08 0.000000000000D+00  7 -2 2 23 -11 11 23 21 2 0.77064169D-02 0.14440105D+00 0.37378484D+05 0.37378484D+05 0.37378484D+05 0.11585776D+01  1  2  3  1  7  1       -2 -.280559165422D-04 0.100000000000D+01
0.781512292896D-07 0.000000000000D+00 0.000000000000D+00 0.920947330906D-08 0.000000000000D+00  7 -2 2 23 -11 11 23 21 2 0.77064169D-02 0.14440105D+00 0.37378484D+05 0.37378484D+05 0.37378484D+05 0.11585776D+01  1  2 15  1  7  1       -2 0.324641105883D-04 0.100000000000D+01
-.201039837521D-06 0.000000000000D+00 0.000000000000D+00 0.920947330906D-08 0.000000000000D+00  7 -2 2 23 -11 11 23 21 2 0.77064169D-02 0.14440105D+00 0.37378484D+05 0.37378484D+05 0.37378484D+05 0.11585776D+01  1  2  4  1  7  1       -2 -.835121798757D-04 0.100000000000D+01
  </mgrwgt>
  </event>
  <event>
  8     66 0.53686478E-06 0.39844799E+03 0.75467711E-02 0.93028552E-01
       -2 -1    0    0    0  501 0.00000000E+00 0.00000000E+00 0.21745643E+03 0.21745666E+03 0.32000000E+00 0.0000E+00 0.9000E+01
        2 -1    0    0  501    0 0.00000000E+00 0.00000000E+00 -.80165437E+03 0.80165443E+03 0.32000000E+00 0.0000E+00 0.9000E+01
       25  2    1    2    0    0 -.21692607E+03 -.26091423E+03 -.18890334E+03 0.49055767E+03 0.29971519E+03 0.0000E+00 0.0000E+00
       23  2    1    2    0    0 0.21692607E+03 0.26091423E+03 -.39529459E+03 0.52855343E+03 0.89318278E+02 0.0000E+00 0.0000E+00
       23  1    3    3    0    0 0.31579145E+02 -.87202695E+02 -.92456633E+02 0.15957767E+03 0.91188000E+02 0.0000E+00 0.9000E+01
      -11  1    4    4    0    0 0.16806986E+02 -.48861993E+01 -.27518378E+02 0.32613047E+02 0.51099893E-03 0.0000E+00 0.9000E+01
       11  1    4    4    0    0 0.20011908E+03 0.26580043E+03 -.36777622E+03 0.49594038E+03 0.51099893E-03 0.0000E+00 0.9000E+01
       23  1    3    3    0    0 -.24850522E+03 -.17371153E+03 -.96446710E+02 0.33098000E+03 0.91188000E+02 0.0000E+00 0.9000E+01
#aMCatNLO 1  0  0  1  2 0.30559535D+03 0.00000000D+00  -5  7  0 0.00000000D+00 0.00000000D+00 0.00000000D+00 0.00000000D+00 0.00000000D+00
  <mgrwgt>
 0.4777874992D-03    3    2    0
 0.417522512825908D+03 0.000000000000000D+00 0.000000000000000D+00 0.417522512825908D+03
 0.417522512825908D+03 0.000000000000000D+00 0.000000000000000D+00 -.417522512825908D+03
 0.130070111980974D+03 0.315791452786706D+02 -.872026953719431D+02 -.119590554802040D+01
 0.205499560997075D+02 0.168069859408951D+02 -.488619929740964D+01 -.107680534781573D+02
 0.347962359896645D+03 0.200119084220748D+03 0.265800429198360D+03 -.101883697780653D+03
 0.336462597674489D+03 -.248505215440313D+03 -.173711534529007D+03 0.113847656806831D+03
 0.000000000000000D+00 -.000000000000000D+00 -.000000000000000D+00 -.000000000000000D+00
 0.502519786391692D+03 0.000000000000000D+00 0.000000000000000D+00 0.502519786391692D+03
 0.847721196404795D+03 0.000000000000000D+00 0.000000000000000D+00 -.847721196404795D+03
 0.124923872651113D+03 0.643630661234170D+02 -.560953486776259D+02 -.119590554802040D+01
 0.251138385163945D+02 0.226778625826520D+02 0.684439918063193D+00 -.107680534781573D+02
 0.490612351801849D+03 0.307932478369615D+03 0.368100231774211D+03 -.101883697780653D+03
 0.248556724414892D+03 -.173290785673675D+03 -.102343580883489D+03 0.113847656806831D+03
 0.461034195412238D+03 -.221682621402009D+03 -.210345742131160D+03 -.345201410013104D+03
0.134610271866D-04 0.000000000000D+00 0.000000000000D+00 0.285263290794D-06 0.000000000000D+00  7 -2 2 23 -11 11 23 21 0 0.33454858D-01 0.12333146D+00 0.15876080D+06 0.15876080D+06 0.15876080D+06 0.11056117D+01  1  2  2  1  7  1       -2 0.472243332037D-03 0.100000000000D+01
-.745846626432D-06 0.000000000000D+00 -.516938887664D-07 0.285263290794D-06 0.000000000000D+00  7 -2 2 23 -11 11 23 21 2 0.33454858D-01 0.12333146D+00 0.15876080D+06 0.15876080D+06 0.15876080D+06 0.11056117D+01  1  2  3  1  7  1       -2 -.319847123284D-04 0.100000000000D+01
0.875130215279D-06 0.000000000000D+00 0.000000000000D+00 0.285263290794D-06 0.000000000000D+00  7 -2 2 23 -11 11 23 21 2 0.33454858D-01 0.12333146D+00 0.15876080D+06 0.15876080D+06 0.15876080D+06 0.11056117D+01  1  2 15  1  7  1       -2 0.375288795224D-04 0.100000000000D+01
  </mgrwgt>
  </event>
  <event>
  8     66 0.53686478E-06 0.39731049E+03 0.75467711E-02 0.91335157E-01
       -2 -1    0    0    0  501 0.00000000E+00 0.00000000E+00 0.34059688E+03 0.34059703E+03 0.32000000E+00 0.0000E+00 0.9000E+01
        2 -1    0    0  501    0 0.00000000E+00 0.00000000E+00 -.11202208E+04 0.11202208E+04 0.32000000E+00 0.0000E+00 0.9000E+01
       25  2    1    2    0    0 0.27962508E+03 0.21577172E+03 -.95089130E+03 0.10577875E+04 0.29995405E+03 0.0000E+00 0.0000E+00
       23  2    1    2    0    0 -.27962508E+03 -.21577172E+03 0.17126741E+03 0.40303038E+03 0.91396621E+02 0.0000E+00 0.0000E+00
       23  1    3    3    0    0 0.26225682E+03 0.11463447E+03 -.47092140E+03 0.55857132E+03 0.91188000E+02 0.0000E+00 0.9000E+01
      -11  1    4    4    0    0 -.23383112E+03 -.20235259E+03 0.11664454E+03 0.33049888E+03 0.51099893E-03 0.0000E+00 0.9000E+01
       11  1    4    4    0    0 -.45793955E+02 -.13419125E+02 0.54622872E+02 0.72531493E+02 0.51099893E-03 0.0000E+00 0.9000E+01
       23  1    3    3    0    0 0.17368251E+02 0.10113724E+03 -.47996991E+03 0.49921615E+03 0.91188000E+02 0.0000E+00 0.9000E+01
#aMCatNLO 1  0  0  2  1 0.44699058D+03 0.00000000D+00  -5  7  0 0.00000000D+00 0.00000000D+00 0.00000000D+00 0.00000000D+00 0.00000000D+00
  <mgrwgt>
 0.4408343240D-03    6    2    0
 0.617692349156932D+03 0.000000000000000D+00 0.000000000000000D+00 0.617692349156932D+03
 0.617692349156932D+03 0.000000000000000D+00 0.000000000000000D+00 -.617692349156932D+03
 0.363311425308816D+03 0.262256824459971D+03 0.114634474006727D+03 -.204353213356915D+03
 0.464420141238949D+03 -.233831120605816D+03 -.202352592982692D+03 0.346500364700839D+03
 0.120238331725201D+03 -.457939553402448D+02 -.134191250462839D+02 0.110363477443162D+03
 0.287414800040899D+03 0.173682514860898D+02 0.101137244022249D+03 -.252510628787086D+03
 0.000000000000000D+00 0.000000000000000D+00 0.000000000000000D+00 -.000000000000000D+00
 0.768891066227326D+03 0.000000000000000D+00 0.000000000000000D+00 0.768891066227326D+03
 0.110282940489231D+04 0.000000000000000D+00 0.000000000000000D+00 -.110282940489231D+04
 0.288391731555573D+03 0.178032369021498D+03 0.374002574445403D+02 -.204353213356915D+03
 0.605725826534496D+03 -.372134058724237D+03 -.329177029165934D+03 0.346500364700839D+03
 0.143360498098136D+03 -.798607964507122D+02 -.446585764647324D+02 0.110363477443162D+03
 0.276285974469681D+03 -.554830002890771D+02 0.343323080076732D+02 -.252510628787086D+03
 0.557956440461753D+03 0.329445486442528D+03 0.302103040178453D+03 -.333938338664988D+03
0.321751276660D-04 0.000000000000D+00 0.000000000000D+00 0.371500427432D-05 0.000000000000D+00  7 -2 2 23 -11 11 23 21 0 0.52399535D-01 0.17234167D+00 0.15785563D+06 0.15785563D+06 0.15785563D+06 0.11058067D+01  1  2  2  2  7  2        2 0.304493319874D-03 0.100000000000D+01
-.136430979527D-05 0.000000000000D+00 -.123560962143D-06 0.371500427432D-05 0.000000000000D+00  7 -2 2 23 -11 11 23 21 2 0.52399535D-01 0.17234167D+00 0.15785563D+06 0.15785563D+06 0.15785563D+06 0.11058067D+01  1  2  3  2  7  2        2 -.157880656712D-04 0.100000000000D+01
0.187750206800D-05 0.000000000000D+00 0.000000000000D+00 0.371500427432D-05 0.000000000000D+00  7 -2 2 23 -11 11 23 21 2 0.52399535D-01 0.17234167D+00 0.15785563D+06 0.15785563D+06 0.15785563D+06 0.11058067D+01  1  2 15  2  7  2        2 0.217268292364D-04 0.100000000000D+01
-.834396645175D-05 0.000000000000D+00 -.952594398803D-05 0.371500427432D-05 0.000000000000D+00  7 -2 2 23 -11 11 23 21 2 0.52399535D-01 0.33783925D+00 0.15785563D+06 0.15785563D+06 0.15785563D+06 0.11058067D+01  1  2  5  2  7  2        2 -.248101097333D-04 0.100000000000D+01
0.134145184403D-04 0.000000000000D+00 0.771201343189D-05 0.371500427432D-05 0.000000000000D+00  7 -2 2 23 -11 11 23 21 2 0.52399535D-01 0.17234167D+00 0.15785563D+06 0.15785563D+06 0.15785563D+06 0.11058067D+01  1  2  6  2  7  2        2 0.155235488903D-03 0.100000000000D+01
-.466480631605D-07 0.000000000000D+00 -.694574110667D-06 0.371500427432D-05 0.000000000000D+00  7 -2 21 23 -11 11 23 -2 2 0.52399535D-01 0.33783925D+00 0.15785563D+06 0.15785563D+06 0.15785563D+06 0.11058067D+01  1  2  5  4  7  2        2 -.231386348816D-07 0.100000000000D+01
  </mgrwgt>
  </event>
  <event>
  8     66 0.53686478E-06 0.74551524E+03 0.75467711E-02 0.86317452E-01
       -2 -1    0    0    0  501 0.00000000E+00 0.00000000E+00 0.44149384E+03 0.44149396E+03 0.32000000E+00 0.0000E+00 0.9000E+01
        2 -1    0    0  501    0 0.00000000E+00 0.00000000E+00 -.14182512E+04 0.14182512E+04 0.32000000E+00 0.0000E+00 0.9000E+01
       25  2    1    2    0    0 -.48465271E+03 -.52916387E+03 -.21087621E+03 0.80634052E+03 0.30135296E+03 0.0000E+00 0.0000E+00
       23  2    1    2    0    0 0.48465271E+03 0.52916387E+03 -.76588115E+03 0.10534047E+04 0.90469963E+02 0.0000E+00 0.0000E+00
       23  1    3    3    0    0 -.46027843E+03 -.43463956E+03 -.13853250E+03 0.65442668E+03 0.91188000E+02 0.0000E+00 0.9000E+01
      -13  1    4    4    0    0 0.10067339E+03 0.12233950E+03 -.22565927E+03 0.27572487E+03 0.10565837E+00 0.0000E+00 0.9000E+01
       13  1    4    4    0    0 0.38397932E+03 0.40682437E+03 -.54022188E+03 0.77767980E+03 0.10565837E+00 0.0000E+00 0.9000E+01
       23  1    3    3    0    0 -.24374288E+02 -.94524310E+02 -.72343704E+02 0.15191384E+03 0.91188000E+02 0.0000E+00 0.9000E+01
#aMCatNLO 1  0  0  1  1 0.62598678D+03 0.00000000D+00  -5  7  0 0.00000000D+00 0.00000000D+00 0.00000000D+00 0.00000000D+00 0.00000000D+00
  <mgrwgt>
 0.5499695229D-03    3    2    0
 0.791295966939770D+03 0.000000000000000D+00 0.000000000000000D+00 0.791295966939770D+03
 0.791295966939770D+03 0.000000000000000D+00 0.000000000000000D+00 -.791295966939770D+03
 0.683533261962135D+03 -.460278425423881D+03 -.434639557662889D+03 0.241111374407179D+03
 0.184736685170601D+03 0.100673002618440D+03 0.122339110961660D+03 -.950038489784493D+02
 0.580453755769756D+03 0.383979710726329D+03 0.406824756636398D+03 -.154854001322135D+03
 0.133868230977048D+03 -.243742879208877D+02 -.945243099351698D+02 0.874647589340568D+01
 0.000000000000000D+00 -.000000000000000D+00 -.000000000000000D+00 -.000000000000000D+00
 0.105743179011690D+04 0.000000000000000D+00 0.000000000000000D+00 0.105743179011690D+04
 0.132539459445269D+04 0.000000000000000D+00 0.000000000000000D+00 -.132539459445269D+04
 0.522733329043808D+03 -.402212034930660D+03 -.212192521163309D+03 0.241111374407179D+03
 0.255542662325356D+03 0.121866852061357D+03 0.203530811712296D+03 -.950038489784493D+02
 0.818273402354344D+03 0.451310629084414D+03 0.664763352893726D+03 -.154854001322135D+03
 0.105348570013177D+03 -.128590422178182D+02 -.504104557855582D+02 0.874647589340568D+01
 0.680928420832905D+03 -.158106403997293D+03 -.605691187657156D+03 -.267962804335793D+03
0.153589731796D-03 0.000000000000D+00 0.000000000000D+00 0.529805211237D-06 0.000000000000D+00  7 -2 2 23 -13 13 23 21 0 0.67922141D-01 0.21819250D+00 0.55579298D+06 0.55579298D+06 0.55579298D+06 0.10652785D+01  1  2  2  1  7  1       -2 0.544591287237D-03 0.100000000000D+01
-.849591500363D-05 0.000000000000D+00 -.589825011201D-06 0.529805211237D-06 0.000000000000D+00  7 -2 2 23 -13 13 23 21 2 0.67922141D-01 0.21819250D+00 0.55579298D+06 0.55579298D+06 0.55579298D+06 0.10652785D+01  1  2  3  1  7  1       -2 -.341857377264D-04 0.100000000000D+01
0.983252600534D-05 0.000000000000D+00 0.000000000000D+00 0.529805211237D-06 0.000000000000D+00  7 -2 2 23 -13 13 23 21 2 0.67922141D-01 0.21819250D+00 0.55579298D+06 0.55579298D+06 0.55579298D+06 0.10652785D+01  1  2 15  1  7  1       -2 0.395639733994D-04 0.100000000000D+01
  </mgrwgt>
  </event>
  <event>
  8     66 0.53686478E-06 0.26449723E+03 0.75467711E-02 0.10108565E+00
       -2 -1    0    0    0  501 0.00000000E+00 0.00000000E+00 0.54759411E+02 0.54760346E+02 0.32000000E+00 0.0000E+00 0.9000E+01
        2 -1    0    0  501    0 0.00000000E+00 0.00000000E+00 -.18024360E+04 0.18024360E+04 0.32000000E+00 0.0000E+00 0.9000E+01
       25  2    1    2    0    0 0.21120450E+03 -.87443109E+02 -.11809014E+04 0.12392005E+04 0.29805372E+03 0.0000E+00 0.0000E+00
       23  2    1    2    0    0 -.21120450E+03 0.87443109E+02 -.56677515E+03 0.61799588E+03 0.91821551E+02 0.0000E+00 0.0000E+00
       23  1    3    3    0    0 0.11023662E+03 -.36657096E+02 -.20559063E+03 0.25313753E+03 0.91188000E+02 0.0000E+00 0.9000E+01
      -13  1    4    4    0    0 -.69477515E+01 0.19702096E+02 -.12339981E+03 0.12515578E+03 0.10565837E+00 0.0000E+00 0.9000E+01
       13  1    4    4    0    0 -.20425675E+03 0.67741013E+02 -.44337534E+03 0.49284010E+03 0.10565837E+00 0.0000E+00 0.9000E+01
       23  1    3    3    0    0 0.10096788E+03 -.50786013E+02 -.97531079E+03 0.98606294E+03 0.91188000E+02 0.0000E+00 0.9000E+01
#aMCatNLO 1  0  0  1  1 0.52036776D+02 0.00000000D+00  -5  7  0 0.00000000D+00 0.00000000D+00 0.00000000D+00 0.00000000D+00 0.00000000D+00
  <mgrwgt>
 0.4180866200D-03    4    2    0
 0.314167515036249D+03 0.000000000000000D+00 0.000000000000000D+00 0.314167515036249D+03
 0.314167515036249D+03 0.000000000000000D+00 0.000000000000000D+00 -.314167515036249D+03
 0.176371172731946D+03 0.110236617379485D+03 -.366570964202265D+02 0.964141312132686D+02
 0.266987016551418D+02 -.694749049873246D+01 0.197020321653010D+02 -.166247699051066D+02
 0.223486366663063D+03 -.204257008184923D+03 0.677410775134615D+02 0.603023806239555D+02
 0.201778789022346D+03 0.100967881304171D+03 -.507860132585360D+02 -.140091741932118D+03
 0.000000000000000D+00 -.000000000000000D+00 -.000000000000000D+00 -.000000000000000D+00
 0.321817495224703D+03 0.000000000000000D+00 0.000000000000000D+00 0.321817495224703D+03
 0.418210996575162D+03 0.000000000000000D+00 0.000000000000000D+00 -.418210996575162D+03
 0.185271324880441D+03 0.124857859231048D+03 -.335416572277572D+02 0.964141312132686D+02
 0.265674015578090D+02 -.479393669156448D+01 0.201609033064842D+02 -.166247699051066D+02
 0.208876065333160D+03 -.186776552410274D+03 0.714657472491409D+02 0.603023806239555D+02
 0.209771319188729D+03 0.117606892775220D+03 -.472406353086248D+02 -.140091741932118D+03
 0.109542380839726D+03 -.508942629044291D+02 -.108443580192430D+02 -.963935013504589D+02
0.494607282858D-05 0.000000000000D+00 0.000000000000D+00 0.265728525065D-07 0.000000000000D+00  7 -2 2 23 -13 13 23 21 0 0.84245989D-02 0.27729792D+00 0.69958785D+05 0.69958785D+05 0.69958785D+05 0.11346814D+01  1  2  2  1  7  1       -2 0.447080081777D-03 0.100000000000D+01
-.264886983741D-06 0.000000000000D+00 -.189942219926D-07 0.265728525065D-07 0.000000000000D+00  7 -2 2 23 -13 13 23 21 2 0.84245989D-02 0.27729792D+00 0.69958785D+05 0.69958785D+05 0.69958785D+05 0.11346814D+01  1  2  3  1  7  1       -2 -.308271430545D-04 0.100000000000D+01
0.315000028150D-06 0.000000000000D+00 0.000000000000D+00 0.265728525065D-07 0.000000000000D+00  7 -2 2 23 -13 13 23 21 2 0.84245989D-02 0.27729792D+00 0.69958785D+05 0.69958785D+05 0.69958785D+05 0.11346814D+01  1  2 15  1  7  1       -2 0.366592227100D-04 0.100000000000D+01
-.299243839085D-06 0.000000000000D+00 0.000000000000D+00 0.265728525065D-07 0.000000000000D+00  7 -2 2 23 -13 13 23 21 2 0.84245989D-02 0.27729792D+00 0.69958785D+05 0.69958785D+05 0.69958785D+05 0.11346814D+01  1  2  4  1  7  1       -2 -.348255414644D-04 0.100000000000D+01
  </mgrwgt>
  </event>
  <event>
  8     66 0.53686478E-06 0.20689724E+03 0.75467711E-02 0.93817255E-01
       -2 -1    0    0    0  501 0.00000000E+00 0.00000000E+00 0.35200364E+02 0.35201819E+02 0.32000000E+00 0.0000E+00 0.9000E+01
        2 -1    0    0  501    0 0.00000000E+00 0.00000000E+00 -.18065307E+04 0.18065307E+04 0.32000000E+00 0.0000E+00 0.9000E+01
       25  2    1    2    0    0 0.32899820E+01 0.10838794E+03 -.82345840E+03 0.88317213E+03 0.30025074E+03 0.0000E+00 0.0000E+00
       23  2    1    2    0    0 -.32899820E+01 -.10838794E+03 -.94787190E+03 0.95856038E+03 0.92833678E+02 0.0000E+00 0.0000E+00
       23  1    3    3    0    0 -.86298886E+02 0.34009511E+02 -.60851380E+03 0.62226075E+03 0.91188000E+02 0.0000E+00 0.9000E+01
      -11  1    4    4    0    0 0.37438068E+02 -.72249138E+02 -.70380618E+03 0.70849467E+03 0.51099893E-03 0.0000E+00 0.9000E+01
       11  1    4    4    0    0 -.40728050E+02 -.36138806E+02 -.24406572E+03 0.25006571E+03 0.51099893E-03 0.0000E+00 0.9000E+01
       23  1    3    3    0    0 0.89588868E+02 0.74378434E+02 -.21494460E+03 0.26091138E+03 0.91188000E+02 0.0000E+00 0.9000E+01
#aMCatNLO 1  0  0  2  1 0.47190849D+03 0.00000000D+00  -5  7  0 0.00000000D+00 0.00000000D+00 0.00000000D+00 0.00000000D+00 0.00000000D+00
  <mgrwgt>
 0.3300312045D-03    3    2    0
 0.252174350428720D+03 0.000000000000000D+00 0.000000000000000D+00 0.252174350428720D+03
 0.252174350428720D+03 0.000000000000000D+00 0.000000000000000D+00 -.252174350428720D+03
 0.135142454993802D+03 -.862988860078450D+02 0.340095107706741D+02 -.366617954919840D+02
 0.115365502605784D+03 0.374380682131822D+02 -.722491384625765D+02 -.817780669334122D+02
 0.559794377591966D+02 -.407280502358281D+02 -.361388058911160D+02 -.129965412548057D+02
 0.197861305498658D+03 0.895888680304909D+02 0.743784335830184D+02 0.131436403680202D+03
 0.000000000000000D+00 0.000000000000000D+00 -.000000000000000D+00 0.000000000000000D+00
 0.220229849552772D+04 0.000000000000000D+00 0.000000000000000D+00 0.220229849552772D+04
 0.375331200119499D+03 0.000000000000000D+00 0.000000000000000D+00 -.375331200119499D+03
 0.270717769145890D+03 -.242965725810891D+03 0.677969617299947D+02 -.366617954919840D+02
 0.109497170871886D+03 -.493615794194113D+02 -.535295495479124D+02 -.817780669334122D+02
 0.106786389241887D+03 -.103557581753093D+03 -.225887163022444D+02 -.129965412548057D+02
 0.203697759026886D+03 -.654176733639948D+02 0.107807817378110D+03 0.131436403680202D+03
 0.188693060736067D+04 0.461302560347390D+03 -.994865132579475D+02 0.182696729540822D+04
0.185775546406D-05 0.000000000000D+00 0.000000000000D+00 0.586469324520D-07 0.000000000000D+00  7 -2 2 23 -11 11 23 21 0 0.54155547D-02 0.27792791D+00 0.42806468D+05 0.42806468D+05 0.42806468D+05 0.11532769D+01  1  2  2  2  7  2        2 0.325089122090D-03 0.100000000000D+01
-.982941021941D-07 0.000000000000D+00 -.713427014022D-08 0.586469324520D-07 0.000000000000D+00  7 -2 2 23 -11 11 23 21 2 0.54155547D-02 0.27792791D+00 0.42806468D+05 0.42806468D+05 0.42806468D+05 0.11532769D+01  1  2  3  2  7  2        2 -.228774981342D-04 0.100000000000D+01
0.119527960673D-06 0.000000000000D+00 0.000000000000D+00 0.586469324520D-07 0.000000000000D+00  7 -2 2 23 -11 11 23 21 2 0.54155547D-02 0.27792791D+00 0.42806468D+05 0.42806468D+05 0.42806468D+05 0.11532769D+01  1  2 15  2  7  2        2 0.278195805876D-04 0.100000000000D+01
  </mgrwgt>
  </event>
  <event>
  8     66 0.53686478E-06 0.19723786E+03 0.75467711E-02 0.10173815E+00
       -2 -1    0    0    0  501 0.00000000E+00 0.00000000E+00 0.12619921E+03 0.12619961E+03 0.32000000E+00 0.0000E+00 0.9000E+01
        2 -1    0    0  501    0 0.00000000E+00 0.00000000E+00 -.32520261E+04 0.32520261E+04 0.32000000E+00 0.0000E+00 0.9000E+01
       25  2    1    2    0    0 0.10909388E+03 -.11793265E+03 -.10531187E+03 0.35204823E+03 0.29502166E+03 0.0000E+00 0.0000E+00
       23  2    1    2    0    0 -.10909388E+03 0.11793265E+03 -.30205151E+04 0.30261775E+04 0.91813170E+02 0.0000E+00 0.0000E+00
       23  1    3    3    0    0 0.14719675E+03 -.30208525E+02 0.10851568E+02 0.17610351E+03 0.91188000E+02 0.0000E+00 0.9000E+01
      -11  1    4    4    0    0 -.12068617E+03 0.12303764E+03 -.28007636E+04 0.28060614E+04 0.51099893E-03 0.0000E+00 0.9000E+01
       11  1    4    4    0    0 0.11592283E+02 -.51049916E+01 -.21975142E+03 0.22011617E+03 0.51099893E-03 0.0000E+00 0.9000E+01
       23  1    3    3    0    0 -.38102864E+02 -.87724120E+02 -.11616344E+03 0.17594472E+03 0.91188000E+02 0.0000E+00 0.9000E+01
#aMCatNLO 1  0  0  2  1 0.58031169D+02 0.00000000D+00  -5  7  0 0.00000000D+00 0.00000000D+00 0.00000000D+00 0.00000000D+00 0.00000000D+00
  <mgrwgt>
 0.7079656195D-03    9    2    0
 0.640627683438200D+03 0.000000000000000D+00 0.000000000000000D+00 0.640627683438200D+03
 0.640627683438200D+03 0.000000000000000D+00 0.000000000000000D+00 -.640627683438200D+03
 0.490797966175066D+03 0.147196747077272D+03 -.302085253223802D+02 0.458244427031358D+03
 0.565700174171616D+03 -.120686165599684D+03 0.123037636676553D+03 -.538807272085011D+03
 0.442512971603122D+02 0.115922825537331D+02 -.510499163290542D+01 -.423997092677842D+02
 0.180505929369406D+03 -.381028640313216D+02 -.877241197212671D+02 0.122962554321437D+03
 0.000000000000000D+00 0.000000000000000D+00 -.000000000000000D+00 -.000000000000000D+00
 0.662776981058070D+03 0.000000000000000D+00 0.000000000000000D+00 0.662776981058070D+03
 0.680456361815636D+03 0.000000000000000D+00 0.000000000000000D+00 -.680456361815636D+03
 0.485911861928422D+03 0.132762420760645D+03 -.134636899556426D+02 0.458244427031358D+03
 0.574069978916114D+03 -.137530282288431D+03 0.142577998634857D+03 -.538807272085011D+03
 0.437787223987732D+02 0.102913290961006D+02 -.359579397518370D+01 -.423997092677842D+02
 0.178808316666203D+03 -.434129970188863D+02 -.815639913784691D+02 0.122962554321437D+03
 0.606644629641939D+02 0.378895294505714D+02 -.439545233255618D+02 -.176793807575657D+02
0.879460166210D-04 0.000000000000D+00 0.000000000000D+00 0.397299860894D-07 0.000000000000D+00  7 -2 2 23 -11 11 23 21 0 0.19415295D-01 0.50031174D+00 0.60744584D+05 0.60744584D+05 0.60744584D+05 0.11399329D+01  1  2  2  2  7  2        2 0.315924266687D-03 0.100000000000D+01
0.534652736815D-06 0.000000000000D+00 -.337735860543D-06 0.397299860894D-07 0.000000000000D+00  7 -2 2 23 -11 11 23 21 2 0.19415295D-01 0.50031174D+00 0.60744584D+05 0.60744584D+05 0.60744584D+05 0.11399329D+01  1  2  3  2  7  2        2 0.249572768616D-05 0.100000000000D+01
0.510845262245D-05 0.000000000000D+00 0.000000000000D+00 0.397299860894D-07 0.000000000000D+00  7 -2 2 23 -11 11 23 21 2 0.19415295D-01 0.50031174D+00 0.60744584D+05 0.60744584D+05 0.60744584D+05 0.11399329D+01  1  2 15  2  7  2        2 0.238459578814D-04 0.100000000000D+01
0.147556236876D-03 0.000000000000D+00 0.000000000000D+00 0.397299860894D-07 0.000000000000D+00  7 -2 2 23 -11 11 23 21 2 0.19415295D-01 0.53964200D+00 0.77973046D+05 0.77973046D+05 0.77973046D+05 0.11306986D+01  1  2 12  2  7  2        2 0.447892492856D-03 0.100000000000D+01
-.139495915364D-03 0.000000000000D+00 0.000000000000D+00 0.397299860894D-07 0.000000000000D+00  7 -2 2 23 -11 11 23 21 2 0.19415295D-01 0.50031174D+00 0.60744584D+05 0.60744584D+05 0.60744584D+05 0.11399329D+01  1  2  4  2  7  2        2 -.651158769247D-03 0.100000000000D+01
-.381499043832D-03 0.000000000000D+00 -.928485864208D-04 0.397299860894D-07 0.000000000000D+00  7 -2 2 23 -11 11 23 21 2 0.19415295D-01 0.53641732D+00 0.60744584D+05 0.60744584D+05 0.60744584D+05 0.11399329D+01  1  2  5  2  7  2        2 -.123838002957D-02 0.100000000000D+01
0.387254591395D-03 0.000000000000D+00 0.926314122315D-04 0.397299860894D-07 0.000000000000D+00  7 -2 2 23 -11 11 23 21 2 0.19415295D-01 0.50031174D+00 0.60744584D+05 0.60744584D+05 0.60744584D+05 0.11399329D+01  1  2  6  2  7  2        2 0.180768176947D-02 0.100000000000D+01
0.189881463769D-05 0.000000000000D+00 0.000000000000D+00 0.397299860894D-07 0.000000000000D+00  7 -2 21 23 -11 11 23 -2 2 0.19415295D-01 0.53964200D+00 0.77973046D+05 0.77973046D+05 0.77973046D+05 0.11306986D+01  1  2 12  4  7  2        2 0.215357829593D-06 0.100000000000D+01
-.434834204188D-05 0.000000000000D+00 -.109594398387D-05 0.397299860894D-07 0.000000000000D+00  7 -2 21 23 -11 11 23 -2 2 0.19415295D-01 0.53641732D+00 0.60744584D+05 0.60744584D+05 0.60744584D+05 0.11399329D+01  1  2  5  4  7  2        2 -.551154098642D-06 0.100000000000D+01
  </mgrwgt>
  </event>
  <event>
  8     66 0.53686478E-06 0.23032783E+03 0.75467711E-02 0.94700438E-01
       -2 -1    0    0    0  501 0.00000000E+00 0.00000000E+00 0.32883853E+03 0.32883869E+03 0.32000000E+00 0.0000E+00 0.9000E+01
        2 -1    0    0  501    0 0.00000000E+00 0.00000000E+00 -.80518196E+03 0.80518203E+03 0.32000000E+00 0.0000E+00 0.9000E+01
       25  2    1    2    0    0 0.12379105E+03 0.46935592E+02 0.23598489E+03 0.40395819E+03 0.29994362E+03 0.0000E+00 0.0000E+00
       23  2    1    2    0    0 -.12379105E+03 -.46935592E+02 -.71232832E+03 0.73006252E+03 0.89735617E+02 0.0000E+00 0.0000E+00
       23  1    3    3    0    0 0.39499576E+02 0.14043956E+03 0.13358428E+03 0.21781528E+03 0.91188000E+02 0.0000E+00 0.9000E+01
      -11  1    4    4    0    0 -.12310245E+03 -.47804520E+02 -.48289914E+03 0.50063066E+03 0.51099893E-03 0.0000E+00 0.9000E+01
       11  1    4    4    0    0 -.68860339E+00 0.86892794E+00 -.22942918E+03 0.22943186E+03 0.51099893E-03 0.0000E+00 0.9000E+01
       23  1    3    3    0    0 0.84291473E+02 -.93503970E+02 0.10240061E+03 0.18614290E+03 0.91188000E+02 0.0000E+00 0.9000E+01
#aMCatNLO 1  0  0  2  1 0.39252186D+03 0.00000000D+00  -5  7  0 0.00000000D+00 0.00000000D+00 0.00000000D+00 0.00000000D+00 0.00000000D+00
  <mgrwgt>
 0.2636092406D-03    5    2    0
 0.514562898630968D+03 0.000000000000000D+00 0.000000000000000D+00 0.514562898630968D+03
 0.514562898630968D+03 0.000000000000000D+00 0.000000000000000D+00 -.514562898630968D+03
 0.301847489168875D+03 0.394995760760560D+02 0.140439561410906D+03 0.248018484097614D+03
 0.328142302971720D+03 -.123102446115761D+03 -.478045198223120D+02 -.300396216095440D+03
 0.146622887699837D+03 -.688603384023182D+00 0.868927944209547D+00 -.146618695898736D+03
 0.252513117421504D+03 0.842914734237284D+02 -.935039695328034D+02 0.198996427896562D+03
 0.000000000000000D+00 -.000000000000000D+00 0.000000000000000D+00 -.000000000000000D+00
 0.594334474086171D+03 0.000000000000000D+00 0.000000000000000D+00 0.594334474086171D+03
 0.143389087845769D+04 0.000000000000000D+00 0.000000000000000D+00 -.143389087845769D+04
 0.299829128734248D+03 0.123936468245886D+03 0.686209769545464D+02 0.248018484097614D+03
 0.327248438741740D+03 -.311275284597882D+02 -.126034642009382D+03 -.300396216095440D+03
 0.156511148078155D+03 0.418520158296567D+02 -.353143916369813D+02 -.146618695898736D+03
 0.317852755327439D+03 0.164334340740882D+03 -.161585175257239D+03 0.198996427896562D+03
 0.926783881662282D+03 -.298995296356636D+03 0.254313231949056D+03 -.839556404371523D+03
0.167562548767D-04 0.000000000000D+00 0.000000000000D+00 0.821099255185D-06 0.000000000000D+00  7 -2 2 23 -11 11 23 21 0 0.50590560D-01 0.12387416D+00 0.53050908D+05 0.53050908D+05 0.53050908D+05 0.11450397D+01  1  2  2  2  7  2        2 0.275723343620D-03 0.100000000000D+01
-.199600185504D-06 0.000000000000D+00 -.643484307497D-07 0.821099255185D-06 0.000000000000D+00  7 -2 2 23 -11 11 23 21 2 0.50590560D-01 0.12387416D+00 0.53050908D+05 0.53050908D+05 0.53050908D+05 0.11450397D+01  1  2  3  2  7  2        2 -.430624353683D-05 0.100000000000D+01
0.968033964447D-06 0.000000000000D+00 0.000000000000D+00 0.821099255185D-06 0.000000000000D+00  7 -2 2 23 -11 11 23 21 2 0.50590560D-01 0.12387416D+00 0.53050908D+05 0.53050908D+05 0.53050908D+05 0.11450397D+01  1  2 15  2  7  2        2 0.208847000432D-04 0.100000000000D+01
-.924466557118D-05 0.000000000000D+00 -.515785098460D-05 0.821099255185D-06 0.000000000000D+00  7 -2 2 23 -11 11 23 21 2 0.50590560D-01 0.35936604D+00 0.53050908D+05 0.53050908D+05 0.53050908D+05 0.11450397D+01  1  2  5  2  7  2        2 -.282969206091D-04 0.100000000000D+01
-.839773813155D-06 0.000000000000D+00 -.621077374385D-06 0.821099255185D-06 0.000000000000D+00  7 -2 21 23 -11 11 23 -2 2 0.50590560D-01 0.35936604D+00 0.53050908D+05 0.53050908D+05 0.53050908D+05 0.11450397D+01  1  2  5  4  7  2        2 -.395638889265D-06 0.100000000000D+01
  </mgrwgt>
  </event>
  <event>
  8     66 0.53686478E-06 0.29357038E+03 0.75467711E-02 0.96328279E-01
       -2 -1    0    0    0  501 0.00000000E+00 0.00000000E+00 0.80697438E+02 0.80698073E+02 0.32000000E+00 0.0000E+00 0.9000E+01
        2 -1    0    0  501    0 0.00000000E+00 0.00000000E+00 -.20417365E+04 0.20417365E+04 0.32000000E+00 0.0000E+00 0.9000E+01
       25  2    1    2    0    0 -.11497515E+03 -.22228510E+03 -.17157453E+04 0.17596803E+04 0.30010489E+03 0.0000E+00 0.0000E+00
       23  2    1    2    0    0 0.11497515E+03 0.22228510E+03 -.24529372E+03 0.36275424E+03 0.93763935E+02 0.0000E+00 0.0000E+00
       23  1    3    3    0    0 -.59801093E+02 -.55723790E+02 -.22759160E+03 0.25844632E+03 0.91188000E+02 0.0000E+00 0.9000E+01
      -13  1    4    4    0    0 0.26755389E+02 0.15146109E+03 -.14992974E+03 0.21479118E+03 0.10565837E+00 0.0000E+00 0.9000E+01
       13  1    4    4    0    0 0.88219757E+02 0.70824013E+02 -.95363983E+02 0.14796306E+03 0.10565837E+00 0.0000E+00 0.9000E+01
       23  1    3    3    0    0 -.55174054E+02 -.16656131E+03 -.14881537E+04 0.15012340E+04 0.91188000E+02 0.0000E+00 0.9000E+01
#aMCatNLO 1  0  0  1  2 0.23469840D+03 0.00000000D+00  -5  7  0 0.00000000D+00 0.00000000D+00 0.00000000D+00 0.00000000D+00 0.00000000D+00
  <mgrwgt>
 0.2424042058D-03    3    2    0
 0.405910829406844D+03 0.000000000000000D+00 0.000000000000000D+00 0.405910829406844D+03
 0.405910829406844D+03 0.000000000000000D+00 0.000000000000000D+00 -.405910829406844D+03
 0.125913600189807D+03 -.598010926854559D+02 -.557237902326777D+02 0.292860356567521D+02
 0.199381467572408D+03 0.267553129755500D+02 0.151461191195361D+03 0.126872496627875D+03
 0.156474480740052D+03 0.882198338177811D+02 0.708239117331166D+02 0.108099479974937D+03
 0.330052110311421D+03 -.551740541078752D+02 -.166561312695800D+03 -.264258012259564D+03
 0.000000000000000D+00 0.000000000000000D+00 -.000000000000000D+00 -.000000000000000D+00
 0.459133871958663D+03 0.000000000000000D+00 0.000000000000000D+00 0.459133871958663D+03
 0.798780350683213D+03 0.000000000000000D+00 0.000000000000000D+00 -.798780350683213D+03
 0.143295023928189D+03 -.964814820601493D+02 -.452975084697673D+02 0.292860356567521D+02
 0.212078335459138D+03 -.293071769862006D+02 0.167396772213888D+03 0.126872496627875D+03
 0.143947940316105D+03 0.472864817852028D+02 0.824590843435390D+02 0.108099479974937D+03
 0.345745410119045D+03 -.147253259479011D+03 -.140388097087388D+03 -.264258012259564D+03
 0.412847512819399D+03 0.225755436740158D+03 -.641702510002719D+02 -.339646478724550D+03
0.644698588420D-05 0.000000000000D+00 0.000000000000D+00 0.113493551788D-06 0.000000000000D+00  7 -2 2 23 -13 13 23 21 0 0.12415041D-01 0.31411335D+00 0.86183569D+05 0.86183569D+05 0.86183569D+05 0.11270600D+01  1  2  2  1  7  1       -2 0.237802209246D-03 0.100000000000D+01
-.312446655937D-06 0.000000000000D+00 -.247581233257D-07 0.113493551788D-06 0.000000000000D+00  7 -2 2 23 -13 13 23 21 2 0.12415041D-01 0.31411335D+00 0.86183569D+05 0.86183569D+05 0.86183569D+05 0.11270600D+01  1  2  3  1  7  1       -2 -.146395981496D-04 0.100000000000D+01
0.410665092323D-06 0.000000000000D+00 0.000000000000D+00 0.113493551788D-06 0.000000000000D+00  7 -2 2 23 -13 13 23 21 2 0.12415041D-01 0.31411335D+00 0.86183569D+05 0.86183569D+05 0.86183569D+05 0.11270600D+01  1  2 15  1  7  1       -2 0.192415947217D-04 0.100000000000D+01
  </mgrwgt>
  </event>
  <event>
  8     66 0.53686478E-06 0.10573215E+03 0.75467711E-02 0.10439496E+00
       -2 -1    0    0    0  501 0.00000000E+00 0.00000000E+00 0.46866661E+02 0.46867754E+02 0.32000000E+00 0.0000E+00 0.9000E+01
        2 -1    0    0  501    0 0.00000000E+00 0.00000000E+00 -.13124037E+04 0.13124037E+04 0.32000000E+00 0.0000E+00 0.9000E+01
       25  2    1    2    0    0 -.11667286E+03 -.60991409E+02 -.72438595E+03 0.79520836E+03 0.30048097E+03 0.0000E+00 0.0000E+00
       23  2    1    2    0    0 0.11667286E+03 0.60991409E+02 -.54115109E+03 0.56406313E+03 0.89387997E+02 0.0000E+00 0.0000E+00
       23  1    3    3    0    0 -.10770720E+03 -.12128532E+03 -.27095029E+03 0.32869481E+03 0.91188000E+02 0.0000E+00 0.9000E+01
      -11  1    4    4    0    0 0.12217882E+03 0.60517376E+02 -.39615131E+03 0.41895809E+03 0.51099893E-03 0.0000E+00 0.9000E+01
       11  1    4    4    0    0 -.55059615E+01 0.47403324E+00 -.14499977E+03 0.14510505E+03 0.51099893E-03 0.0000E+00 0.9000E+01
       23  1    3    3    0    0 -.89656624E+01 0.60293906E+02 -.45343566E+03 0.46651354E+03 0.91188000E+02 0.0000E+00 0.9000E+01
#aMCatNLO 1  0  0  2  1 0.19918704D+02 0.00000000D+00  -5  7  0 0.00000000D+00 0.00000000D+00 0.00000000D+00 0.00000000D+00 0.00000000D+00
  <mgrwgt>
 0.4314909852D-03    9    2    0
 0.248009572943464D+03 0.000000000000000D+00 0.000000000000000D+00 0.248009572943464D+03
 0.248009572943464D+03 0.000000000000000D+00 0.000000000000000D+00 -.248009572943464D+03
 0.209443241989513D+03 -.107707195530234D+03 -.121285315156458D+03 0.961262327852718D+02
 0.137360878947399D+03 0.122178819408110D+03 0.605173757955514D+02 -.166731634689536D+02
 0.276895959186498D+02 -.550596146232284D+01 0.474033251559316D+00 -.271325156037906D+02
 0.121525429031367D+03 -.896566241555353D+01 0.602939061093468D+02 -.523205537125276D+02
 0.000000000000000D+00 0.000000000000000D+00 0.000000000000000D+00 -.000000000000000D+00
 0.256972813017367D+03 0.000000000000000D+00 0.000000000000000D+00 0.256972813017367D+03
 0.259528042068102D+03 0.000000000000000D+00 0.000000000000000D+00 -.259528042068102D+03
 0.215473505751614D+03 -.110021571829575D+03 -.129493557521416D+03 0.961262327852718D+02
 0.133801112901155D+03 0.120701892714699D+03 0.552792594796138D+02 -.166731634689536D+02
 0.277535938653918D+02 -.580794156802168D+01 -.596979227127638D+00 -.271325156037906D+02
 0.119390711231791D+03 -.102778502926328D+02 0.556400578451330D+02 -.523205537125276D+02
 0.200819313355167D+02 0.540547097553100D+01 0.191712194237972D+02 -.255522905073543D+01
0.778924563849D-06 0.000000000000D+00 0.000000000000D+00 0.427137559622D-07 0.000000000000D+00  7 -2 2 23 -11 11 23 21 0 0.72103426D-02 0.20190835D+00 0.47881891D+05 0.47881891D+05 0.47881891D+05 0.11489526D+01  1  2  2  2  7  2        2 0.162845368025D-03 0.100000000000D+01
-.424485776087D-07 0.000000000000D+00 -.299127542073D-08 0.427137559622D-07 0.000000000000D+00  7 -2 2 23 -11 11 23 21 2 0.72103426D-02 0.20190835D+00 0.47881891D+05 0.47881891D+05 0.47881891D+05 0.11489526D+01  1  2  3  2  7  2        2 -.117151369861D-04 0.100000000000D+01
0.478551821120D-07 0.000000000000D+00 0.000000000000D+00 0.427137559622D-07 0.000000000000D+00  7 -2 2 23 -11 11 23 21 2 0.72103426D-02 0.20190835D+00 0.47881891D+05 0.47881891D+05 0.47881891D+05 0.11489526D+01  1  2 15  2  7  2        2 0.132072744370D-04 0.100000000000D+01
0.178343233777D-05 0.000000000000D+00 0.000000000000D+00 0.427137559622D-07 0.000000000000D+00  7 -2 2 23 -11 11 23 21 2 0.72103426D-02 0.21478465D+00 0.52595634D+05 0.52595634D+05 0.52595634D+05 0.11453671D+01  1  2 12  2  7  2        2 0.440653839086D-03 0.100000000000D+01
-.149687875474D-05 0.000000000000D+00 0.000000000000D+00 0.427137559622D-07 0.000000000000D+00  7 -2 2 23 -11 11 23 21 2 0.72103426D-02 0.20190835D+00 0.47881891D+05 0.47881891D+05 0.47881891D+05 0.11489526D+01  1  2  4  2  7  2        2 -.413114894568D-03 0.100000000000D+01
-.755032354809D-05 0.000000000000D+00 -.135262043825D-05 0.427137559622D-07 0.000000000000D+00  7 -2 2 23 -11 11 23 21 2 0.72103426D-02 0.21602547D+00 0.47881891D+05 0.47881891D+05 0.47881891D+05 0.11489526D+01  1  2  5  2  7  2        2 -.185862048678D-02 0.100000000000D+01
0.762739478580D-05 0.000000000000D+00 0.134953733541D-05 0.427137559622D-07 0.000000000000D+00  7 -2 2 23 -11 11 23 21 2 0.72103426D-02 0.20190835D+00 0.47881891D+05 0.47881891D+05 0.47881891D+05 0.11489526D+01  1  2  6  2  7  2        2 0.210504049362D-02 0.100000000000D+01
0.204385836867D-07 0.000000000000D+00 0.000000000000D+00 0.427137559622D-07 0.000000000000D+00  7 -2 21 23 -11 11 23 -2 2 0.72103426D-02 0.21478465D+00 0.52595634D+05 0.52595634D+05 0.52595634D+05 0.11453671D+01  1  2 12  4  7  2        2 0.219432223158D-05 0.100000000000D+01
-.845672228839D-07 0.000000000000D+00 -.155308283062D-07 0.427137559622D-07 0.000000000000D+00  7 -2 21 23 -11 11 23 -2 2 0.72103426D-02 0.21602547D+00 0.47881891D+05 0.47881891D+05 0.47881891D+05 0.11489526D+01  1  2  5  4  7  2        2 -.899979382580D-05 0.100000000000D+01
  </mgrwgt>
  </event>
  <event>
  8     66 0.53686478E-06 0.29313834E+03 0.75467711E-02 0.10056219E+00
       -2 -1    0    0    0  501 0.00000000E+00 0.00000000E+00 0.20677682E+03 0.20677706E+03 0.32000000E+00 0.0000E+00 0.9000E+01
        2 -1    0    0  501    0 0.00000000E+00 0.00000000E+00 -.49521583E+03 0.49521593E+03 0.32000000E+00 0.0000E+00 0.9000E+01
       25  2    1    2    0    0 0.58538292E+02 -.20266903E+03 -.29554867E+03 0.47218329E+03 0.30183866E+03 0.0000E+00 0.0000E+00
       23  2    1    2    0    0 -.58538292E+02 0.20266903E+03 0.71096576E+01 0.22980970E+03 0.90887214E+02 0.0000E+00 0.0000E+00
       23  1    3    3    0    0 -.67798854E+02 -.17056144E+03 -.20133382E+03 0.28729505E+03 0.91188000E+02 0.0000E+00 0.9000E+01
      -11  1    4    4    0    0 -.21427157E+01 0.13115371E+03 0.32740528E+02 0.13519552E+03 0.51099893E-03 0.0000E+00 0.9000E+01
       11  1    4    4    0    0 -.56395576E+02 0.71515319E+02 -.25630870E+02 0.94614182E+02 0.51099893E-03 0.0000E+00 0.9000E+01
       23  1    3    3    0    0 0.12633715E+03 -.32107595E+02 -.94214845E+02 0.18488824E+03 0.91188000E+02 0.0000E+00 0.9000E+01
#aMCatNLO 1  0  0  1  1 0.25305841D+02 0.00000000D+00  -5  7  0 0.00000000D+00 0.00000000D+00 0.00000000D+00 0.00000000D+00 0.00000000D+00
  <mgrwgt>
 0.1669855193D-03    4    2    0
 0.319998868734463D+03 0.000000000000000D+00 0.000000000000000D+00 0.319998868734463D+03
 0.319998868734463D+03 0.000000000000000D+00 0.000000000000000D+00 -.319998868734463D+03
 0.224386084902241D+03 -.677988539382332D+02 -.170561435521809D+03 -.913563127055682D+02
 0.163047382442305D+03 -.214271574845750D+01 0.131153711390709D+03 0.968429743396546D+02
 0.922277481616034D+02 -.563955762518522D+02 0.715153191869669D+02 0.145277538445522D+02
 0.160336521962776D+03 0.126337145938543D+03 -.321075950558674D+02 -.200144154786385D+02
 0.000000000000000D+00 -.000000000000000D+00 0.000000000000000D+00 -.000000000000000D+00
 0.320914084495801D+03 0.000000000000000D+00 0.000000000000000D+00 0.320914084495801D+03
 0.560936755546258D+03 0.000000000000000D+00 0.000000000000000D+00 -.560936755546258D+03
 0.229006296204627D+03 -.632439211386979D+02 -.178277488554237D+03 -.913563127055682D+02
 0.158665901335723D+03 0.108932442113977D+01 0.125678637564353D+03 0.968429743396546D+02
 0.887311198251892D+02 -.545776024227650D+02 0.684356727697389D+02 0.145277538445522D+02
 0.164094527698687D+03 0.129596489700966D+03 -.376289211497086D+02 -.200144154786385D+02
 0.241352994977833D+03 -.128642905606426D+02 0.217920993698540D+02 -.240022671050457D+03
0.245571789541D-05 0.000000000000D+00 0.000000000000D+00 0.350451370972D-07 0.000000000000D+00  7 -2 2 23 -11 11 23 21 0 0.31811845D-01 0.76187078D-01 0.85930087D+05 0.85930087D+05 0.85930087D+05 0.11271666D+01  1  2  2  1  7  1       -2 0.167234781388D-03 0.100000000000D+01
-.135153751022D-06 0.000000000000D+00 -.943060332373D-08 0.350451370972D-07 0.000000000000D+00  7 -2 2 23 -11 11 23 21 2 0.31811845D-01 0.76187078D-01 0.85930087D+05 0.85930087D+05 0.85930087D+05 0.11271666D+01  1  2  3  1  7  1       -2 -.116937133595D-04 0.100000000000D+01
0.156131080130D-06 0.000000000000D+00 0.000000000000D+00 0.350451370972D-07 0.000000000000D+00  7 -2 2 23 -11 11 23 21 2 0.31811845D-01 0.76187078D-01 0.85930087D+05 0.85930087D+05 0.85930087D+05 0.11271666D+01  1  2 15  1  7  1       -2 0.135087045956D-04 0.100000000000D+01
-.238582535380D-07 0.000000000000D+00 0.000000000000D+00 0.350451370972D-07 0.000000000000D+00  7 -2 2 23 -11 11 23 21 2 0.31811845D-01 0.76187078D-01 0.85930087D+05 0.85930087D+05 0.85930087D+05 0.11271666D+01  1  2  4  1  7  1       -2 -.206425331166D-05 0.100000000000D+01
  </mgrwgt>
  </event>
  <event>
  8     66 0.53686478E-06 0.24854950E+03 0.75467711E-02 0.96227570E-01
       -2 -1    0    0    0  501 0.00000000E+00 0.00000000E+00 0.20579122E+03 0.20579146E+03 0.32000000E+00 0.0000E+00 0.9000E+01
        2 -1    0    0  501    0 0.00000000E+00 0.00000000E+00 -.44761570E+03 0.44761582E+03 0.32000000E+00 0.0000E+00 0.9000E+01
       25  2    1    2    0    0 -.69359312E+02 0.15053490E+03 -.29964360E+03 0.45508983E+03 0.29974821E+03 0.0000E+00 0.0000E+00
       23  2    1    2    0    0 0.69359312E+02 -.15053490E+03 0.57819113E+02 0.19831746E+03 0.92278352E+02 0.0000E+00 0.0000E+00
       23  1    3    3    0    0 0.12276525E+01 -.27581570E+02 -.96579552E+01 0.95764177E+02 0.91188000E+02 0.0000E+00 0.9000E+01
      -13  1    4    4    0    0 0.21783696E+02 0.86917319E+01 0.54495822E+01 0.24078719E+02 0.10565837E+00 0.0000E+00 0.9000E+01
       13  1    4    4    0    0 0.47575617E+02 -.15922663E+03 0.52369531E+02 0.17423874E+03 0.10565837E+00 0.0000E+00 0.9000E+01
       23  1    3    3    0    0 -.70586965E+02 0.17811647E+03 -.28998565E+03 0.35932565E+03 0.91188000E+02 0.0000E+00 0.9000E+01
#aMCatNLO 1  0  0  1  1 0.30111605D+03 0.00000000D+00  -5  7  0 0.00000000D+00 0.00000000D+00 0.00000000D+00 0.00000000D+00 0.00000000D+00
  <mgrwgt>
 0.3809384491D-03    3    2    0
 0.303505351760737D+03 0.000000000000000D+00 0.000000000000000D+00 0.303505351760737D+03
 0.303505351760737D+03 0.000000000000000D+00 0.000000000000000D+00 -.303505351760737D+03
 0.992362739060497D+02 0.122765240699745D+01 -.275815695318681D+02 0.277549384161241D+02
 0.280899646426662D+02 0.217836617665038D+02 0.869195135219228D+01 0.154585955170553D+02
 0.208420112146166D+03 0.475756509992045D+02 -.159226848918788D+03 0.125786768630154D+03
 0.271264352826591D+03 -.705869651727057D+02 0.178116467098464D+03 -.169000302563334D+03
 0.000000000000000D+00 0.000000000000000D+00 -.000000000000000D+00 -.000000000000000D+00
 0.376612268338319D+03 0.000000000000000D+00 0.000000000000000D+00 0.376612268338319D+03
 0.938225242094537D+03 0.000000000000000D+00 0.000000000000000D+00 -.938225242094537D+03
 0.100678942881418D+03 -.319400961787988D+02 0.552194216975852D+01 0.277549384161241D+02
 0.267537039580497D+02 0.126845994694846D+02 0.177733912468554D+02 0.154585955170553D+02
 0.160152905795081D+03 -.135739572748856D+02 -.981956707604340D+02 0.125786768630154D+03
 0.390007886326970D+03 -.180298030330537D+03 0.287615051841278D+03 -.169000302563334D+03
 0.637244071471337D+03 0.213127484314737D+03 -.212714714497458D+03 -.561612973756218D+03
0.488633406765D-05 0.000000000000D+00 0.000000000000D+00 0.223292300366D-06 0.000000000000D+00  7 -2 2 23 -13 13 23 21 0 0.31660215D-01 0.68863983D-01 0.61776856D+05 0.61776856D+05 0.61776856D+05 0.11393024D+01  1  2  2  1  7  1       -2 0.375493561064D-03 0.100000000000D+01
-.258292661891D-06 0.000000000000D+00 -.187648094211D-07 0.223292300366D-06 0.000000000000D+00  7 -2 2 23 -13 13 23 21 2 0.31660215D-01 0.68863983D-01 0.61776856D+05 0.61776856D+05 0.61776856D+05 0.11393024D+01  1  2  3  1  7  1       -2 -.257637704091D-04 0.100000000000D+01
0.312879960252D-06 0.000000000000D+00 0.000000000000D+00 0.223292300366D-06 0.000000000000D+00  7 -2 2 23 -13 13 23 21 2 0.31660215D-01 0.68863983D-01 0.61776856D+05 0.61776856D+05 0.61776856D+05 0.11393024D+01  1  2 15  1  7  1       -2 0.312086584363D-04 0.100000000000D+01
  </mgrwgt>
  </event>
  <event>
  8     66 0.53686478E-06 0.61520974E+03 0.75467711E-02 0.91324578E-01
       -2 -1    0    0    0  501 0.00000000E+00 0.00000000E+00 0.29643249E+03 0.29643266E+03 0.32000000E+00 0.0000E+00 0.9000E+01
        2 -1    0    0  501    0 0.00000000E+00 0.00000000E+00 -.13854676E+04 0.13854676E+04 0.32000000E+00 0.0000E+00 0.9000E+01
       25  2    1    2    0    0 -.53926236E+03 -.26375783E+03 -.50977612E+03 0.84237776E+03 0.29892561E+03 0.0000E+00 0.0000E+00
       23  2    1    2    0    0 0.53926236E+03 0.26375783E+03 -.57925901E+03 0.83952255E+03 0.94260444E+02 0.0000E+00 0.0000E+00
       23  1    3    3    0    0 -.23320543E+03 -.11528076E+03 -.37470954E+03 0.46518482E+03 0.91188000E+02 0.0000E+00 0.9000E+01
      -11  1    4    4    0    0 0.98138927E+02 0.71254881E+02 -.16314534E+03 0.20328529E+03 0.51099893E-03 0.0000E+00 0.9000E+01
       11  1    4    4    0    0 0.44112343E+03 0.19250295E+03 -.41611366E+03 0.63623726E+03 0.51099893E-03 0.0000E+00 0.9000E+01
       23  1    3    3    0    0 -.30605693E+03 -.14847707E+03 -.13506658E+03 0.37719294E+03 0.91188000E+02 0.0000E+00 0.9000E+01
#aMCatNLO 1  0  0  2  1 0.11457404D+03 0.00000000D+00  -5  7  0 0.00000000D+00 0.00000000D+00 0.00000000D+00 0.00000000D+00 0.00000000D+00
  <mgrwgt>
 0.1973657118D-03    4    2    0
 0.640857072100076D+03 0.000000000000000D+00 0.000000000000000D+00 0.640857072100076D+03
 0.640857072100076D+03 0.000000000000000D+00 0.000000000000000D+00 -.640857072100076D+03
 0.292048458242030D+03 -.233205426684514D+03 -.115280761808586D+03 -.964501194362817D+02
 0.128136673639811D+03 0.981389265292869D+02 0.712548812576335D+02 -.413581929986706D+02
 0.481328262953160D+03 0.441123429045844D+03 0.192502949694162D+03 -.544347530436077D+01
 0.380200749365152D+03 -.306056928890617D+03 -.148477069143209D+03 0.143251787739313D+03
 0.000000000000000D+00 0.000000000000000D+00 0.000000000000000D+00 0.000000000000000D+00
 0.744499302137267D+03 0.000000000000000D+00 0.000000000000000D+00 0.744499302137267D+03
 0.675877639965164D+03 0.000000000000000D+00 0.000000000000000D+00 -.675877639965164D+03
 0.309781863405462D+03 -.242004934920944D+03 -.140643298758230D+03 -.964501194362817D+02
 0.119754395670581D+03 0.945144506136118D+02 0.608081719797414D+02 -.413581929986706D+02
 0.454064872644430D+03 0.427446817374868D+03 0.153083295830438D+03 -.544347530436077D+01
 0.403223782224132D+03 -.317511570457147D+03 -.181492410702103D+03 0.143251787739313D+03
 0.133552028157828D+03 0.375552373896113D+02 0.108244241650154D+03 0.686216621721030D+02
0.381032976354D-04 0.000000000000D+00 0.000000000000D+00 0.723340071032D-07 0.000000000000D+00  7 -2 2 23 -11 11 23 21 0 0.45605014D-01 0.21314888D+00 0.37848302D+06 0.37848302D+06 0.37848302D+06 0.10771630D+01  1  2  2  2  7  2        2 0.323786171944D-03 0.100000000000D+01
-.211255637078D-05 0.000000000000D+00 -.146326695749D-06 0.723340071032D-07 0.000000000000D+00  7 -2 2 23 -11 11 23 21 2 0.45605014D-01 0.21314888D+00 0.37848302D+06 0.37848302D+06 0.37848302D+06 0.10771630D+01  1  2  3  2  7  2        2 -.208289279629D-04 0.100000000000D+01
0.231076124337D-05 0.000000000000D+00 0.000000000000D+00 0.723340071032D-07 0.000000000000D+00  7 -2 2 23 -11 11 23 21 2 0.45605014D-01 0.21314888D+00 0.37848302D+06 0.37848302D+06 0.37848302D+06 0.10771630D+01  1  2 15  2  7  2        2 0.227831456444D-04 0.100000000000D+01
-.130202929341D-04 0.000000000000D+00 0.000000000000D+00 0.723340071032D-07 0.000000000000D+00  7 -2 2 23 -11 11 23 21 2 0.45605014D-01 0.21314888D+00 0.37848302D+06 0.37848302D+06 0.37848302D+06 0.10771630D+01  1  2  4  2  7  2        2 -.128374677870D-03 0.100000000000D+01
  </mgrwgt>
  </event>
  <event>
  8     66 0.53686478E-06 0.36800107E+03 0.75467711E-02 0.93444755E-01
       -2 -1    0    0    0  501 0.00000000E+00 0.00000000E+00 0.13823083E+03 0.13823120E+03 0.32000000E+00 0.0000E+00 0.9000E+01
        2 -1    0    0  501    0 0.00000000E+00 0.00000000E+00 -.13273682E+04 0.13273682E+04 0.32000000E+00 0.0000E+00 0.9000E+01
       25  2    1    2    0    0 0.67293839E+02 0.32077602E+03 -.95313894E+03 0.10516398E+04 0.30007788E+03 0.0000E+00 0.0000E+00
       23  2    1    2    0    0 -.67293839E+02 -.32077602E+03 -.23599844E+03 0.41395963E+03 0.90783254E+02 0.0000E+00 0.0000E+00
       23  1    3    3    0    0 0.10856068E+03 0.20674965E+03 -.79013399E+03 0.82894982E+03 0.91188000E+02 0.0000E+00 0.9000E+01
      -13  1    4    4    0    0 0.66737245E+01 -.11011837E+03 -.41540024E+02 0.11788206E+03 0.10565837E+00 0.0000E+00 0.9000E+01
       13  1    4    4    0    0 -.73967563E+02 -.21065765E+03 -.19445841E+03 0.29607758E+03 0.10565837E+00 0.0000E+00 0.9000E+01
       23  1    3    3    0    0 -.41266840E+02 0.11402637E+03 -.16300495E+03 0.22268999E+03 0.91188000E+02 0.0000E+00 0.9000E+01
#aMCatNLO 1  0  0  1  1 0.31783996D+03 0.00000000D+00  -5  7  0 0.00000000D+00 0.00000000D+00 0.00000000D+00 0.00000000D+00 0.00000000D+00
  <mgrwgt>
 0.2182388296D-03    3    2    0
 0.428349747510061D+03 0.000000000000000D+00 0.000000000000000D+00 0.428349747510061D+03
 0.428349747510061D+03 0.000000000000000D+00 0.000000000000000D+00 -.428349747510061D+03
 0.321385203749064D+03 0.108560678499775D+03 0.206749654839150D+03 -.201102852173678D+03
 0.144007295247749D+03 0.667383360940928D+01 -.110118238325238D+03 0.925609778344648D+02
 0.236598094107883D+03 -.739676725890586D+02 -.210657782472389D+03 0.782990436152077D+02
 0.154708901915426D+03 -.412668395201252D+02 0.114026365958477D+03 0.302428307240050D+02
 0.000000000000000D+00 0.000000000000000D+00 -.000000000000000D+00 -.000000000000000D+00
 0.499486828297104D+03 0.000000000000000D+00 0.000000000000000D+00 0.499486828297104D+03
 0.104963415049651D+04 0.000000000000000D+00 0.000000000000000D+00 -.104963415049651D+04
 0.398770222941451D+03 0.600342373340816D+02 0.326582260014383D+03 -.201102852173678D+03
 0.114802057706804D+03 -.107655917893490D+02 -.670528140309508D+02 0.925609778344648D+02
 0.190216034107442D+03 -.102727812294884D+03 -.139636657012456D+03 0.782990436152077D+02
 0.209971099240403D+03 -.658401773920875D+02 0.174708481199400D+03 0.302428307240050D+02
 0.635361564797510D+03 0.119299344142239D+03 -.294601270170375D+03 -.550147322199403D+03
0.581852010485D-05 0.000000000000D+00 0.000000000000D+00 0.801822023706D-06 0.000000000000D+00  7 -2 2 23 -13 13 23 21 0 0.21266313D-01 0.20421053D+00 0.13542479D+06 0.13542479D+06 0.13542479D+06 0.11110723D+01  1  2  2  1  7  1       -2 0.215714892626D-03 0.100000000000D+01
-.314188051881D-06 0.000000000000D+00 -.223446492542D-07 0.801822023706D-06 0.000000000000D+00  7 -2 2 23 -13 13 23 21 2 0.21266313D-01 0.20421053D+00 0.13542479D+06 0.13542479D+06 0.13542479D+06 0.11110723D+01  1  2  3  1  7  1       -2 -.143794367404D-04 0.100000000000D+01
0.369335610984D-06 0.000000000000D+00 0.000000000000D+00 0.801822023706D-06 0.000000000000D+00  7 -2 2 23 -13 13 23 21 2 0.21266313D-01 0.20421053D+00 0.13542479D+06 0.13542479D+06 0.13542479D+06 0.11110723D+01  1  2 15  1  7  1       -2 0.169033737035D-04 0.100000000000D+01
  </mgrwgt>
  </event>
  <event>
  8     66 0.53686478E-06 0.11872933E+03 0.75467711E-02 0.10494028E+00
       -2 -1    0    0    0  501 0.00000000E+00 0.00000000E+00 0.22374041E+02 0.22376329E+02 0.32000000E+00 0.0000E+00 0.9000E+01
        2 -1    0    0  501    0 0.00000000E+00 0.00000000E+00 -.20123321E+04 0.20123321E+04 0.32000000E+00 0.0000E+00 0.9000E+01
       25  2    1    2    0    0 0.29508333E+02 0.65292107E+02 -.14948640E+04 0.15262995E+04 0.29972978E+03 0.0000E+00 0.0000E+00
       23  2    1    2    0    0 -.29508333E+02 -.65292107E+02 -.49509404E+03 0.50840895E+03 0.90706956E+02 0.0000E+00 0.0000E+00
       23  1    3    3    0    0 0.91038825E+02 -.30141633E+02 -.10475542E+04 0.10558795E+04 0.91188000E+02 0.0000E+00 0.9000E+01
      -11  1    4    4    0    0 0.13755771E+02 -.46169643E+02 -.39238261E+03 0.39532893E+03 0.51099893E-03 0.0000E+00 0.9000E+01
       11  1    4    4    0    0 -.43264104E+02 -.19122464E+02 -.10271143E+03 0.11308002E+03 0.51099893E-03 0.0000E+00 0.9000E+01
       23  1    3    3    0    0 -.61530492E+02 0.95433740E+02 -.44730980E+03 0.47041993E+03 0.91188000E+02 0.0000E+00 0.9000E+01
#aMCatNLO 1  0  0  1  2 0.63579429D+02 0.00000000D+00  -5  7  0 0.00000000D+00 0.00000000D+00 0.00000000D+00 0.00000000D+00 0.00000000D+00
  <mgrwgt>
 0.2730016225D-03    6    2    0
 0.212194143102747D+03 0.000000000000000D+00 0.000000000000000D+00 0.212194143102747D+03
 0.212194143102747D+03 0.000000000000000D+00 0.000000000000000D+00 -.212194143102747D+03
 0.150376768610260D+03 0.910388252226230D+02 -.301416332451093D+02 -.714236336310720D+02
 0.555015243675046D+02 0.137557706737566D+02 -.461696428786828D+02 -.275601534237860D+02
 0.605422427122754D+02 -.432641040369380D+02 -.191224644822955D+02 0.377877203154202D+02
 0.157967750515454D+03 -.615304918594417D+02 0.954337406060876D+02 0.611960667394378D+02
 0.000000000000000D+00 0.000000000000000D+00 -.000000000000000D+00 -.000000000000000D+00
 0.245889154631182D+03 0.000000000000000D+00 0.000000000000000D+00 0.245889154631182D+03
 0.246821522744081D+03 0.000000000000000D+00 0.000000000000000D+00 -.246821522744081D+03
 0.141491290963662D+03 0.804945109366160D+02 -.111279981386136D+02 -.714236336310720D+02
 0.490724863656363D+02 0.997782649950123D+01 -.393572082306252D+02 -.275601534237860D+02
 0.618559803026651D+02 -.476859833388472D+02 -.111488782204519D+02 0.377877203154202D+02
 0.176704654701057D+03 -.736211982855179D+02 0.117235848730866D+03 0.611960667394378D+02
 0.635862650422432D+02 0.308348441882478D+02 -.556017641411757D+02 -.932368112898756D+00
0.910221464226D-06 0.000000000000D+00 0.000000000000D+00 0.775244892727D-07 0.000000000000D+00  7 -2 2 23 -11 11 23 21 0 0.34423381D-02 0.30958973D+00 0.34864708D+05 0.34864708D+05 0.34864708D+05 0.11613285D+01  1  2  2  1  7  1       -2 0.242030423754D-03 0.100000000000D+01
-.495623057576D-07 0.000000000000D+00 -.349549008944D-08 0.775244892727D-07 0.000000000000D+00  7 -2 2 23 -11 11 23 21 2 0.34423381D-02 0.30958973D+00 0.34864708D+05 0.34864708D+05 0.34864708D+05 0.11613285D+01  1  2  3  1  7  1       -2 -.177739762437D-04 0.100000000000D+01
0.601270544365D-07 0.000000000000D+00 0.000000000000D+00 0.775244892727D-07 0.000000000000D+00  7 -2 2 23 -11 11 23 21 2 0.34423381D-02 0.30958973D+00 0.34864708D+05 0.34864708D+05 0.34864708D+05 0.11613285D+01  1  2 15  1  7  1       -2 0.215626940841D-04 0.100000000000D+01
0.443532702057D-06 0.000000000000D+00 0.000000000000D+00 0.775244892727D-07 0.000000000000D+00  7 -2 2 23 -11 11 23 21 2 0.42278579D-02 0.30958973D+00 0.48634456D+05 0.48634456D+05 0.48634456D+05 0.11483547D+01  1  2 12  1  7  1       -2 0.114789983196D-03 0.100000000000D+01
-.402422918644D-06 0.000000000000D+00 0.000000000000D+00 0.775244892727D-07 0.000000000000D+00  7 -2 2 23 -11 11 23 21 2 0.34423381D-02 0.30958973D+00 0.34864708D+05 0.34864708D+05 0.34864708D+05 0.11613285D+01  1  2  4  1  7  1       -2 -.144316437392D-03 0.100000000000D+01
0.129608097512D-07 0.000000000000D+00 0.000000000000D+00 0.775244892727D-07 0.000000000000D+00  7 21 2 23 -11 11 23 2 2 0.42278579D-02 0.30958973D+00 0.48634456D+05 0.48634456D+05 0.48634456D+05 0.11483547D+01  1  2 12  3  7  1       -2 0.567089350872D-04 0.100000000000D+01
  </mgrwgt>
  </event>
  <event>
  8     66 0.53686478E-06 0.33728056E+03 0.75467711E-02 0.98638259E-01
       -2 -1    0    0    0  501 0.00000000E+00 0.00000000E+00 0.18706471E+03 0.18706499E+03 0.32000000E+00 0.0000E+00 0.9000E+01
        2 -1    0    0  501    0 0.00000000E+00 0.00000000E+00 -.10215193E+04 0.10215193E+04 0.32000000E+00 0.0000E+00 0.9000E+01
       25  2    1    2    0    0 -.78688202E+02 -.27558941E+03 -.80552383E+03 0.90616995E+03 0.30022320E+03 0.0000E+00 0.0000E+00
       23  2    1    2    0    0 0.78688202E+02 0.27558941E+03 -.28930704E+02 0.30241434E+03 0.92065705E+02 0.0000E+00 0.0000E+00
       23  1    3    3    0    0 0.25469243E+02 -.24288429E+02 -.38417347E+03 0.39641282E+03 0.91188000E+02 0.0000E+00 0.9000E+01
      -13  1    4    4    0    0 0.16577276E+02 0.16168530E+02 0.20728103E+02 0.31078817E+02 0.10565837E+00 0.0000E+00 0.9000E+01
       13  1    4    4    0    0 0.62110926E+02 0.25942088E+03 -.49658807E+02 0.27133552E+03 0.10565837E+00 0.0000E+00 0.9000E+01
       23  1    3    3    0    0 -.10415745E+03 -.25130098E+03 -.42135036E+03 0.50975713E+03 0.91188000E+02 0.0000E+00 0.9000E+01
#aMCatNLO 1  0  0  1  2 0.36722677D+02 0.00000000D+00  -5  7  0 0.00000000D+00 0.00000000D+00 0.00000000D+00 0.00000000D+00 0.00000000D+00
  <mgrwgt>
 0.3129353214D-03    4    2    0
 0.437138879247050D+03 0.000000000000000D+00 0.000000000000000D+00 0.437138879247050D+03
 0.437138879247050D+03 0.000000000000000D+00 0.000000000000000D+00 -.437138879247050D+03
 0.181318806645213D+03 0.254692432004119D+02 -.242884290338871D+02 -.152717543737150D+03
 0.627463351568815D+02 0.165772162283026D+02 0.161682100575682D+02 0.583171283695808D+02
 0.327692354600377D+03 0.621109861153025D+02 0.259421195762394D+03 0.190329051530588D+03
 0.302520262091628D+03 -.104157445544017D+03 -.251300976786076D+03 -.959286361630188D+02
 0.000000000000000D+00 -.000000000000000D+00 0.000000000000000D+00 -.000000000000000D+00
 0.442522954189847D+03 0.000000000000000D+00 0.000000000000000D+00 0.442522954189847D+03
 0.504970624137804D+03 0.000000000000000D+00 0.000000000000000D+00 -.504970624137804D+03
 0.182954253729670D+03 0.306745323761770D+02 -.298903414529717D+02 -.152717543737150D+03
 0.627781326103778D+02 0.183709013080891D+02 0.142378529947628D+02 0.583171283695808D+02
 0.321774706098284D+03 0.713915622237624D+02 0.249433475041653D+03 0.190329051530588D+03
 0.307541565629856D+03 -.954399515159984D+02 -.260682710712832D+03 -.959286361630188D+02
 0.724449202594621D+02 -.249970443920301D+02 0.269017241293881D+02 -.624476699479572D+02
0.110125470225D-04 0.000000000000D+00 0.000000000000D+00 0.776955901403D-06 0.000000000000D+00  7 -2 2 23 -13 13 23 21 0 0.28779211D-01 0.15715683D+00 0.11375818D+06 0.11375818D+06 0.11375818D+06 0.11171568D+01  1  2  2  1  7  1       -2 0.366746811156D-03 0.100000000000D+01
-.561779167760D-06 0.000000000000D+00 -.422910802365D-07 0.776955901403D-06 0.000000000000D+00  7 -2 2 23 -13 13 23 21 2 0.28779211D-01 0.15715683D+00 0.11375818D+06 0.11375818D+06 0.11375818D+06 0.11171568D+01  1  2  3  1  7  1       -2 -.233492235977D-04 0.100000000000D+01
0.705038288704D-06 0.000000000000D+00 0.000000000000D+00 0.776955901403D-06 0.000000000000D+00  7 -2 2 23 -13 13 23 21 2 0.28779211D-01 0.15715683D+00 0.11375818D+06 0.11375818D+06 0.11375818D+06 0.11171568D+01  1  2 15  1  7  1       -2 0.293035014337D-04 0.100000000000D+01
-.143795630003D-05 0.000000000000D+00 0.000000000000D+00 0.776955901403D-06 0.000000000000D+00  7 -2 2 23 -13 13 23 21 2 0.28779211D-01 0.15715683D+00 0.11375818D+06 0.11375818D+06 0.11375818D+06 0.11171568D+01  1  2  4  1  7  1       -2 -.597657675828D-04 0.100000000000D+01
  </mgrwgt>
  </event>
  <event>
  9     66 0.53686478E-06 0.17473163E+03 0.75467711E-02 0.10507219E+00
       21 -1    0    0  502  501 0.00000000E+00 0.00000000E+00 0.62103768E+02 0.62108296E+02 0.75000000E+00 0.0000E+00 0.9000E+01
        2 -1    0    0  501    0 0.00000000E+00 0.00000000E+00 -.26930364E+04 0.26930364E+04 0.32000000E+00 0.0000E+00 0.9000E+01
       25  2    1    2    0    0 0.55136630E+02 -.10104299E+03 -.24400779E+04 0.24611860E+04 0.30034471E+03 0.0000E+00 0.0000E+00
       23  2    1    2    0    0 0.11824745E+02 0.28269805E+02 -.16119845E+03 0.19071449E+03 0.97201192E+02 0.0000E+00 0.0000E+00
       23  1    3    3    0    0 -.75012396E+02 -.27351963E+01 -.13547876E+04 0.13599261E+04 0.91188000E+02 0.0000E+00 0.9000E+01
      -13  1    4    4    0    0 0.56396330E+01 0.25798784E+02 0.28222411E+01 0.26558595E+02 0.10565837E+00 0.0000E+00 0.9000E+01
       13  1    4    4    0    0 0.61851119E+01 0.24710208E+01 -.16402069E+03 0.16415590E+03 0.10565837E+00 0.0000E+00 0.9000E+01
       23  1    3    3    0    0 0.13014903E+03 -.98307792E+02 -.10852903E+04 0.11012599E+04 0.91188000E+02 0.0000E+00 0.9000E+01
        2  1    1    2  502    0 -.66961375E+02 0.72773183E+02 -.29656306E+02 0.10324418E+03 0.32000000E+00 0.0000E+00 0.9000E+01
#aMCatNLO 2  0  0  1  2 0.98892678D+02 0.00000000D+00  -5  7  0 0.00000000D+00 0.00000000D+00 0.00000000D+00 0.00000000D+00 0.00000000D+00
  <mgrwgt>
 0.3668412325D-03    2    2    0
 0.253060348977128D+03 0.000000000000000D+00 0.000000000000000D+00 0.253060348977128D+03
 0.253060348977128D+03 0.000000000000000D+00 0.000000000000000D+00 -.253060348977128D+03
 0.171966465829976D+03 -.967288301900006D+02 0.208660495950139D+02 -.107076399876093D+03
 0.156626898946651D+03 -.145073989182757D+02 0.476945550898767D+02 0.148481481219205D+03
 0.166511286042941D+02 0.399317677676980D+01 0.485315453284855D+01 -.154195173110737D+02
 0.160876204573335D+03 0.107243052331507D+03 -.734137592177391D+02 -.259855640320388D+02
 0.000000000000000D+00 -.000000000000000D+00 0.000000000000000D+00 0.000000000000000D+00
 0.632653081860987D+03 0.000000000000000D+00 0.000000000000000D+00 0.632653081860987D+03
 0.264369041172608D+03 0.000000000000000D+00 0.000000000000000D+00 -.264369041172608D+03
 0.159420656018494D+03 -.750123806047761D+02 -.273524531736623D+01 -.107076399876093D+03
 0.150811597158893D+03 0.563965014021541D+01 0.257988743720141D+02 0.148481481219205D+03
 0.167965029846235D+02 0.618506583116109D+01 0.247102389105599D+01 -.154195173110737D+02
 0.188662937346531D+03 0.130149039477972D+03 -.983078357462870D+02 -.259855640320388D+02
 0.381330429525054D+03 -.669613748445728D+02 0.727731828005832D+02 0.368284040688379D+03
-.591840034857D-06 0.000000000000D+00 0.000000000000D+00 0.282094007741D-07 0.000000000000D+00  7 21 2 23 -13 13 23 2 2 0.94990129D-02 0.39659080D+00 0.47727910D+05 0.47727910D+05 0.47727910D+05 0.11490762D+01  1  2 13  3  7  1       -2 -.335680451451D-03 0.100000000000D+01
0.145677042576D-05 0.000000000000D+00 0.000000000000D+00 0.282094007741D-07 0.324446242147D-11  7 21 2 23 -13 13 23 2 2 0.95547733D-02 0.41431354D+00 0.47727910D+05 0.47727910D+05 0.47727910D+05 0.11490762D+01  1  2  1  3  7  1       -2 0.702521683977D-03 0.100000000000D+01
  </mgrwgt>
  </event>
  <event>
  8     66 0.53686478E-06 0.24252816E+03 0.75467711E-02 0.92695466E-01
       -2 -1    0    0    0  501 0.00000000E+00 0.00000000E+00 0.23961157E+03 0.23961178E+03 0.32000000E+00 0.0000E+00 0.9000E+01
        2 -1    0    0  501    0 0.00000000E+00 0.00000000E+00 -.74565518E+03 0.74565525E+03 0.32000000E+00 0.0000E+00 0.9000E+01
       25  2    1    2    0    0 -.13425841E+03 0.67915683E+02 -.66640180E+03 0.74587084E+03 0.29932273E+03 0.0000E+00 0.0000E+00
       23  2    1    2    0    0 0.13425841E+03 -.67915683E+02 0.16035818E+03 0.23939619E+03 0.94646339E+02 0.0000E+00 0.0000E+00
       23  1    3    3    0    0 -.16428826E+03 -.35004245E+02 -.33254262E+03 0.38355675E+03 0.91188000E+02 0.0000E+00 0.9000E+01
      -13  1    4    4    0    0 0.50816260E+02 -.41638399E+02 0.13197883E+03 0.14742616E+03 0.10565837E+00 0.0000E+00 0.9000E+01
       13  1    4    4    0    0 0.83442153E+02 -.26277284E+02 0.28379345E+02 0.91970033E+02 0.10565837E+00 0.0000E+00 0.9000E+01
       23  1    3    3    0    0 0.30029850E+02 0.10291993E+03 -.33385917E+03 0.36231409E+03 0.91188000E+02 0.0000E+00 0.9000E+01
#aMCatNLO 1  0  0  2  1 0.52075309D+03 0.00000000D+00  -5  7  0 0.00000000D+00 0.00000000D+00 0.00000000D+00 0.00000000D+00 0.00000000D+00
  <mgrwgt>
 0.2509291895D-03    5    2    0
 0.422691075435515D+03 0.000000000000000D+00 0.000000000000000D+00 0.422691075435515D+03
 0.422691075435515D+03 0.000000000000000D+00 0.000000000000000D+00 -.422691075435515D+03
 0.247964480547445D+03 -.164288263129969D+03 -.350042448065828D+02 -.157972154864151D+03
 0.250823030641387D+03 0.508162217473573D+02 -.416384187249522D+02 0.242066409056563D+03
 0.124175905555413D+03 0.834421914638294D+02 -.262772648965442D+02 0.881280974138060D+02
 0.222418734126785D+03 0.300298499187822D+02 0.102919928428079D+03 -.172222351606218D+03
 0.000000000000000D+00 0.000000000000000D+00 -.000000000000000D+00 -.000000000000000D+00
 0.646094654110549D+03 0.000000000000000D+00 0.000000000000000D+00 0.646094654110549D+03
 0.949500627207774D+03 0.000000000000000D+00 0.000000000000000D+00 -.949500627207774D+03
 0.344598319972182D+03 -.278928746250132D+03 0.876145169852396D+02 -.157972154864151D+03
 0.254477996166227D+03 -.469421150627518D+02 0.629233023026807D+02 0.242066409056563D+03
 0.989174035574812D+02 0.402813235943810D+02 0.198873362283913D+02 0.881280974138060D+02
 0.294908470277879D+03 -.700551378532259D+02 0.209970221139162D+03 -.172222351606218D+03
 0.602693091344553D+03 0.355644675571728D+03 -.380395376655473D+03 -.303405973097225D+03
0.702287301747D-05 0.000000000000D+00 0.000000000000D+00 0.701465074166D-07 0.000000000000D+00  7 -2 2 23 -13 13 23 21 0 0.36863340D-01 0.11471620D+00 0.58819910D+05 0.58819910D+05 0.58819910D+05 0.11411407D+01  1  2  2  2  7  2        2 0.229878409946D-03 0.100000000000D+01
-.243763658888D-06 0.000000000000D+00 -.269696815520D-07 0.701465074166D-07 0.000000000000D+00  7 -2 2 23 -13 13 23 21 2 0.36863340D-01 0.11471620D+00 0.58819910D+05 0.58819910D+05 0.58819910D+05 0.11411407D+01  1  2  3  2  7  2        2 -.103903628024D-04 0.100000000000D+01
0.426940146993D-06 0.000000000000D+00 0.000000000000D+00 0.701465074166D-07 0.000000000000D+00  7 -2 2 23 -13 13 23 21 2 0.36863340D-01 0.11471620D+00 0.58819910D+05 0.58819910D+05 0.58819910D+05 0.11411407D+01  1  2 15  2  7  2        2 0.181982131480D-04 0.100000000000D+01
0.172692926070D-05 0.000000000000D+00 -.216768414345D-05 0.701465074166D-07 0.000000000000D+00  7 -2 2 23 -13 13 23 21 2 0.36863340D-01 0.32245125D+00 0.58819910D+05 0.58819910D+05 0.58819910D+05 0.11411407D+01  1  2  5  2  7  2        2 0.127765851354D-04 0.100000000000D+01
0.320906506684D-06 0.000000000000D+00 -.251768527618D-06 0.701465074166D-07 0.000000000000D+00  7 -2 21 23 -13 13 23 -2 2 0.36863340D-01 0.32245125D+00 0.58819910D+05 0.58819910D+05 0.58819910D+05 0.11411407D+01  1  2  5  4  7  2        2 0.466344107629D-06 0.100000000000D+01
  </mgrwgt>
  </event>
  <event>
  8     66 0.53686478E-06 0.35394033E+03 0.75467711E-02 0.89306053E-01
       -2 -1    0    0    0  501 0.00000000E+00 0.00000000E+00 0.12983186E+03 0.12983226E+03 0.32000000E+00 0.0000E+00 0.9000E+01
        2 -1    0    0  501    0 0.00000000E+00 0.00000000E+00 -.27282695E+04 0.27282695E+04 0.32000000E+00 0.0000E+00 0.9000E+01
       25  2    1    2    0    0 0.26847628E+03 0.79391164E+02 -.25162243E+04 0.25494994E+04 0.30029981E+03 0.0000E+00 0.0000E+00
       23  2    1    2    0    0 -.26847628E+03 -.79391164E+02 -.82213337E+02 0.30860238E+03 0.10046854E+03 0.0000E+00 0.0000E+00
       23  1    3    3    0    0 0.99822398E+01 -.53227103E+02 -.65491576E+03 0.66344756E+03 0.91188000E+02 0.0000E+00 0.9000E+01
      -13  1    4    4    0    0 -.23872175E+03 -.31294011E+02 -.62988319E+02 0.24886729E+03 0.10565837E+00 0.0000E+00 0.9000E+01
       13  1    4    4    0    0 -.29754525E+02 -.48097153E+02 -.19225017E+02 0.59735085E+02 0.10565837E+00 0.0000E+00 0.9000E+01
       23  1    3    3    0    0 0.25849404E+03 0.13261827E+03 -.18613086E+04 0.18860519E+04 0.91188000E+02 0.0000E+00 0.9000E+01
#aMCatNLO 1  0  0  2  1 0.68831452D+03 0.00000000D+00  -5  7  0 0.00000000D+00 0.00000000D+00 0.00000000D+00 0.00000000D+00 0.00000000D+00
  <mgrwgt>
 0.4344576729D-03    3    2    0
 0.595161238336729D+03 0.000000000000000D+00 0.000000000000000D+00 0.595161238336729D+03
 0.595161238336729D+03 0.000000000000000D+00 0.000000000000000D+00 -.595161238336729D+03
 0.163353132962677D+03 0.998223992700835D+01 -.532271033490412D+02 -.124242605654551D+03
 0.460057936660462D+03 -.238721979753773D+03 -.312939956940089D+02 0.392027814447169D+03
 0.101462816538431D+03 -.297542957076925D+02 -.480971686977938D+02 0.842380400419336D+02
 0.465448590511889D+03 0.258494035534457D+03 0.132618267740844D+03 -.352023248834552D+03
 0.000000000000000D+00 -.000000000000000D+00 0.000000000000000D+00 0.000000000000000D+00
 0.150664599806367D+04 0.000000000000000D+00 0.000000000000000D+00 0.150664599806367D+04
 0.832098929952525D+03 0.000000000000000D+00 0.000000000000000D+00 -.832098929952525D+03
 0.215122119576116D+03 0.793418034405937D+02 -.127400659942885D+03 -.124242605654551D+03
 0.450371438392537D+03 -.718762384799766D+02 -.209719888330859D+03 0.392027814447169D+03
 0.125768353263542D+03 0.118882017830273D+02 -.926299193073317D+02 0.842380400419336D+02
 0.583745173262835D+03 0.450769807882694D+03 -.730026612187737D+02 -.352023248834552D+03
 0.963737843521166D+03 -.470123574626339D+03 0.502753128799850D+03 0.674547068111146D+03
0.610815401513D-04 0.000000000000D+00 0.000000000000D+00 0.540030789648D-07 0.000000000000D+00  7 -2 2 23 -13 13 23 21 0 0.19974164D-01 0.41973380D+00 0.12527376D+06 0.12527376D+06 0.12527376D+06 0.11137789D+01  1  2  2  2  7  2        2 0.424735806529D-03 0.100000000000D+01
-.227904451173D-05 0.000000000000D+00 -.234569197320D-06 0.540030789648D-07 0.000000000000D+00  7 -2 2 23 -13 13 23 21 2 0.19974164D-01 0.41973380D+00 0.12527376D+06 0.12527376D+06 0.12527376D+06 0.11137789D+01  1  2  3  2  7  2        2 -.196589198466D-04 0.100000000000D+01
0.340609351885D-05 0.000000000000D+00 0.000000000000D+00 0.540030789648D-07 0.000000000000D+00  7 -2 2 23 -13 13 23 21 2 0.19974164D-01 0.41973380D+00 0.12527376D+06 0.12527376D+06 0.12527376D+06 0.11137789D+01  1  2 15  2  7  2        2 0.293807861726D-04 0.100000000000D+01
  </mgrwgt>
  </event>
  <event>
  8     66 0.53686478E-06 0.41246032E+03 0.75467711E-02 0.92729027E-01
       -2 -1    0    0    0  501 0.00000000E+00 0.00000000E+00 0.88855069E+02 0.88855645E+02 0.32000000E+00 0.0000E+00 0.9000E+01
        2 -1    0    0  501    0 0.00000000E+00 0.00000000E+00 -.27288050E+04 0.27288050E+04 0.32000000E+00 0.0000E+00 0.9000E+01
       25  2    1    2    0    0 -.92778215E+02 -.35348608E+03 -.71453300E+03 0.85620934E+03 0.29828984E+03 0.0000E+00 0.0000E+00
       23  2    1    2    0    0 0.92778215E+02 0.35348608E+03 -.19254169E+04 0.19614513E+04 0.80627012E+02 0.0000E+00 0.0000E+00
       23  1    3    3    0    0 -.14035397E+03 -.12550099E+03 -.42434169E+03 0.47310766E+03 0.91188000E+02 0.0000E+00 0.9000E+01
      -13  1    4    4    0    0 0.70495574E+02 0.28494775E+03 -.16881444E+04 0.17134750E+04 0.10565837E+00 0.0000E+00 0.9000E+01
       13  1    4    4    0    0 0.22282640E+02 0.68538330E+02 -.23727249E+03 0.24797634E+03 0.10565837E+00 0.0000E+00 0.9000E+01
       23  1    3    3    0    0 0.47575751E+02 -.22798509E+03 -.29019130E+03 0.38310168E+03 0.91188000E+02 0.0000E+00 0.9000E+01
#aMCatNLO 1  0  0  1  1 0.30456913D+03 0.00000000D+00  -5  7  0 0.00000000D+00 0.00000000D+00 0.00000000D+00 0.00000000D+00 0.00000000D+00
  <mgrwgt>
 0.2023720517D-02    4    2    0
 0.492411407862224D+03 0.000000000000000D+00 0.000000000000000D+00 0.492411407862224D+03
 0.492411407862224D+03 0.000000000000000D+00 0.000000000000000D+00 -.492411407862224D+03
 0.216095742426563D+03 -.140353965201784D+03 -.125500987417197D+03 0.541515019213010D+02
 0.377098053270735D+03 0.704956572891265D+02 0.284948121978247D+03 -.236723196719337D+03
 0.734397757267554D+02 0.222825573818341D+02 0.685379579511160D+02 -.141222029164168D+02
 0.318189244300394D+03 0.475757505308232D+02 -.227985092512166D+03 0.196693897714453D+03
 0.000000000000000D+00 -.000000000000000D+00 -.000000000000000D+00 -.000000000000000D+00
 0.622828536659044D+03 0.000000000000000D+00 0.000000000000000D+00 0.622828536659044D+03
 0.731335377828747D+03 0.000000000000000D+00 0.000000000000000D+00 -.731335377828747D+03
 0.168065302962427D+03 -.994206531493570D+02 -.843436025011668D+02 0.541515019213010D+02
 0.472576642991809D+03 0.161030603251564D+03 0.375978664890474D+03 -.236723196719337D+03
 0.967599466652690D+02 0.404177598744624D+02 0.867724342760046D+02 -.141222029164168D+02
 0.293441612078268D+03 0.112746535037852D+03 -.162457556900095D+03 0.196693897714453D+03
 0.323320409790018D+03 -.214774245014521D+03 -.215949939765217D+03 -.108506841169703D+03
0.189740217743D-03 0.000000000000D+00 0.000000000000D+00 0.196829935258D-08 0.000000000000D+00  7 -2 2 23 -13 13 23 21 0 0.13670056D-01 0.41981620D+00 0.17012352D+06 0.17012352D+06 0.17012352D+06 0.11032631D+01  1  2  2  1  7  1       -2 0.240497400374D-02 0.100000000000D+01
-.101388037287D-04 0.000000000000D+00 -.728652395879D-06 0.196829935258D-08 0.000000000000D+00  7 -2 2 23 -13 13 23 21 2 0.13670056D-01 0.41981620D+00 0.17012352D+06 0.17012352D+06 0.17012352D+06 0.11032631D+01  1  2  3  1  7  1       -2 -.156421298165D-03 0.100000000000D+01
0.116710717264D-04 0.000000000000D+00 0.000000000000D+00 0.196829935258D-08 0.000000000000D+00  7 -2 2 23 -13 13 23 21 2 0.13670056D-01 0.41981620D+00 0.17012352D+06 0.17012352D+06 0.17012352D+06 0.11032631D+01  1  2 15  1  7  1       -2 0.180061103783D-03 0.100000000000D+01
-.262440835550D-04 0.000000000000D+00 0.000000000000D+00 0.196829935258D-08 0.000000000000D+00  7 -2 2 23 -13 13 23 21 2 0.13670056D-01 0.41981620D+00 0.17012352D+06 0.17012352D+06 0.17012352D+06 0.11032631D+01  1  2  4  1  7  1       -2 -.404893292019D-03 0.100000000000D+01
  </mgrwgt>
  </event>
  <event>
  9     66 -.53686478E-06 0.52757878E+03 0.75467711E-02 0.93903455E-01
       -2 -1    0    0    0  502 0.00000000E+00 0.00000000E+00 0.10500160E+04 0.10500160E+04 0.32000000E+00 0.0000E+00 0.9000E+01
        2 -1    0    0  501    0 0.00000000E+00 0.00000000E+00 -.28662294E+03 0.28662312E+03 0.32000000E+00 0.0000E+00 0.9000E+01
       25  2    1    2    0    0 -.27772732E+02 0.48394172E+03 0.34197152E+03 0.66451022E+03 0.29943012E+03 0.0000E+00 0.0000E+00
       23  2    1    2    0    0 0.22836549E+02 -.49391782E+03 0.38192609E+03 0.63108823E+03 0.89042070E+02 0.0000E+00 0.0000E+00
       23  1    3    3    0    0 0.39641731E+02 0.56709459E+02 0.13330387E+03 0.17570601E+03 0.91188000E+02 0.0000E+00 0.9000E+01
      -13  1    4    4    0    0 0.30070964E+02 -.94284380E+02 0.46733008E+02 0.10944310E+03 0.10565837E+00 0.0000E+00 0.9000E+01
       13  1    4    4    0    0 -.72344154E+01 -.39963344E+03 0.33519308E+03 0.52164513E+03 0.10565837E+00 0.0000E+00 0.9000E+01
       23  1    3    3    0    0 -.67414463E+02 0.42723226E+03 0.20866765E+03 0.48880420E+03 0.91188000E+02 0.0000E+00 0.9000E+01
       21  1    1    2  501  502 0.49361833E+01 0.99761047E+01 0.39495433E+02 0.41040715E+02 0.75000000E+00 0.0000E+00 0.9000E+01
#aMCatNLO 2  0  0  1  2 0.11130524D+02 0.00000000D+00  -5  7  0 0.00000000D+00 0.00000000D+00 0.00000000D+00 0.00000000D+00 0.00000000D+00
  <mgrwgt>
 -.1414779316D-03    3    2    0
 0.537220552787469D+03 0.000000000000000D+00 0.000000000000000D+00 0.537220552787469D+03
 0.537220552787469D+03 0.000000000000000D+00 0.000000000000000D+00 -.537220552787469D+03
 0.122768480288057D+03 0.402040938652759D+02 0.578460045710389D+02 0.423594027327880D+02
 0.997465472417995D+02 0.305309397343087D+02 -.933544382913646D+02 -.173834477853030D+02
 0.399440320644517D+03 -.539086369155689D+01 -.395907917014538D+03 0.527297789722576D+02
 0.452485757400564D+03 -.653441699080277D+02 0.431416350734864D+03 -.777057339197426D+02
 0.000000000000000D+00 0.000000000000000D+00 0.000000000000000D+00 0.000000000000000D+00
 0.558668161222263D+03 0.000000000000000D+00 0.000000000000000D+00 0.558668161222263D+03
 0.538695405488962D+03 0.000000000000000D+00 0.000000000000000D+00 -.538695405488962D+03
 0.122053266729664D+03 0.396417305102765D+02 0.567094593313557D+02 0.423594027327880D+02
 0.100478423392344D+03 0.300710165958943D+02 -.942839502322441D+02 -.173834477853030D+02
 0.403162495109707D+03 -.723446793708525D+01 -.399633870369228D+03 0.527297789722576D+02
 0.448804571360988D+03 -.674144625159560D+02 0.427232256612489D+03 -.777057339197426D+02
 0.228648101185206D+02 0.493618334687048D+01 0.997610465762788D+01 0.199727557333017D+02
-.150999474410D-03 0.000000000000D+00 0.000000000000D+00 0.160514850009D-06 0.000000000000D+00  7 -2 2 23 -13 13 23 21 2 0.16174755D+00 0.43974628D-01 0.28424173D+06 0.28424173D+06 0.28424173D+06 0.10862898D+01  1  2 13  1  7  1       -2 -.595192662487D-03 0.100000000000D+01
-.317317976211D-03 0.000000000000D+00 0.000000000000D+00 0.160514850009D-06 0.000000000000D+00  7 -2 2 23 -13 13 23 21 2 0.15533752D+00 0.43974628D-01 0.27833937D+06 0.27833937D+06 0.27833937D+06 0.10869681D+01  1  2  8  1  7  1       -2 -.140464110731D-02 0.100000000000D+01
0.471170023843D-03 0.000000000000D+00 0.000000000000D+00 0.160514850009D-06 0.815962677374D-08  7 -2 2 23 -13 13 23 21 2 0.16153910D+00 0.44095353D-01 0.28424173D+06 0.28424173D+06 0.28424173D+06 0.10862898D+01  1  2  1  1  7  1       -2 0.185835583823D-02 0.100000000000D+01
  </mgrwgt>
  </event>
  <event>
  8     66 0.53686478E-06 0.20849987E+03 0.75467711E-02 0.99522636E-01
       -2 -1    0    0    0  501 0.00000000E+00 0.00000000E+00 0.78776303E+03 0.78776309E+03 0.32000000E+00 0.0000E+00 0.9000E+01
        2 -1    0    0  501    0 0.00000000E+00 0.00000000E+00 -.15544178E+03 0.15544211E+03 0.32000000E+00 0.0000E+00 0.9000E+01
       25  2    1    2    0    0 0.95185202E+02 0.15226239E+03 0.65275211E+03 0.74065863E+03 0.30040942E+03 0.0000E+00 0.0000E+00
       23  2    1    2    0    0 -.95185202E+02 -.15226239E+03 -.20430872E+02 0.20254658E+03 0.91452929E+02 0.0000E+00 0.0000E+00
       23  1    3    3    0    0 -.48520031E+02 0.70410334E+02 0.43408713E+03 0.45172856E+03 0.91188000E+02 0.0000E+00 0.9000E+01
      -13  1    4    4    0    0 -.19348081E+02 -.35990107E+02 0.34279638E+02 0.53336111E+02 0.10565837E+00 0.0000E+00 0.9000E+01
       13  1    4    4    0    0 -.75837121E+02 -.11627228E+03 -.54710510E+02 0.14921047E+03 0.10565837E+00 0.0000E+00 0.9000E+01
       23  1    3    3    0    0 0.14370523E+03 0.81852056E+02 0.21866499E+03 0.28893006E+03 0.91188000E+02 0.0000E+00 0.9000E+01
#aMCatNLO 1  0  0  1  2 0.15561109D+03 0.00000000D+00  -5  7  0 0.00000000D+00 0.00000000D+00 0.00000000D+00 0.00000000D+00 0.00000000D+00
  <mgrwgt>
 0.1452254918D-03    9    2    0
 0.349930673045384D+03 0.000000000000000D+00 0.000000000000000D+00 0.349930673045384D+03
 0.349930673045384D+03 0.000000000000000D+00 0.000000000000000D+00 -.349930673045384D+03
 0.216600360572877D+03 -.485200312181287D+02 0.704103345618144D+02 0.176885997788931D+03
 0.409094726020154D+02 -.193480053183269D+02 -.359899995796769D+02 -.198986658645767D+01
 0.250522341735074D+03 -.758371963163496D+02 -.116272390633033D+03 -.208544706333630D+03
 0.191829171180802D+03 0.143705232852805D+03 0.818520556508957D+02 0.336485751311574D+02
 0.000000000000000D+00 0.000000000000000D+00 -.000000000000000D+00 0.000000000000000D+00
 0.484533190815555D+03 0.000000000000000D+00 0.000000000000000D+00 0.484533190815555D+03
 0.406499725049912D+03 0.000000000000000D+00 0.000000000000000D+00 -.406499725049912D+03
 0.239088666596412D+03 -.566430512499380D+02 0.119795858368148D+03 0.176885997788931D+03
 0.347105972256860D+02 -.206959933219727D+02 -.277946370933092D+02 -.198986658645767D+01
 0.233867096045144D+03 -.844718240376438D+02 -.637764456250250D+02 -.208544706333630D+03
 0.209286019993666D+03 0.136555034935569D+03 0.125323112976728D+03 0.336485751311574D+02
 0.174080536004559D+03 0.252558336739854D+02 -.153547888626542D+03 0.780334657656426D+02
0.931118222582D-05 0.000000000000D+00 0.000000000000D+00 0.796748656496D-06 0.000000000000D+00  7 -2 2 23 -13 13 23 21 0 0.12119434D+00 0.23914151D-01 0.60896093D+05 0.60896093D+05 0.60896093D+05 0.11398396D+01  1  2  2  1  7  1       -2 0.139275900801D-03 0.100000000000D+01
-.440561713003D-06 0.000000000000D+00 -.357573914377D-07 0.796748656496D-06 0.000000000000D+00  7 -2 2 23 -13 13 23 21 2 0.12119434D+00 0.23914151D-01 0.60896093D+05 0.60896093D+05 0.60896093D+05 0.11398396D+01  1  2  3  1  7  1       -2 -.856180658576D-05 0.100000000000D+01
0.561248556362D-06 0.000000000000D+00 0.000000000000D+00 0.796748656496D-06 0.000000000000D+00  7 -2 2 23 -13 13 23 21 2 0.12119434D+00 0.23914151D-01 0.60896093D+05 0.60896093D+05 0.60896093D+05 0.11398396D+01  1  2 15  1  7  1       -2 0.109072155938D-04 0.100000000000D+01
0.187509206529D-05 0.000000000000D+00 0.000000000000D+00 0.796748656496D-06 0.000000000000D+00  7 -2 2 23 -13 13 23 21 2 0.17461461D+00 0.23914151D-01 0.11006737D+06 0.11006737D+06 0.11006737D+06 0.11183194D+01  1  2 12  1  7  1       -2 0.129082629789D-04 0.100000000000D+01
-.548366663080D-05 0.000000000000D+00 0.000000000000D+00 0.796748656496D-06 0.000000000000D+00  7 -2 2 23 -13 13 23 21 2 0.12119434D+00 0.23914151D-01 0.60896093D+05 0.60896093D+05 0.60896093D+05 0.11398396D+01  1  2  4  1  7  1       -2 -.106568709191D-03 0.100000000000D+01
-.619124256537D-05 0.000000000000D+00 -.335155306016D-05 0.796748656496D-06 0.000000000000D+00  7 -2 2 23 -13 13 23 21 2 0.18446323D+00 0.23914151D-01 0.60896093D+05 0.60896093D+05 0.60896093D+05 0.11398396D+01  1  2  5  1  7  1       -2 -.383297600972D-04 0.100000000000D+01
0.722742381166D-05 0.000000000000D+00 0.307615176228D-05 0.796748656496D-06 0.000000000000D+00  7 -2 2 23 -13 13 23 21 2 0.12119434D+00 0.23914151D-01 0.60896093D+05 0.60896093D+05 0.60896093D+05 0.11398396D+01  1  2  6  1  7  1       -2 0.140456610192D-03 0.100000000000D+01
0.835262845134D-07 0.000000000000D+00 0.000000000000D+00 0.796748656496D-06 0.000000000000D+00  7 21 2 23 -13 13 23 2 2 0.17461461D+00 0.23914151D-01 0.11006737D+06 0.11006737D+06 0.11006737D+06 0.11183194D+01  1  2 12  3  7  1       -2 0.489619854543D-05 0.100000000000D+01
-.183420452776D-06 0.000000000000D+00 -.165398007875D-06 0.796748656496D-06 0.000000000000D+00  7 21 2 23 -13 13 23 2 2 0.18446323D+00 0.23914151D-01 0.60896093D+05 0.60896093D+05 0.60896093D+05 0.11398396D+01  1  2  5  3  7  1       -2 -.975842044197D-05 0.100000000000D+01
  </mgrwgt>
  </event>
  <event>
  8     66 0.53686478E-06 0.15756118E+03 0.75467711E-02 0.98073994E-01
       -2 -1    0    0    0  501 0.00000000E+00 0.00000000E+00 0.25136813E+03 0.25136833E+03 0.32000000E+00 0.0000E+00 0.9000E+01
        2 -1    0    0  501    0 0.00000000E+00 0.00000000E+00 -.27835094E+04 0.27835094E+04 0.32000000E+00 0.0000E+00 0.9000E+01
       25  2    1    2    0    0 0.19840434E+03 0.96769157E+02 -.27110699E+04 0.27365464E+04 0.30009615E+03 0.0000E+00 0.0000E+00
       23  2    1    2    0    0 -.19840434E+03 -.96769157E+02 0.17892871E+03 0.29833125E+03 0.90870782E+02 0.0000E+00 0.0000E+00
       23  1    3    3    0    0 -.31190395E+02 0.31813272E+02 -.46192095E+03 0.47293883E+03 0.91188000E+02 0.0000E+00 0.9000E+01
      -11  1    4    4    0    0 -.19789323E+03 -.80964401E+02 0.13807106E+03 0.25452030E+03 0.51099893E-03 0.0000E+00 0.9000E+01
       11  1    4    4    0    0 -.51110954E+00 -.15804756E+02 0.40857657E+02 0.43810954E+02 0.51099893E-03 0.0000E+00 0.9000E+01
       23  1    3    3    0    0 0.22959474E+03 0.64955886E+02 -.22491490E+04 0.22636076E+04 0.91188000E+02 0.0000E+00 0.9000E+01
#aMCatNLO 1  0  0  2  1 0.14622014D+03 0.00000000D+00  -5  7  0 0.00000000D+00 0.00000000D+00 0.00000000D+00 0.00000000D+00 0.00000000D+00
  <mgrwgt>
 0.3922078815D-03    9    2    0
 0.836472277766975D+03 0.000000000000000D+00 0.000000000000000D+00 0.836472277766975D+03
 0.836472277766975D+03 0.000000000000000D+00 0.000000000000000D+00 -.836472277766975D+03
 0.158799310019994D+03 -.311903946001116D+02 0.318132716755555D+02 -.122135353394555D+03
 0.670705668677919D+03 -.197893233344975D+03 -.809644014121389D+02 0.635711513107117D+03
 0.141318637612086D+03 -.511109534248114D+00 -.158047559775460D+02 0.140431142529250D+03
 0.702120939223951D+03 0.229594737479335D+03 0.649558857141294D+02 -.654007302241811D+03
 0.000000000000000D+00 0.000000000000000D+00 0.000000000000000D+00 -.000000000000000D+00
 0.900393885412167D+03 0.000000000000000D+00 0.000000000000000D+00 0.900393885412167D+03
 0.927671206460852D+03 0.000000000000000D+00 0.000000000000000D+00 -.927671206460852D+03
 0.162042766654693D+03 -.451781636841914D+02 0.313766769817794D+02 -.122135353394555D+03
 0.690771426130362D+03 -.257249622671526D+03 -.828170688722542D+02 0.635711513107117D+03
 0.141945141717809D+03 -.128605755899978D+02 -.161902149680755D+02 0.140431142529250D+03
 0.684563092545124D+03 0.169139399981213D+03 0.630689172201924D+02 -.654007302241811D+03
 0.148742664825030D+03 0.146148961964502D+03 0.456168963835785D+01 -.272773210486847D+02
0.133469197515D-03 0.000000000000D+00 0.000000000000D+00 0.834465315524D-05 0.000000000000D+00  7 -2 2 23 -11 11 23 21 0 0.38672037D-01 0.42823222D+00 0.86011826D+05 0.86011826D+05 0.86011826D+05 0.11271322D+01  1  2  2  2  7  2        2 0.278822852369D-03 0.100000000000D+01
0.248819538092D-05 0.000000000000D+00 -.512556861703D-06 0.834465315524D-05 0.000000000000D+00  7 -2 2 23 -11 11 23 21 2 0.38672037D-01 0.42823222D+00 0.86011826D+05 0.86011826D+05 0.86011826D+05 0.11271322D+01  1  2  3  2  7  2        2 0.660361130406D-05 0.100000000000D+01
0.759669951040D-05 0.000000000000D+00 0.000000000000D+00 0.834465315524D-05 0.000000000000D+00  7 -2 2 23 -11 11 23 21 2 0.38672037D-01 0.42823222D+00 0.86011826D+05 0.86011826D+05 0.86011826D+05 0.11271322D+01  1  2 15  2  7  2        2 0.201614596446D-04 0.100000000000D+01
0.809623660098D-04 0.000000000000D+00 0.000000000000D+00 0.834465315524D-05 0.000000000000D+00  7 -2 2 23 -11 11 23 21 2 0.38672037D-01 0.48977258D+00 0.13908493D+06 0.13908493D+06 0.13908493D+06 0.11101505D+01  1  2 12  2  7  2        2 0.113601463790D-03 0.100000000000D+01
-.116051006203D-03 0.000000000000D+00 0.000000000000D+00 0.834465315524D-05 0.000000000000D+00  7 -2 2 23 -11 11 23 21 2 0.38672037D-01 0.42823222D+00 0.86011826D+05 0.86011826D+05 0.86011826D+05 0.11271322D+01  1  2  4  2  7  2        2 -.307996607615D-03 0.100000000000D+01
-.228816190317D-03 0.000000000000D+00 -.909010922449D-04 0.834465315524D-05 0.000000000000D+00  7 -2 2 23 -11 11 23 21 2 0.38672037D-01 0.48666909D+00 0.86011826D+05 0.86011826D+05 0.86011826D+05 0.11271322D+01  1  2  5  2  7  2        2 -.353635087908D-03 0.100000000000D+01
0.239222928355D-03 0.000000000000D+00 0.901624124163D-04 0.834465315524D-05 0.000000000000D+00  7 -2 2 23 -11 11 23 21 2 0.38672037D-01 0.42823222D+00 0.86011826D+05 0.86011826D+05 0.86011826D+05 0.11271322D+01  1  2  6  2  7  2        2 0.634891956631D-03 0.100000000000D+01
0.168697669135D-05 0.000000000000D+00 0.000000000000D+00 0.834465315524D-05 0.000000000000D+00  7 -2 21 23 -11 11 23 -2 2 0.38672037D-01 0.48977258D+00 0.13908493D+06 0.13908493D+06 0.13908493D+06 0.11101505D+01  1  2 12  4  7  2        2 0.131899543047D-06 0.100000000000D+01
-.410719834752D-05 0.000000000000D+00 -.181944265022D-05 0.834465315524D-05 0.000000000000D+00  7 -2 21 23 -11 11 23 -2 2 0.38672037D-01 0.48666909D+00 0.86011826D+05 0.86011826D+05 0.86011826D+05 0.11271322D+01  1  2  5  4  7  2        2 -.373666243999D-06 0.100000000000D+01
  </mgrwgt>
  </event>
  <event>
  8     66 0.53686478E-06 0.14132684E+03 0.75467711E-02 0.10102943E+00
       -2 -1    0    0    0  501 0.00000000E+00 0.00000000E+00 0.19617328E+03 0.19617354E+03 0.32000000E+00 0.0000E+00 0.9000E+01
        2 -1    0    0  501    0 0.00000000E+00 0.00000000E+00 -.51632823E+03 0.51632833E+03 0.32000000E+00 0.0000E+00 0.9000E+01
       25  2    1    2    0    0 0.15757033E+03 0.34826768E+02 -.38720728E+03 0.51547234E+03 0.29956792E+03 0.0000E+00 0.0000E+00
       23  2    1    2    0    0 -.15757033E+03 -.34826768E+02 0.67052334E+02 0.19702954E+03 0.91012681E+02 0.0000E+00 0.0000E+00
       23  1    3    3    0    0 -.62749387E+01 -.39412401E+02 -.25652591E+03 0.27516088E+03 0.91188000E+02 0.0000E+00 0.9000E+01
      -11  1    4    4    0    0 -.98814769E+02 0.19315358E+02 0.59072324E+02 0.11673466E+03 0.51099893E-03 0.0000E+00 0.9000E+01
       11  1    4    4    0    0 -.58755565E+02 -.54142126E+02 0.79800103E+01 0.80294874E+02 0.51099893E-03 0.0000E+00 0.9000E+01
       23  1    3    3    0    0 0.16384527E+03 0.74239169E+02 -.13068137E+03 0.24031146E+03 0.91188000E+02 0.0000E+00 0.9000E+01
#aMCatNLO 1  0  0  2  1 0.10574565D+03 0.00000000D+00  -5  7  0 0.00000000D+00 0.00000000D+00 0.00000000D+00 0.00000000D+00 0.00000000D+00
  <mgrwgt>
 0.1464201107D-03    9    2    0
 0.318260793244923D+03 0.000000000000000D+00 0.000000000000000D+00 0.318260793244923D+03
 0.318260793244923D+03 0.000000000000000D+00 0.000000000000000D+00 -.318260793244923D+03
 0.178979946281833D+03 -.627493873917415D+01 -.394124008125038D+02 -.148747630680498D+03
 0.160380989063532D+03 -.988147688645801D+02 0.193153576286401D+02 0.124838375778100D+03
 0.938932621334477D+02 -.587555653859121D+02 -.541421258280411D+02 0.493189458632551D+02
 0.203267389011033D+03 0.163845272989666D+03 0.742391690119048D+02 -.254096909608568D+02
 0.000000000000000D+00 -.000000000000000D+00 0.000000000000000D+00 -.000000000000000D+00
 0.349257052988578D+03 0.000000000000000D+00 0.000000000000000D+00 0.349257052988578D+03
 0.427582940684527D+03 0.000000000000000D+00 0.000000000000000D+00 -.427582940684527D+03
 0.183808243449218D+03 0.196349380494306D+02 -.543951338873275D+02 -.148747630680498D+03
 0.146761615509307D+03 -.768790298679137D+02 0.663072292861725D+01 0.124838375778100D+03
 0.912327900449270D+02 -.455340952882818D+02 -.617876178906155D+02 0.493189458632551D+02
 0.223442941670961D+03 0.194320388788203D+03 0.566165253706725D+02 -.254096909608568D+02
 0.131594402998691D+03 -.915422016814381D+02 0.529355034786532D+02 -.783258876959485D+02
0.194501462800D-05 0.000000000000D+00 0.000000000000D+00 0.292373147412D-06 0.000000000000D+00  7 -2 2 23 -11 11 23 21 0 0.30180533D-01 0.79435140D-01 0.58031344D+05 0.58031344D+05 0.58031344D+05 0.11416482D+01  1  2  2  2  7  2        2 0.138933505623D-03 0.100000000000D+01
-.978660417234D-07 0.000000000000D+00 -.746936830564D-08 0.292373147412D-06 0.000000000000D+00  7 -2 2 23 -11 11 23 21 2 0.30180533D-01 0.79435140D-01 0.58031344D+05 0.58031344D+05 0.58031344D+05 0.11416482D+01  1  2  3  2  7  2        2 -.911130758182D-05 0.100000000000D+01
0.125913013686D-06 0.000000000000D+00 0.000000000000D+00 0.292373147412D-06 0.000000000000D+00  7 -2 2 23 -11 11 23 21 2 0.30180533D-01 0.79435140D-01 0.58031344D+05 0.58031344D+05 0.58031344D+05 0.11416482D+01  1  2 15  2  7  2        2 0.117224746812D-04 0.100000000000D+01
0.147936991694D-05 0.000000000000D+00 0.000000000000D+00 0.292373147412D-06 0.000000000000D+00  7 -2 2 23 -11 11 23 21 2 0.30180533D-01 0.10956879D+00 0.86917802D+05 0.86917802D+05 0.86917802D+05 0.11267534D+01  1  2 12  2  7  2        2 0.923725937679D-04 0.100000000000D+01
-.198231905866D-05 0.000000000000D+00 0.000000000000D+00 0.292373147412D-06 0.000000000000D+00  7 -2 2 23 -11 11 23 21 2 0.30180533D-01 0.79435140D-01 0.58031344D+05 0.58031344D+05 0.58031344D+05 0.11416482D+01  1  2  4  2  7  2        2 -.184553480969D-03 0.100000000000D+01
-.253880344384D-05 0.000000000000D+00 -.896086409662D-06 0.292373147412D-06 0.000000000000D+00  7 -2 2 23 -11 11 23 21 2 0.30180533D-01 0.11380173D+00 0.58031344D+05 0.58031344D+05 0.58031344D+05 0.11416482D+01  1  2  5  2  7  2        2 -.156152256580D-03 0.100000000000D+01
0.273710695861D-05 0.000000000000D+00 0.841138780555D-06 0.292373147412D-06 0.000000000000D+00  7 -2 2 23 -11 11 23 21 2 0.30180533D-01 0.79435140D-01 0.58031344D+05 0.58031344D+05 0.58031344D+05 0.11416482D+01  1  2  6  2  7  2        2 0.254824073244D-03 0.100000000000D+01
0.601278097804D-07 0.000000000000D+00 0.000000000000D+00 0.292373147412D-06 0.000000000000D+00  7 -2 21 23 -11 11 23 -2 2 0.30180533D-01 0.10956879D+00 0.86917802D+05 0.86917802D+05 0.86917802D+05 0.11267534D+01  1  2 12  4  7  2        2 0.460209898499D-05 0.100000000000D+01
-.854730950186D-07 0.000000000000D+00 -.394670785808D-07 0.292373147412D-06 0.000000000000D+00  7 -2 21 23 -11 11 23 -2 2 0.30180533D-01 0.11380173D+00 0.58031344D+05 0.58031344D+05 0.58031344D+05 0.11416482D+01  1  2  5  4  7  2        2 -.621759047331D-05 0.100000000000D+01
  </mgrwgt>
  </event>
  <event>
  8     66 0.53686478E-06 0.35187917E+03 0.75467711E-02 0.97662944E-01
       -2 -1    0    0    0  501 0.00000000E+00 0.00000000E+00 0.35152065E+03 0.35152080E+03 0.32000000E+00 0.0000E+00 0.9000E+01
        2 -1    0    0  501    0 0.00000000E+00 0.00000000E+00 -.90381142E+03 0.90381147E+03 0.32000000E+00 0.0000E+00 0.9000E+01
       25  2    1    2    0    0 -.62371299E+02 0.27986288E+03 -.77567398E+03 0.88151122E+03 0.30525153E+03 0.0000E+00 0.0000E+00
       23  2    1    2    0    0 0.62371299E+02 -.27986288E+03 0.22338321E+03 0.37382105E+03 0.87342471E+02 0.0000E+00 0.0000E+00
       23  1    3    3    0    0 0.86883006E+02 0.70939726E+02 -.23132773E+03 0.27277989E+03 0.91188000E+02 0.0000E+00 0.9000E+01
      -13  1    4    4    0    0 0.27589043E+02 -.12145547E+03 0.15230770E+03 0.19674916E+03 0.10565837E+00 0.0000E+00 0.9000E+01
       13  1    4    4    0    0 0.34782256E+02 -.15840741E+03 0.71075511E+02 0.17707189E+03 0.10565837E+00 0.0000E+00 0.9000E+01
       23  1    3    3    0    0 -.14925431E+03 0.20892316E+03 -.54434625E+03 0.60873133E+03 0.91188000E+02 0.0000E+00 0.9000E+01
#aMCatNLO 1  0  0  1  2 0.64852287D+02 0.00000000D+00  -5  7  0 0.00000000D+00 0.00000000D+00 0.00000000D+00 0.00000000D+00 0.00000000D+00
  <mgrwgt>
 0.1884953047D-03    4    2    0
 0.563656370751013D+03 0.000000000000000D+00 0.000000000000000D+00 0.563656370751013D+03
 0.563656370751013D+03 0.000000000000000D+00 0.000000000000000D+00 -.563656370751013D+03
 0.190425625888333D+03 0.868830059877140D+02 0.709397255374889D+02 -.123957921336912D+03
 0.293710697655731D+03 0.275890326757254D+02 -.121455412157126D+03 0.265995116592724D+03
 0.232001549812982D+03 0.347822665878946D+02 -.158407468919465D+03 0.165897519080795D+03
 0.411174868144981D+03 -.149254305251334D+03 0.208923155539102D+03 -.307934714336607D+03
 0.000000000000000D+00 -.000000000000000D+00 -.000000000000000D+00 -.000000000000000D+00
 0.577323557069298D+03 0.000000000000000D+00 0.000000000000000D+00 0.577323557069298D+03
 0.647150880121940D+03 0.000000000000000D+00 0.000000000000000D+00 -.647150880121940D+03
 0.195823968033808D+03 0.979814657151925D+02 0.711747232284071D+02 -.123957921336912D+03
 0.295635194073744D+03 0.445232424401840D+02 -.121096848870878D+03 0.265995116592724D+03
 0.234192737577775D+03 0.481778496647530D+02 -.158123832165459D+03 0.165897519080795D+03
 0.403524719054911D+03 -.125844803465932D+03 0.209418826019529D+03 -.307934714336607D+03
 0.952978184510002D+02 -.648377543541979D+02 -.137286821159834D+01 -.698273230526423D+02
0.204565043824D-04 0.000000000000D+00 0.000000000000D+00 0.252809992211D-08 0.000000000000D+00  7 -2 2 23 -13 13 23 21 0 0.54080116D-01 0.13904793D+00 0.12381895D+06 0.12381895D+06 0.12381895D+06 0.11141864D+01  1  2  2  1  7  1       -2 0.248388238732D-03 0.100000000000D+01
-.829731622923D-06 0.000000000000D+00 -.785583631496D-07 0.252809992211D-08 0.000000000000D+00  7 -2 2 23 -13 13 23 21 2 0.54080116D-01 0.13904793D+00 0.12381895D+06 0.12381895D+06 0.12381895D+06 0.11141864D+01  1  2  3  1  7  1       -2 -.125069941688D-04 0.100000000000D+01
0.119270633335D-05 0.000000000000D+00 0.000000000000D+00 0.252809992211D-08 0.000000000000D+00  7 -2 2 23 -13 13 23 21 2 0.54080116D-01 0.13904793D+00 0.12381895D+06 0.12381895D+06 0.12381895D+06 0.11141864D+01  1  2 15  1  7  1       -2 0.179783085809D-04 0.100000000000D+01
-.433635637952D-05 0.000000000000D+00 0.000000000000D+00 0.252809992211D-08 0.000000000000D+00  7 -2 2 23 -13 13 23 21 2 0.54080116D-01 0.13904793D+00 0.12381895D+06 0.12381895D+06 0.12381895D+06 0.11141864D+01  1  2  4  1  7  1       -2 -.653642484558D-04 0.100000000000D+01
  </mgrwgt>
  </event>
  <event>
  8     66 0.53686478E-06 0.12873676E+03 0.75467711E-02 0.10080432E+00
       -2 -1    0    0    0  501 0.00000000E+00 0.00000000E+00 0.36240486E+03 0.36240500E+03 0.32000000E+00 0.0000E+00 0.9000E+01
        2 -1    0    0  501    0 0.00000000E+00 0.00000000E+00 -.88726480E+03 0.88726485E+03 0.32000000E+00 0.0000E+00 0.9000E+01
       25  2    1    2    0    0 -.37864948E+02 -.20439654E+03 0.24985050E+03 0.44219693E+03 0.29983521E+03 0.0000E+00 0.0000E+00
       23  2    1    2    0    0 0.37864948E+02 0.20439654E+03 -.77471043E+03 0.80747293E+03 0.92868592E+02 0.0000E+00 0.0000E+00
       23  1    3    3    0    0 0.75983750E+02 -.10730293E+02 0.55530382E+02 0.13148211E+03 0.91188000E+02 0.0000E+00 0.9000E+01
      -11  1    4    4    0    0 -.17770552E+02 0.27183621E+02 -.52273470E+02 0.61540697E+02 0.51099893E-03 0.0000E+00 0.9000E+01
       11  1    4    4    0    0 0.55635501E+02 0.17721292E+03 -.72243696E+03 0.74593223E+03 0.51099893E-03 0.0000E+00 0.9000E+01
       23  1    3    3    0    0 -.11384870E+03 -.19366624E+03 0.19432012E+03 0.31071482E+03 0.91188000E+02 0.0000E+00 0.9000E+01
#aMCatNLO 1  0  0  2  1 0.21114748D+02 0.00000000D+00  -5  7  0 0.00000000D+00 0.00000000D+00 0.00000000D+00 0.00000000D+00 0.00000000D+00
  <mgrwgt>
 0.2228189105D-03    6    2    0
 0.567053082735177D+03 0.000000000000000D+00 0.000000000000000D+00 0.567053082735177D+03
 0.567053082735177D+03 0.000000000000000D+00 0.000000000000000D+00 -.567053082735177D+03
 0.170579177268387D+03 0.759837495564846D+02 -.107302929764489D+02 0.122038252157005D+03
 0.436196414018101D+02 -.177705522461767D+02 0.271836211588366D+02 -.291192604573202D+02
 0.487600563673307D+03 0.556355005431029D+02 0.177212916555286D+03 -.450837645921249D+03
 0.432306783126851D+03 -.113848697853411D+03 -.193666244737674D+03 0.357918654221565D+03
 0.000000000000000D+00 0.000000000000000D+00 0.000000000000000D+00 0.000000000000000D+00
 0.578633978951061D+03 0.000000000000000D+00 0.000000000000000D+00 0.578633978951061D+03
 0.576858030041767D+03 0.000000000000000D+00 0.000000000000000D+00 -.576858030041767D+03
 0.169316227033740D+03 0.729611419424769D+02 -.116649119093993D+02 0.122038252157005D+03
 0.437937785602973D+02 -.185478986456858D+02 0.269432582817384D+02 -.291192604573202D+02
 0.485720814599955D+03 0.469799889603979D+02 0.174536550307124D+03 -.450837645921249D+03
 0.435471885064220D+03 -.121565643644818D+03 -.196052397544203D+03 0.357918654221565D+03
 0.211893037346153D+02 0.201724113876286D+02 0.623750086473998D+01 0.177594890929377D+01
0.129765309257D-04 0.000000000000D+00 0.000000000000D+00 0.150447564070D-05 0.000000000000D+00  7 -2 2 23 -11 11 23 21 0 0.55754609D-01 0.13650229D+00 0.84056760D+05 0.84056760D+05 0.84056760D+05 0.11279648D+01  1  2  2  2  7  2        2 0.153635471998D-03 0.100000000000D+01
-.326468857847D-06 0.000000000000D+00 -.498332955539D-07 0.150447564070D-05 0.000000000000D+00  7 -2 2 23 -11 11 23 21 2 0.55754609D-01 0.13650229D+00 0.84056760D+05 0.84056760D+05 0.84056760D+05 0.11279648D+01  1  2  3  2  7  2        2 -.491774195955D-05 0.100000000000D+01
0.761574287186D-06 0.000000000000D+00 0.000000000000D+00 0.150447564070D-05 0.000000000000D+00  7 -2 2 23 -11 11 23 21 2 0.55754609D-01 0.13650229D+00 0.84056760D+05 0.84056760D+05 0.84056760D+05 0.11279648D+01  1  2 15  2  7  2        2 0.114719236993D-04 0.100000000000D+01
0.155054116188D-04 0.000000000000D+00 0.000000000000D+00 0.150447564070D-05 0.000000000000D+00  7 -2 2 23 -11 11 23 21 2 0.55754609D-01 0.14023050D+00 0.89997513D+05 0.89997513D+05 0.89997513D+05 0.11254974D+01  1  2 12  2  7  2        2 0.223940227213D-03 0.100000000000D+01
-.109529927481D-04 0.000000000000D+00 0.000000000000D+00 0.150447564070D-05 0.000000000000D+00  7 -2 2 23 -11 11 23 21 2 0.55754609D-01 0.13650229D+00 0.84056760D+05 0.84056760D+05 0.84056760D+05 0.11279648D+01  1  2  4  2  7  2        2 -.164989678879D-03 0.100000000000D+01
0.299737888116D-06 0.000000000000D+00 0.000000000000D+00 0.150447564070D-05 0.000000000000D+00  7 -2 21 23 -11 11 23 -2 2 0.55754609D-01 0.14023050D+00 0.89997513D+05 0.89997513D+05 0.89997513D+05 0.11254974D+01  1  2 12  4  7  2        2 0.367870838564D-05 0.100000000000D+01
  </mgrwgt>
  </event>
  <event>
  8     66 0.53686478E-06 0.61274711E+03 0.75467711E-02 0.77089438E-01
       -2 -1    0    0    0  501 0.00000000E+00 0.00000000E+00 0.95776566E+03 0.95776572E+03 0.32000000E+00 0.0000E+00 0.9000E+01
        2 -1    0    0  501    0 0.00000000E+00 0.00000000E+00 -.56857306E+03 0.56857315E+03 0.32000000E+00 0.0000E+00 0.9000E+01
       25  2    1    2    0    0 0.15121523E+03 -.57462453E+03 0.59334697E+03 0.89168310E+03 0.29996454E+03 0.0000E+00 0.0000E+00
       23  2    1    2    0    0 -.15121523E+03 0.57462453E+03 -.20415437E+03 0.63465577E+03 0.89719304E+02 0.0000E+00 0.0000E+00
       23  1    3    3    0    0 0.91558120E+02 -.17805879E+03 0.80432312E+02 0.23424865E+03 0.91188000E+02 0.0000E+00 0.9000E+01
      -11  1    4    4    0    0 -.41089629E+02 0.14517805E+03 -.11669257E+02 0.15133141E+03 0.51099893E-03 0.0000E+00 0.9000E+01
       11  1    4    4    0    0 -.11012560E+03 0.42944648E+03 -.19248511E+03 0.48332437E+03 0.51099893E-03 0.0000E+00 0.9000E+01
       23  1    3    3    0    0 0.59657111E+02 -.39656573E+03 0.51291466E+03 0.65743444E+03 0.91188000E+02 0.0000E+00 0.9000E+01
#aMCatNLO 1  0  0  2  2 0.32451475D+04 0.00000000D+00  -5  7  0 0.00000000D+00 0.00000000D+00 0.00000000D+00 0.00000000D+00 0.00000000D+00
  <mgrwgt>
 0.2734804579D-03    5    2    0
 0.737942996735198D+03 0.000000000000000D+00 0.000000000000000D+00 0.737942996735198D+03
 0.737942996735198D+03 0.000000000000000D+00 0.000000000000000D+00 -.737942996735198D+03
 0.221046316438684D+03 0.915581204132976D+02 -.178058792097319D+03 0.214102734765062D+02
 0.159581835719479D+03 -.410896286801663D+02 0.145178047165746D+03 -.519744103157058D+02
 0.550605232133035D+03 -.110125603007997D+03 0.429446478136550D+03 -.326518292949281D+03
 0.544652609179197D+03 0.596571112748657D+02 -.396565733204976D+03 0.357082429788481D+03
 0.000000000000000D+00 0.000000000000000D+00 0.000000000000000D+00 -.000000000000000D+00
 0.317491665031747D+04 0.000000000000000D+00 0.000000000000000D+00 0.317491665031747D+04
 0.367327363321001D+04 0.000000000000000D+00 0.000000000000000D+00 -.367327363321001D+04
 0.417362934157549D+03 -.310658058717830D+03 -.262506644121495D+03 0.214102734765062D+02
 0.408297768570717D+03 -.398870103243745D+03 0.700597547132816D+02 -.519744103157058D+02
 0.137293817927623D+04 -.132201324499834D+04 0.175002938640433D+03 -.326518292949281D+03
 0.136640062305990D+04 -.114436135880451D+04 -.649357089871140D+03 0.357082429788481D+03
 0.328319077846309D+04 0.317590276576443D+04 0.666801040638921D+03 -.498356982892544D+03
0.136653908034D-03 0.000000000000D+00 0.000000000000D+00 0.226364721367D-05 0.000000000000D+00  7 -2 2 23 -11 11 23 21 0 0.14734857D+00 0.87472790D-01 0.37545902D+06 0.37545902D+06 0.37545902D+06 0.10774155D+01  1  2  2  2  7  2        2 0.271108195066D-03 0.100000000000D+01
-.727283541140D-05 0.000000000000D+00 -.524786988650D-06 0.226364721367D-05 0.000000000000D+00  7 -2 2 23 -11 11 23 21 2 0.14734857D+00 0.87472790D-01 0.37545902D+06 0.37545902D+06 0.37545902D+06 0.10774155D+01  1  2  3  2  7  2        2 -.167490738924D-04 0.100000000000D+01
0.815413204705D-05 0.000000000000D+00 0.000000000000D+00 0.226364721367D-05 0.000000000000D+00  7 -2 2 23 -11 11 23 21 2 0.14734857D+00 0.87472790D-01 0.37545902D+06 0.37545902D+06 0.37545902D+06 0.10774155D+01  1  2 15  2  7  2        2 0.187786678041D-04 0.100000000000D+01
0.239180263494D-03 0.000000000000D+00 -.889846199252D-04 0.226364721367D-05 0.000000000000D+00  7 -2 2 23 -11 11 23 21 2 0.14734857D+00 0.77008761D+00 0.37545902D+06 0.37545902D+06 0.37545902D+06 0.10774155D+01  1  2  5  2  7  2        2 0.342192905230D-06 0.100000000000D+01
0.504753037852D-04 0.000000000000D+00 -.233216330037D-04 0.226364721367D-05 0.000000000000D+00  7 -2 21 23 -11 11 23 -2 2 0.14734857D+00 0.77008761D+00 0.37545902D+06 0.37545902D+06 0.37545902D+06 0.10774155D+01  1  2  5  4  7  2        2 0.475967809947D-09 0.100000000000D+01
  </mgrwgt>
  </event>
  <event>
  9     66 -.53686478E-06 0.16697169E+03 0.75467711E-02 0.10877620E+00
       -2 -1    0    0    0  501 0.00000000E+00 0.00000000E+00 0.13999810E+04 0.13999810E+04 0.32000000E+00 0.0000E+00 0.9000E+01
        2 -1    0    0  502    0 0.00000000E+00 0.00000000E+00 -.57780261E+02 0.57781147E+02 0.32000000E+00 0.0000E+00 0.9000E+01
       25  2    1    2    0    0 0.27387078E+01 0.25980288E+02 0.13179197E+04 0.13517949E+04 0.29959079E+03 0.0000E+00 0.0000E+00
       23  2    1    2    0    0 -.66715252E+01 -.23311636E+02 0.13603686E+02 0.94255873E+02 0.90062021E+02 0.0000E+00 0.0000E+00
       23  1    3    3    0    0 -.44854629E+02 0.82310169E+02 0.30160913E+03 0.32874036E+03 0.91188000E+02 0.0000E+00 0.9000E+01
      -13  1    4    4    0    0 -.36049548E+02 0.13767749E+02 -.12067813E+02 0.40432216E+02 0.10565837E+00 0.0000E+00 0.9000E+01
       13  1    4    4    0    0 0.29378022E+02 -.37079385E+02 0.25671499E+02 0.53823657E+02 0.10565837E+00 0.0000E+00 0.9000E+01
       23  1    3    3    0    0 0.47593337E+02 -.56329881E+02 0.10163106E+04 0.10230545E+04 0.91188000E+02 0.0000E+00 0.9000E+01
       21  1    1    2  502  501 0.39328175E+01 -.26686521E+01 0.10677357E+02 0.11711413E+02 0.75000000E+00 0.0000E+00 0.9000E+01
#aMCatNLO 2  0  0  2  1 0.47527631D+01 0.00000000D+00  -5  7  0 0.00000000D+00 0.00000000D+00 0.00000000D+00 0.00000000D+00 0.00000000D+00
  <mgrwgt>
 -.2576314715D-04    3    2    0
 0.281995445166967D+03 0.000000000000000D+00 0.000000000000000D+00 0.281995445166967D+03
 0.281995445166967D+03 0.000000000000000D+00 0.000000000000000D+00 -.281995445166967D+03
 0.130107723743755D+03 -.439449467344067D+02 0.816928951250675D+02 -.280730767391830D+01
 0.131841024326115D+03 -.351292124402234D+02 0.131432551108154D+02 -.126393231518863D+03
 0.777742834056952D+02 0.299191009528101D+02 -.374465482354087D+02 -.612490210754275D+02
 0.224267858858369D+03 0.491550582218201D+02 -.573896020004741D+02 0.190449560268209D+03
 0.000000000000000D+00 0.000000000000000D+00 -.000000000000000D+00 -.000000000000000D+00
 0.284249231471027D+03 0.000000000000000D+00 0.000000000000000D+00 0.284249231471027D+03
 0.284522284627316D+03 0.000000000000000D+00 0.000000000000000D+00 -.284522284627316D+03
 0.130805328691346D+03 -.448546291559030D+02 0.823101690981215D+02 -.280730767391830D+01
 0.132152858677029D+03 -.360496362845240D+02 0.137678177821822D+02 -.126393231518863D+03
 0.773912263219563D+02 0.293781110126580D+02 -.370794541794516D+02 -.612490210754275D+02
 0.223661502105523D+03 0.475933369436472D+02 -.563298806346427D+02 0.190449560268209D+03
 0.476060030248881D+01 0.393281748412172D+01 -.266865206620945D+01 -.273053156288436D+00
-.186081730312D-05 0.000000000000D+00 0.000000000000D+00 0.132201866587D-06 0.000000000000D+00  7 -2 2 23 -13 13 23 21 2 0.21365196D+00 0.89233307D-02 0.28679304D+05 0.28679304D+05 0.28679304D+05 0.11691544D+01  1  2 13  2  7  2        2 -.260166427132D-04 0.100000000000D+01
-.363094108436D-04 0.000000000000D+00 0.000000000000D+00 0.132201866587D-06 0.000000000000D+00  7 -2 2 23 -13 13 23 21 2 0.21365196D+00 0.88094863D-02 0.27879544D+05 0.27879544D+05 0.27879544D+05 0.11703012D+01  1  2  8  2  7  2        2 -.517272446136D-03 0.100000000000D+01
0.377799257043D-04 0.000000000000D+00 0.000000000000D+00 0.132201866587D-06 0.426697943551D-07  7 -2 2 23 -13 13 23 21 2 0.21535953D+00 0.88884243D-02 0.28679304D+05 0.28679304D+05 0.28679304D+05 0.11691544D+01  1  2  1  2  7  2        2 0.517525941703D-03 0.100000000000D+01
  </mgrwgt>
  </event>
  <event>
  8     66 0.53686478E-06 0.16287815E+03 0.75467711E-02 0.94549678E-01
       -2 -1    0    0    0  501 0.00000000E+00 0.00000000E+00 0.20464191E+03 0.20464216E+03 0.32000000E+00 0.0000E+00 0.9000E+01
        2 -1    0    0  501    0 0.00000000E+00 0.00000000E+00 -.12888140E+04 0.12888140E+04 0.32000000E+00 0.0000E+00 0.9000E+01
       25  2    1    2    0    0 0.32816358E+03 -.17559028E+03 -.98953594E+03 0.10990827E+04 0.30046307E+03 0.0000E+00 0.0000E+00
       23  2    1    2    0    0 -.32816358E+03 0.17559028E+03 -.94636161E+02 0.39437353E+03 0.89728457E+02 0.0000E+00 0.0000E+00
       23  1    3    3    0    0 0.82484669E+02 -.72866283E+01 -.10684624E+03 0.16305884E+03 0.91188000E+02 0.0000E+00 0.9000E+01
      -11  1    4    4    0    0 -.30288284E+03 0.13818739E+03 -.10294482E+03 0.34847009E+03 0.51099893E-03 0.0000E+00 0.9000E+01
       11  1    4    4    0    0 -.25280746E+02 0.37402889E+02 0.83086566E+01 0.45903442E+02 0.51099893E-03 0.0000E+00 0.9000E+01
       23  1    3    3    0    0 0.24567892E+03 -.16830365E+03 -.88268970E+03 0.93602383E+03 0.91188000E+02 0.0000E+00 0.9000E+01
#aMCatNLO 1  0  0  1  2 0.17503260D+03 0.00000000D+00  -5  7  0 0.00000000D+00 0.00000000D+00 0.00000000D+00 0.00000000D+00 0.00000000D+00
  <mgrwgt>
 0.2050138461D-03    7    2    0
 0.513561654225304D+03 0.000000000000000D+00 0.000000000000000D+00 0.513561654225304D+03
 0.513561654225304D+03 0.000000000000000D+00 0.000000000000000D+00 -.513561654225304D+03
 0.124309833007074D+03 0.824846688655377D+02 -.728662834136011D+01 0.167591076076265D+02
 0.398019320940349D+03 -.302882838800870D+03 0.138187393363288D+03 0.218141261840126D+03
 0.755145880037957D+02 -.252807455697734D+02 0.374028889685422D+02 0.605339640336422D+02
 0.429279566499391D+03 0.245678915505105D+03 -.168303653990470D+03 -.295434333481395D+03
 0.000000000000000D+00 0.000000000000000D+00 0.000000000000000D+00 0.000000000000000D+00
 0.165188638355729D+04 0.000000000000000D+00 0.000000000000000D+00 0.165188638355729D+04
 0.527737584120494D+03 0.000000000000000D+00 0.000000000000000D+00 -.527737584120494D+03
 0.124504579906968D+03 0.782710142517963D+02 -.279091331646430D+02 0.167591076076265D+02
 0.391017789290290D+03 -.316245126865288D+03 0.727895676468899D+02 0.218141261840126D+03
 0.712208067519245D+02 -.277656991778477D+02 0.252410075459352D+02 0.605339640336422D+02
 0.455187100859516D+03 0.230700534590713D+03 -.241610975298836D+03 -.295434333481395D+03
 0.113769369086909D+04 0.350392772006265D+02 0.171489533270654D+03 0.112414879943680D+04
0.177372580994D-04 0.000000000000D+00 0.000000000000D+00 0.508237198957D-06 0.000000000000D+00  7 -2 2 23 -11 11 23 21 0 0.31483393D-01 0.19827910D+00 0.16511409D+06 0.16511409D+06 0.16511409D+06 0.11042767D+01  1  2  2  1  7  1       -2 0.349603004178D-03 0.100000000000D+01
-.919702045077D-06 0.000000000000D+00 -.681157414288D-07 0.508237198957D-06 0.000000000000D+00  7 -2 2 23 -11 11 23 21 2 0.31483393D-01 0.19827910D+00 0.16511409D+06 0.16511409D+06 0.16511409D+06 0.11042767D+01  1  2  3  1  7  1       -2 -.221050567882D-04 0.100000000000D+01
0.107578642855D-05 0.000000000000D+00 0.000000000000D+00 0.508237198957D-06 0.000000000000D+00  7 -2 2 23 -11 11 23 21 2 0.31483393D-01 0.19827910D+00 0.16511409D+06 0.16511409D+06 0.16511409D+06 0.11042767D+01  1  2 15  1  7  1       -2 0.258565480227D-04 0.100000000000D+01
0.114279293270D-03 0.000000000000D+00 0.000000000000D+00 0.508237198957D-06 0.000000000000D+00  7 -2 2 23 -11 11 23 21 2 0.10049146D+00 0.19827910D+00 0.25337517D+06 0.25337517D+06 0.25337517D+06 0.10900212D+01  1  2 12  1  7  1       -2 0.242282795210D-03 0.100000000000D+01
-.142961350037D-03 0.000000000000D+00 -.568747304395D-05 0.508237198957D-06 0.000000000000D+00  7 -2 2 23 -11 11 23 21 2 0.10213361D+00 0.19827910D+00 0.16511409D+06 0.16511409D+06 0.16511409D+06 0.11042767D+01  1  2  5  1  7  1       -2 -.305961510158D-03 0.100000000000D+01
0.152674531551D-04 0.000000000000D+00 0.000000000000D+00 0.508237198957D-06 0.000000000000D+00  7 21 2 23 -11 11 23 2 2 0.10049146D+00 0.19827910D+00 0.25337517D+06 0.25337517D+06 0.25337517D+06 0.10900212D+01  1  2 12  3  7  1       -2 0.299468061415D-03 0.100000000000D+01
-.191866262970D-04 0.000000000000D+00 -.772732603768D-06 0.508237198957D-06 0.000000000000D+00  7 21 2 23 -11 11 23 2 2 0.10213361D+00 0.19827910D+00 0.16511409D+06 0.16511409D+06 0.16511409D+06 0.11042767D+01  1  2  5  3  7  1       -2 -.384129995742D-03 0.100000000000D+01
  </mgrwgt>
  </event>
  <event>
  9     66 0.53686478E-06 0.43580465E+03 0.75467711E-02 0.95866273E-01
       -2 -1    0    0    0  501 0.00000000E+00 0.00000000E+00 0.14642707E+03 0.14642742E+03 0.32000000E+00 0.0000E+00 0.9000E+01
        2 -1    0    0  502    0 0.00000000E+00 0.00000000E+00 -.16316524E+04 0.16316524E+04 0.32000000E+00 0.0000E+00 0.9000E+01
       25  2    1    2    0    0 0.38947019E+03 -.87966715E+02 -.78510290E+03 0.93059812E+03 0.30033504E+03 0.0000E+00 0.0000E+00
       23  2    1    2    0    0 -.41586107E+03 0.83115025E+02 -.69647071E+03 0.82039083E+03 0.90117294E+02 0.0000E+00 0.0000E+00
       23  1    3    3    0    0 0.19358840E+03 -.76006560E+02 -.61425074E+03 0.65488372E+03 0.91188000E+02 0.0000E+00 0.9000E+01
      -13  1    4    4    0    0 -.31730406E+03 0.85993272E+02 -.58905366E+03 0.67458205E+03 0.10565837E+00 0.0000E+00 0.9000E+01
       13  1    4    4    0    0 -.98557002E+02 -.28782468E+01 -.10741705E+03 0.14580878E+03 0.10565837E+00 0.0000E+00 0.9000E+01
       23  1    3    3    0    0 0.19588179E+03 -.11960155E+02 -.17085216E+03 0.27571440E+03 0.91188000E+02 0.0000E+00 0.9000E+01
       21  1    1    2  502  501 0.26390878E+02 0.48516895E+01 -.36516776E+01 0.27090858E+02 0.75000000E+00 0.0000E+00 0.9000E+01
#aMCatNLO 2  0  0  2  2 0.26833139D+02 0.00000000D+00  -5  7  0 0.00000000D+00 0.00000000D+00 0.00000000D+00 0.00000000D+00 0.00000000D+00
  <mgrwgt>
 0.5467773212D-04    2    2    0
 0.466417713475366D+03 0.000000000000000D+00 0.000000000000000D+00 0.466417713475366D+03
 0.466417713475366D+03 0.000000000000000D+00 0.000000000000000D+00 -.466417713475366D+03
 0.258755911809746D+03 0.200834006741866D+03 -.746745295974251D+02 -.112821925696668D+03
 0.322139263562297D+03 -.308073898590030D+03 0.876903195507215D+02 -.342722335585473D+02
 0.100283545047158D+03 -.956811201098801D+02 -.234972315666322D+01 0.299397973077831D+02
 0.251656706531530D+03 0.202921011958043D+03 -.106660667966332D+02 0.117154361947433D+03
 0.000000000000000D+00 0.000000000000000D+00 0.000000000000000D+00 0.000000000000000D+00
 0.507202505875681D+03 0.000000000000000D+00 0.000000000000000D+00 0.507202505875681D+03
 0.471045130965867D+03 0.000000000000000D+00 0.000000000000000D+00 -.471045130965867D+03
 0.253569522870481D+03 0.193588397199833D+03 -.760065598251786D+02 -.112821925696668D+03
 0.330532160850717D+03 -.317304364189480D+03 0.859933941059566D+02 -.342722335585473D+02
 0.103044164158369D+03 -.985567009228820D+02 -.287836888937156D+01 0.299397973077831D+02
 0.246075428736612D+03 0.195881789494052D+03 -.119601548988866D+02 0.117154361947433D+03
 0.450263602253688D+02 0.263908784184773D+02 0.485168950748015D+01 0.361573749098138D+02
-.278109327293D-07 0.000000000000D+00 0.000000000000D+00 0.481284418543D-06 0.000000000000D+00  7 -2 2 23 -13 13 23 21 2 0.20715688D-01 0.24855585D+00 0.18992569D+06 0.18992569D+06 0.18992569D+06 0.10995535D+01  1  2  8  2  7  2        2 -.898541013717D-06 0.100000000000D+01
0.203157976463D-05 0.000000000000D+00 0.000000000000D+00 0.481284418543D-06 0.430869561467D-08  7 -2 2 23 -13 13 23 21 2 0.22527123D-01 0.25102182D+00 0.20145178D+06 0.20145178D+06 0.20145178D+06 0.10975842D+01  1  2  1  2  7  2        2 0.555762731382D-04 0.100000000000D+01
  </mgrwgt>
  </event>
  <event>
  8     66 0.53686478E-06 0.19034644E+03 0.75467711E-02 0.93282829E-01
       -2 -1    0    0    0  501 0.00000000E+00 0.00000000E+00 0.14839836E+03 0.14839871E+03 0.32000000E+00 0.0000E+00 0.9000E+01
        2 -1    0    0  501    0 0.00000000E+00 0.00000000E+00 -.20040672E+04 0.20040672E+04 0.32000000E+00 0.0000E+00 0.9000E+01
       25  2    1    2    0    0 0.42075332E+03 -.26306249E+03 -.87634889E+03 0.10506232E+04 0.29931007E+03 0.0000E+00 0.0000E+00
       23  2    1    2    0    0 -.42075332E+03 0.26306249E+03 -.97931997E+03 0.11018427E+04 0.93566103E+02 0.0000E+00 0.0000E+00
       23  1    3    3    0    0 0.39563736E+03 -.15215539E+03 -.64519155E+03 0.77734649E+03 0.91188000E+02 0.0000E+00 0.9000E+01
      -11  1    4    4    0    0 -.68345668E+02 0.29963343E+02 -.87543200E+02 0.11503366E+03 0.51099893E-03 0.0000E+00 0.9000E+01
       11  1    4    4    0    0 -.35240765E+03 0.23309915E+03 -.89177677E+03 0.98680908E+03 0.51099893E-03 0.0000E+00 0.9000E+01
       23  1    3    3    0    0 0.25115959E+02 -.11090710E+03 -.23115734E+03 0.27327672E+03 0.91188000E+02 0.0000E+00 0.9000E+01
#aMCatNLO 1  0  0  2  1 0.50356837D+02 0.00000000D+00  -5  7  0 0.00000000D+00 0.00000000D+00 0.00000000D+00 0.00000000D+00 0.00000000D+00
  <mgrwgt>
 0.4208968371D-03    9    2    0
 0.545344567041447D+03 0.000000000000000D+00 0.000000000000000D+00 0.545344567041447D+03
 0.545344567041447D+03 0.000000000000000D+00 0.000000000000000D+00 -.545344567041447D+03
 0.436375482619560D+03 0.395637358280668D+03 -.152155393557865D+03 0.492760330322884D+02
 0.780743618264482D+02 -.683456675656302D+02 0.299633434571214D+02 0.229493735968128D+02
 0.430214777576035D+03 -.352407649925353D+03 0.233099147935987D+03 -.809838894497139D+02
 0.146024512060851D+03 0.251159592103150D+02 -.110907097835244D+03 0.875848282061264D+01
 0.000000000000000D+00 -.000000000000000D+00 0.000000000000000D+00 -.000000000000000D+00
 0.559359849352014D+03 0.000000000000000D+00 0.000000000000000D+00 0.559359849352014D+03
 0.593114435996966D+03 0.000000000000000D+00 0.000000000000000D+00 -.593114435996966D+03
 0.455771093337799D+03 0.416095481286070D+03 -.154429469986294D+03 0.492760330322884D+02
 0.748685107970787D+02 -.648384814313630D+02 0.295734929651704D+02 0.229493735968128D+02
 0.413313123456339D+03 -.333064418641536D+03 0.230949000226905D+03 -.809838894497139D+02
 0.147898268769840D+03 0.318560045866831D+02 -.111656305292492D+03 0.875848282061264D+01
 0.606232889879232D+02 -.500485857998540D+02 0.556328208670998D+01 -.337545866449523D+02
0.142057687709D-04 0.000000000000D+00 0.000000000000D+00 0.192980188879D-06 0.000000000000D+00  7 -2 2 23 -11 11 23 21 0 0.22830546D-01 0.30831806D+00 0.28971042D+06 0.28971042D+06 0.28971042D+06 0.10856750D+01  1  2  2  2  7  2        2 0.195410853734D-03 0.100000000000D+01
-.789044724376D-06 0.000000000000D+00 -.545538925451D-07 0.192980188879D-06 0.000000000000D+00  7 -2 2 23 -11 11 23 21 2 0.22830546D-01 0.30831806D+00 0.28971042D+06 0.28971042D+06 0.28971042D+06 0.10856750D+01  1  2  3  2  7  2        2 -.127933790894D-04 0.100000000000D+01
0.899919897890D-06 0.000000000000D+00 0.000000000000D+00 0.192980188879D-06 0.000000000000D+00  7 -2 2 23 -11 11 23 21 2 0.22830546D-01 0.30831806D+00 0.28971042D+06 0.28971042D+06 0.28971042D+06 0.10856750D+01  1  2 15  2  7  2        2 0.145910821631D-04 0.100000000000D+01
0.375830889260D-04 0.000000000000D+00 0.000000000000D+00 0.192980188879D-06 0.000000000000D+00  7 -2 2 23 -11 11 23 21 2 0.22830546D-01 0.33904918D+00 0.31790485D+06 0.31790485D+06 0.31790485D+06 0.10826941D+01  1  2 12  2  7  2        2 0.468103544581D-03 0.100000000000D+01
-.374505253086D-04 0.000000000000D+00 0.000000000000D+00 0.192980188879D-06 0.000000000000D+00  7 -2 2 23 -11 11 23 21 2 0.22830546D-01 0.30831806D+00 0.28971042D+06 0.28971042D+06 0.28971042D+06 0.10856750D+01  1  2  4  2  7  2        2 -.607213701032D-03 0.100000000000D+01
-.962763160510D-04 0.000000000000D+00 -.156218310442D-04 0.192980188879D-06 0.000000000000D+00  7 -2 2 23 -11 11 23 21 2 0.22830546D-01 0.33867148D+00 0.28971042D+06 0.28971042D+06 0.28971042D+06 0.10856750D+01  1  2  5  2  7  2        2 -.121438740539D-02 0.100000000000D+01
0.973821783862D-04 0.000000000000D+00 0.155532146744D-04 0.192980188879D-06 0.000000000000D+00  7 -2 2 23 -11 11 23 21 2 0.22830546D-01 0.30831806D+00 0.28971042D+06 0.28971042D+06 0.28971042D+06 0.10856750D+01  1  2  6  2  7  2        2 0.157893093529D-02 0.100000000000D+01
0.583958112984D-06 0.000000000000D+00 0.000000000000D+00 0.192980188879D-06 0.000000000000D+00  7 -2 21 23 -11 11 23 -2 2 0.22830546D-01 0.33904918D+00 0.31790485D+06 0.31790485D+06 0.31790485D+06 0.10826941D+01  1  2 12  4  7  2        2 0.115770951977D-05 0.100000000000D+01
-.143483757045D-05 0.000000000000D+00 -.240247949556D-06 0.192980188879D-06 0.000000000000D+00  7 -2 21 23 -11 11 23 -2 2 0.22830546D-01 0.33867148D+00 0.28971042D+06 0.28971042D+06 0.28971042D+06 0.10856750D+01  1  2  5  4  7  2        2 -.290280263461D-05 0.100000000000D+01
  </mgrwgt>
  </event>
  <event>
  8     66 0.53686478E-06 0.32655832E+03 0.75467711E-02 0.89733744E-01
       -2 -1    0    0    0  501 0.00000000E+00 0.00000000E+00 0.77456415E+03 0.77456421E+03 0.32000000E+00 0.0000E+00 0.9000E+01
        2 -1    0    0  501    0 0.00000000E+00 0.00000000E+00 -.15667830E+04 0.15667831E+04 0.32000000E+00 0.0000E+00 0.9000E+01
       25  2    1    2    0    0 0.43608237E+02 -.24583080E+03 0.71309900E+03 0.81279375E+03 0.29964820E+03 0.0000E+00 0.0000E+00
       23  2    1    2    0    0 -.43608237E+02 0.24583080E+03 -.15053179E+04 0.15285535E+04 0.90329984E+02 0.0000E+00 0.0000E+00
       23  1    3    3    0    0 0.93033346E+02 -.89293924E+01 0.21455589E+03 0.25116612E+03 0.91188000E+02 0.0000E+00 0.9000E+01
      -13  1    4    4    0    0 0.16777787E+02 0.80689916E+01 -.70523906E+02 0.72939942E+02 0.10565837E+00 0.0000E+00 0.9000E+01
       13  1    4    4    0    0 -.60386024E+02 0.23776181E+03 -.14347940E+04 0.14556136E+04 0.10565837E+00 0.0000E+00 0.9000E+01
       23  1    3    3    0    0 -.49425109E+02 -.23690141E+03 0.49854311E+03 0.56162763E+03 0.91188000E+02 0.0000E+00 0.9000E+01
#aMCatNLO 1  0  0  2  1 0.66300745D+03 0.00000000D+00  -5  7  0 0.00000000D+00 0.00000000D+00 0.00000000D+00 0.00000000D+00 0.00000000D+00
  <mgrwgt>
 0.2804837306D-03    4    2    0
 0.110162338735462D+04 0.000000000000000D+00 0.000000000000000D+00 0.110162338735462D+04
 0.110162338735462D+04 0.000000000000000D+00 0.000000000000000D+00 -.110162338735462D+04
 0.344056936932852D+03 0.930333458710125D+02 -.892939242348032D+01 0.318315860450919D+03
 0.521523127506798D+02 0.167778921104885D+02 0.806867734603867D+01 -.487161421651904D+02
 0.103094624611401D+04 -.603861291676769D+02 0.237762124079532D+03 -.100133553324243D+04
 0.776091278911689D+03 -.494251088138241D+02 -.236901409002090D+03 0.731735814956701D+03
 0.000000000000000D+00 -.000000000000000D+00 -.000000000000000D+00 0.000000000000000D+00
 0.174738737948109D+04 0.000000000000000D+00 0.000000000000000D+00 0.174738737948109D+04
 0.133450981183811D+04 0.000000000000000D+00 0.000000000000000D+00 -.133450981183811D+04
 0.385279097785511D+03 0.195686178570379D+03 0.225092058573992D+02 0.318315860450919D+03
 0.600010075794761D+02 0.325632852358613D+02 0.129031336403696D+02 -.487161421651904D+02
 0.108019012471682D+04 0.236752800439894D+03 0.328764302937092D+03 -.100133553324243D+04
 0.775372056645229D+03 0.168940772813875D+03 -.170024372585094D+03 0.731735814956701D+03
 0.781054904592159D+03 -.633943037060009D+03 -.194152269849767D+03 0.412877567642978D+03
0.340780567680D-03 0.000000000000D+00 0.000000000000D+00 0.977007803891D-05 0.000000000000D+00  7 -2 2 23 -13 13 23 21 0 0.11916372D+00 0.24104355D+00 0.10664034D+06 0.10664034D+06 0.10664034D+06 0.11194379D+01  1  2  2  2  7  2        2 0.295218567389D-03 0.100000000000D+01
0.151008944825D-04 0.000000000000D+00 -.130868710947D-05 0.977007803891D-05 0.000000000000D+00  7 -2 2 23 -13 13 23 21 2 0.11916372D+00 0.24104355D+00 0.10664034D+06 0.10664034D+06 0.10664034D+06 0.11194379D+01  1  2  3  2  7  2        2 0.163934953662D-04 0.100000000000D+01
0.198990756658D-04 0.000000000000D+00 0.000000000000D+00 0.977007803891D-05 0.000000000000D+00  7 -2 2 23 -13 13 23 21 2 0.11916372D+00 0.24104355D+00 0.10664034D+06 0.10664034D+06 0.10664034D+06 0.11194379D+01  1  2 15  2  7  2        2 0.216023895205D-04 0.100000000000D+01
-.485729886500D-04 0.000000000000D+00 0.000000000000D+00 0.977007803891D-05 0.000000000000D+00  7 -2 2 23 -13 13 23 21 2 0.11916372D+00 0.24104355D+00 0.10664034D+06 0.10664034D+06 0.10664034D+06 0.11194379D+01  1  2  4  2  7  2        2 -.527307216985D-04 0.100000000000D+01
  </mgrwgt>
  </event>
  <event>
  8     66 0.53686478E-06 0.19582199E+03 0.75467711E-02 0.10280416E+00
       -2 -1    0    0    0  501 0.00000000E+00 0.00000000E+00 0.19422804E+02 0.19425440E+02 0.32000000E+00 0.0000E+00 0.9000E+01
        2 -1    0    0  501    0 0.00000000E+00 0.00000000E+00 -.23451345E+04 0.23451345E+04 0.32000000E+00 0.0000E+00 0.9000E+01
       25  2    1    2    0    0 -.72497092E+02 -.15074285E+02 -.16865667E+04 0.17146661E+04 0.30014899E+03 0.0000E+00 0.0000E+00
       23  2    1    2    0    0 0.72497092E+02 0.15074285E+02 -.63914493E+03 0.64989384E+03 0.91502401E+02 0.0000E+00 0.0000E+00
       23  1    3    3    0    0 -.32210677E+02 0.88867995E+02 -.42308536E+03 0.44300284E+03 0.91188000E+02 0.0000E+00 0.9000E+01
      -13  1    4    4    0    0 -.19901314E+02 -.73256369E+01 -.82166044E+02 0.84858690E+02 0.10565837E+00 0.0000E+00 0.9000E+01
       13  1    4    4    0    0 0.92398406E+02 0.22399921E+02 -.55697889E+03 0.56503515E+03 0.10565837E+00 0.0000E+00 0.9000E+01
       23  1    3    3    0    0 -.40286415E+02 -.10394228E+03 -.12634814E+04 0.12716633E+04 0.91188000E+02 0.0000E+00 0.9000E+01
#aMCatNLO 1  0  0  1  2 0.10882843D+03 0.00000000D+00  -5  7  0 0.00000000D+00 0.00000000D+00 0.00000000D+00 0.00000000D+00 0.00000000D+00
  <mgrwgt>
 0.5068086590D-03    3    2    0
 0.213429684381406D+03 0.000000000000000D+00 0.000000000000000D+00 0.213429684381406D+03
 0.213429684381406D+03 0.000000000000000D+00 0.000000000000000D+00 -.213429684381406D+03
 0.148836411984276D+03 -.322106959843039D+02 0.888679760535162D+02 0.700141420336752D+02
 0.223935221261108D+02 -.199014539160001D+02 -.732567432624599D+01 0.719280619144704D+01
 0.953176220272395D+02 0.923985844130804D+02 0.223999668652678D+02 -.679648084095464D+01
 0.160311812625185D+03 -.402864345127764D+02 -.103942268592538D+03 -.704104673841676D+02
 0.000000000000000D+00 0.000000000000000D+00 0.000000000000000D+00 -.000000000000000D+00
 0.230231698462729D+03 0.000000000000000D+00 0.000000000000000D+00 0.230231698462729D+03
 0.517098058748361D+03 0.000000000000000D+00 0.000000000000000D+00 -.517098058748361D+03
 0.135858568258593D+03 -.459831769090264D+02 0.559094498445142D+02 0.700141420336752D+02
 0.267894544395406D+02 -.222807428166812D+02 -.130194818559499D+02 0.719280619144704D+01
 0.840145619407866D+02 0.837231624552310D+02 0.163906521401434D+01 -.679648084095464D+01
 0.193851373019714D+03 -.574195280234952D+02 -.144942979691776D+03 -.704104673841676D+02
 0.306815799552456D+03 0.419602852939718D+02 0.100413946489197D+03 -.286866360285632D+03
0.231520323209D-05 0.000000000000D+00 0.000000000000D+00 0.115147045003D-06 0.000000000000D+00  7 -2 2 23 -13 13 23 21 0 0.29883282D-02 0.36079013D+00 0.38346254D+05 0.38346254D+05 0.38346254D+05 0.11575726D+01  1  2  2  1  7  1       -2 0.501721546755D-03 0.100000000000D+01
-.127463041831D-06 0.000000000000D+00 -.889099001823D-08 0.115147045003D-06 0.000000000000D+00  7 -2 2 23 -13 13 23 21 2 0.29883282D-02 0.36079013D+00 0.38346254D+05 0.38346254D+05 0.38346254D+05 0.11575726D+01  1  2  3  1  7  1       -2 -.370130070362D-04 0.100000000000D+01
0.144981715768D-06 0.000000000000D+00 0.000000000000D+00 0.115147045003D-06 0.000000000000D+00  7 -2 2 23 -13 13 23 21 2 0.29883282D-02 0.36079013D+00 0.38346254D+05 0.38346254D+05 0.38346254D+05 0.11575726D+01  1  2 15  1  7  1       -2 0.421001192875D-04 0.100000000000D+01
  </mgrwgt>
  </event>
  <event>
  8     66 0.53686478E-06 0.34494998E+03 0.75467711E-02 0.92871722E-01
       -2 -1    0    0    0  501 0.00000000E+00 0.00000000E+00 0.15528350E+03 0.15528383E+03 0.32000000E+00 0.0000E+00 0.9000E+01
        2 -1    0    0  501    0 0.00000000E+00 0.00000000E+00 -.91465507E+03 0.91465513E+03 0.32000000E+00 0.0000E+00 0.9000E+01
       25  2    1    2    0    0 -.19937179E+03 0.23610527E+03 -.46144008E+03 0.63131816E+03 0.30023468E+03 0.0000E+00 0.0000E+00
       23  2    1    2    0    0 0.19937179E+03 -.23610527E+03 -.29793149E+03 0.43862079E+03 0.90167705E+02 0.0000E+00 0.0000E+00
       23  1    3    3    0    0 -.17411100E+03 0.19762585E+03 -.17969185E+03 0.33162484E+03 0.91188000E+02 0.0000E+00 0.9000E+01
      -11  1    4    4    0    0 0.39210378E+02 -.45016887E+02 -.15099091E+02 0.61578864E+02 0.51099893E-03 0.0000E+00 0.9000E+01
       11  1    4    4    0    0 0.16016141E+03 -.19108838E+03 -.28283240E+03 0.37704193E+03 0.51099893E-03 0.0000E+00 0.9000E+01
       23  1    3    3    0    0 -.25260789E+02 0.38479416E+02 -.28174823E+03 0.29969332E+03 0.91188000E+02 0.0000E+00 0.9000E+01
#aMCatNLO 1  0  0  1  1 0.38363775D+03 0.00000000D+00  -5  7  0 0.00000000D+00 0.00000000D+00 0.00000000D+00 0.00000000D+00 0.00000000D+00
  <mgrwgt>
 0.2246966077D-03    5    2    0
 0.376870062103132D+03 0.000000000000000D+00 0.000000000000000D+00 0.376870062103132D+03
 0.376870062103132D+03 0.000000000000000D+00 0.000000000000000D+00 -.376870062103132D+03
 0.289709196076516D+03 -.174111000483070D+03 0.197625854923619D+03 0.790287790858124D+02
 0.721996908751122D+02 0.392103782033487D+02 -.450168870086726D+02 0.406056829478402D+02
 0.250267902529137D+03 0.160161411687568D+03 -.191088384108805D+03 -.216234756980604D+02
 0.141563334725498D+03 -.252607894078470D+02 0.384794161938586D+02 -.980109863355922D+02
 0.000000000000000D+00 -.000000000000000D+00 -.000000000000000D+00 0.000000000000000D+00
 0.664915940711756D+03 0.000000000000000D+00 0.000000000000000D+00 0.664915940711756D+03
 0.574896942061002D+03 0.000000000000000D+00 0.000000000000000D+00 -.574896942061002D+03
 0.256307218387191D+03 -.453496441485676D+02 0.221531037791961D+03 0.790287790858124D+02
 0.964532740654371D+02 0.789820479560057D+02 -.376330797431864D+02 0.406056829478402D+02
 0.343215915825585D+03 0.300116510819506D+03 -.165105027507510D+03 -.216234756980604D+02
 0.149778934382663D+03 0.434434193562504D+02 0.512346924746071D+02 -.980109863355922D+02
 0.394057540111882D+03 -.377192333983195D+03 -.700276230158719D+02 0.900189986507536D+02
0.399207038879D-05 0.000000000000D+00 0.000000000000D+00 0.498005319229D-06 0.000000000000D+00  7 -2 2 23 -11 11 23 21 0 0.23889798D-01 0.14071619D+00 0.11899049D+06 0.11899049D+06 0.11899049D+06 0.11155776D+01  1  2  2  1  7  1       -2 0.213214690666D-03 0.100000000000D+01
-.219669638977D-06 0.000000000000D+00 -.153306014292D-07 0.498005319229D-06 0.000000000000D+00  7 -2 2 23 -11 11 23 21 2 0.23889798D-01 0.14071619D+00 0.11899049D+06 0.11899049D+06 0.11899049D+06 0.11155776D+01  1  2  3  1  7  1       -2 -.146011988118D-04 0.100000000000D+01
0.251818931999D-06 0.000000000000D+00 0.000000000000D+00 0.498005319229D-06 0.000000000000D+00  7 -2 2 23 -11 11 23 21 2 0.23889798D-01 0.14071619D+00 0.11899049D+06 0.11899049D+06 0.11899049D+06 0.11155776D+01  1  2 15  1  7  1       -2 0.167381268883D-04 0.100000000000D+01
0.573279684140D-07 0.000000000000D+00 -.122138937063D-05 0.498005319229D-06 0.000000000000D+00  7 -2 2 23 -11 11 23 21 2 0.63278517D-01 0.14071619D+00 0.11899049D+06 0.11899049D+06 0.11899049D+06 0.11155776D+01  1  2  5  1  7  1       -2 0.619242393585D-06 0.100000000000D+01
0.786397646174D-07 0.000000000000D+00 -.132252842488D-06 0.498005319229D-06 0.000000000000D+00  7 21 2 23 -11 11 23 2 2 0.63278517D-01 0.14071619D+00 0.11899049D+06 0.11899049D+06 0.11899049D+06 0.11155776D+01  1  2  5  3  7  1       -2 0.872574651557D-05 0.100000000000D+01
  </mgrwgt>
  </event>
  <event>
  9     66 0.53686478E-06 0.28273881E+03 0.75467711E-02 0.94552456E-01
       -2 -1    0    0    0  501 0.00000000E+00 0.00000000E+00 0.14108248E+03 0.14108285E+03 0.32000000E+00 0.0000E+00 0.9000E+01
        2 -1    0    0  502    0 0.00000000E+00 0.00000000E+00 -.20604994E+04 0.20604994E+04 0.32000000E+00 0.0000E+00 0.9000E+01
       25  2    1    2    0    0 0.28134323E+03 -.36126763E+03 -.10121111E+04 0.11505702E+04 0.29962412E+03 0.0000E+00 0.0000E+00
       23  2    1    2    0    0 -.13430715E+03 0.44114721E+02 -.19776155E+03 0.26002584E+03 0.92299987E+02 0.0000E+00 0.0000E+00
       23  1    3    3    0    0 0.25342683E+03 -.29469551E+03 -.91767025E+03 0.10007520E+04 0.91188000E+02 0.0000E+00 0.9000E+01
      -13  1    4    4    0    0 -.59174279E+02 0.19301950E+02 -.16132363E+03 0.17291467E+03 0.10565837E+00 0.0000E+00 0.9000E+01
       13  1    4    4    0    0 -.75132872E+02 0.24812771E+02 -.36437923E+02 0.87111167E+02 0.10565837E+00 0.0000E+00 0.9000E+01
       23  1    3    3    0    0 0.27916402E+02 -.66572117E+02 -.94440827E+02 0.14981820E+03 0.91188000E+02 0.0000E+00 0.9000E+01
       21  1    1    2  502  501 -.14703608E+03 0.31715291E+03 -.70954430E+03 0.79098626E+03 0.75000000E+00 0.0000E+00 0.9000E+01
#aMCatNLO 2  0  0  2  1 0.34957914D+03 0.00000000D+00  -5  7  0 0.00000000D+00 0.00000000D+00 0.00000000D+00 0.00000000D+00 0.00000000D+00
  <mgrwgt>
 0.1142419422D-04    1    2    0
 0.317719928294629D+03 0.000000000000000D+00 0.000000000000000D+00 0.317719928294629D+03
 0.317719928294629D+03 0.000000000000000D+00 0.000000000000000D+00 -.317719928294629D+03
 0.268579690185995D+03 0.179497716488917D+03 -.135232382473441D+03 -.115380115887559D+03
 0.100015902647088D+03 -.772428076777518D+02 0.582753219789979D+02 -.253123742982316D+02
 0.153767740680091D+03 -.103488957457565D+03 0.859760533822053D+02 0.744491235880332D+02
 0.113076523076084D+03 0.123404864639942D+01 -.901899288776254D+01 0.662433665977574D+02
 0.000000000000000D+00 -.000000000000000D+00 0.000000000000000D+00 -.000000000000000D+00
 0.509757769267934D+03 0.000000000000000D+00 0.000000000000000D+00 0.509757769267934D+03
 0.570271590842228D+03 0.000000000000000D+00 0.000000000000000D+00 -.570271590842228D+03
 0.415570003663211D+03 0.253426833076142D+03 -.294695513599057D+03 -.115380115887559D+03
 0.671928130065157D+02 -.591742581408723D+02 0.193019429227274D+02 -.253123742982316D+02
 0.108642982221574D+03 -.751328928396204D+02 0.248127788955852D+02 0.744491235880332D+02
 0.133845460611879D+03 0.279164023536857D+02 -.665721176156231D+02 0.662433665977574D+02
 0.354778100606982D+03 -.147036084449335D+03 0.317152909396368D+03 -.605138215742940D+02
0.685362409778D-06 0.000000000000D+00 0.000000000000D+00 0.221995286047D-06 0.142516349829D-10  7 -2 2 23 -13 13 23 21 2 0.21705011D-01 0.31699971D+00 0.25325086D+06 0.25325086D+06 0.25325086D+06 0.10900373D+01  1  2  1  2  7  2        2 0.114241942199D-04 0.100000000000D+01
  </mgrwgt>
  </event>
  <event>
  8     66 0.53686478E-06 0.20472633E+03 0.75467711E-02 0.90059591E-01
       -2 -1    0    0    0  501 0.00000000E+00 0.00000000E+00 0.51034168E+02 0.51035171E+02 0.32000000E+00 0.0000E+00 0.9000E+01
        2 -1    0    0  501    0 0.00000000E+00 0.00000000E+00 -.97182958E+03 0.97182963E+03 0.32000000E+00 0.0000E+00 0.9000E+01
       25  2    1    2    0    0 0.16712984E+02 -.88231376E+02 -.56524330E+03 0.64621854E+03 0.30005718E+03 0.0000E+00 0.0000E+00
       23  2    1    2    0    0 -.16712984E+02 0.88231376E+02 -.35555211E+03 0.37664626E+03 0.85912769E+02 0.0000E+00 0.0000E+00
       23  1    3    3    0    0 0.11960578E+03 -.10598295E+01 -.27394353E+03 0.31251716E+03 0.91188000E+02 0.0000E+00 0.9000E+01
      -11  1    4    4    0    0 -.24383283E+02 0.36103040E+02 -.28647103E+03 0.28976478E+03 0.51099893E-03 0.0000E+00 0.9000E+01
       11  1    4    4    0    0 0.76702986E+01 0.52128336E+02 -.69081075E+02 0.86881482E+02 0.51099893E-03 0.0000E+00 0.9000E+01
       23  1    3    3    0    0 -.10289279E+03 -.87171547E+02 -.29129977E+03 0.33370138E+03 0.91188000E+02 0.0000E+00 0.9000E+01
#aMCatNLO 1  0  0  1  1 0.70879402D+03 0.00000000D+00  -5  7  0 0.00000000D+00 0.00000000D+00 0.00000000D+00 0.00000000D+00 0.00000000D+00
  <mgrwgt>
 0.6165229470D-03    3    2    0
 0.222703960177527D+03 0.000000000000000D+00 0.000000000000000D+00 0.222703960177527D+03
 0.222703960177527D+03 0.000000000000000D+00 0.000000000000000D+00 -.222703960177527D+03
 0.151359804461416D+03 0.119605776581991D+03 -.105982962990733D+01 0.169668509739648D+02
 0.732114957015600D+02 -.243832829844461D+02 0.361030403731781D+02 -.588383301052352D+02
 0.567086292089777D+02 0.767029843446457D+01 0.521283363293407D+02 0.209683499642366D+02
 0.164127990983100D+03 -.102892792032009D+03 -.871715470726115D+02 0.209031291670339D+02
 0.000000000000000D+00 -.000000000000000D+00 -.000000000000000D+00 -.000000000000000D+00
 0.594215810994246D+03 0.000000000000000D+00 0.000000000000000D+00 0.594215810994246D+03
 0.113359000183865D+04 0.000000000000000D+00 0.000000000000000D+00 -.113359000183865D+04
 0.459127236971046D+03 0.430362499266273D+03 0.130318124518352D+03 0.169668509739648D+02
 0.124230158844295D+03 0.761206054258044D+02 0.785928540423049D+02 -.588383301052352D+02
 0.150126005440624D+03 0.112955503261244D+03 0.966395369004565D+02 0.209683499642366D+02
 0.103640945455813D+03 0.334098507385308D+02 -.295471706873978D+02 0.209031291670339D+02
 0.890681466121115D+03 -.652848458691852D+03 -.276003344773716D+03 -.539374190844401D+03
0.212369703926D-05 0.000000000000D+00 0.000000000000D+00 0.781584152415D-08 0.000000000000D+00  7 -2 2 23 -11 11 23 21 0 0.78514917D-02 0.14951232D+00 0.41912871D+05 0.41912871D+05 0.41912871D+05 0.11540967D+01  1  2  2  1  7  1       -2 0.610754288191D-03 0.100000000000D+01
-.116966900571D-06 0.000000000000D+00 -.815555581302D-08 0.781584152415D-08 0.000000000000D+00  7 -2 2 23 -11 11 23 21 2 0.78514917D-02 0.14951232D+00 0.41912871D+05 0.41912871D+05 0.41912871D+05 0.11540967D+01  1  2  3  1  7  1       -2 -.448044687876D-04 0.100000000000D+01
0.132026606929D-06 0.000000000000D+00 0.000000000000D+00 0.781584152415D-08 0.000000000000D+00  7 -2 2 23 -11 11 23 21 2 0.78514917D-02 0.14951232D+00 0.41912871D+05 0.41912871D+05 0.41912871D+05 0.11540967D+01  1  2 15  1  7  1       -2 0.505731276150D-04 0.100000000000D+01
  </mgrwgt>
  </event>
  <event>
  8     66 0.53686478E-06 0.39749374E+03 0.75467711E-02 0.91096300E-01
       -2 -1    0    0    0  501 0.00000000E+00 0.00000000E+00 0.12670749E+03 0.12670790E+03 0.32000000E+00 0.0000E+00 0.9000E+01
        2 -1    0    0  501    0 0.00000000E+00 0.00000000E+00 -.21667744E+04 0.21667744E+04 0.32000000E+00 0.0000E+00 0.9000E+01
       25  2    1    2    0    0 -.26517044E+03 -.23587242E+03 -.40057511E+03 0.61351252E+03 0.29997671E+03 0.0000E+00 0.0000E+00
       23  2    1    2    0    0 0.26517044E+03 0.23587242E+03 -.16394918E+04 0.16799698E+04 0.91728039E+02 0.0000E+00 0.0000E+00
       23  1    3    3    0    0 -.19333393E+02 -.38967735E+02 -.21300005E+03 0.23574676E+03 0.91188000E+02 0.0000E+00 0.9000E+01
      -11  1    4    4    0    0 0.56193084E+02 0.10608381E+03 -.49687948E+03 0.51117575E+03 0.51099893E-03 0.0000E+00 0.9000E+01
       11  1    4    4    0    0 0.20897735E+03 0.12978861E+03 -.11426123E+04 0.11687941E+04 0.51099893E-03 0.0000E+00 0.9000E+01
       23  1    3    3    0    0 -.24583704E+03 -.19690469E+03 -.18757507E+03 0.37776575E+03 0.91188000E+02 0.0000E+00 0.9000E+01
#aMCatNLO 1  0  0  2  1 0.49081407D+03 0.00000000D+00  -5  7  0 0.00000000D+00 0.00000000D+00 0.00000000D+00 0.00000000D+00 0.00000000D+00
  <mgrwgt>
 0.1929686109D-03    5    2    0
 0.523972365892197D+03 0.000000000000000D+00 0.000000000000000D+00 0.523972365892197D+03
 0.523972365892197D+03 0.000000000000000D+00 0.000000000000000D+00 -.523972365892197D+03
 0.101290344836007D+03 -.193333931478327D+02 -.389677345806436D+02 -.722621505638151D+01
 0.151444224792253D+03 0.561930844628423D+02 0.106083812424720D+03 -.923250519789453D+02
 0.333608153021028D+03 0.208977352589632D+03 0.129788609397028D+03 -.225339261420454D+03
 0.461602009135106D+03 -.245837043904642D+03 -.196904687241105D+03 0.324890528455781D+03
 0.000000000000000D+00 -.000000000000000D+00 -.000000000000000D+00 -.000000000000000D+00
 0.711818955421887D+03 0.000000000000000D+00 0.000000000000000D+00 0.711818955421887D+03
 0.103064844701358D+04 0.000000000000000D+00 0.000000000000000D+00 -.103064844701358D+04
 0.985528386091904D+02 0.237588909051517D+02 -.279411448019790D+02 -.722621505638151D+01
 0.205045548103631D+03 0.133063149734926D+03 0.125753567570961D+03 -.923250519789453D+02
 0.478275905570988D+03 0.384044311931436D+03 0.174585296016997D+03 -.225339261420454D+03
 0.375314806083156D+03 -.653722589249013D+02 -.150726787944335D+03 0.324890528455781D+03
 0.585278304068505D+03 -.475494093646612D+03 -.121670930841644D+03 -.318829491591697D+03
0.128254267920D-04 0.000000000000D+00 0.000000000000D+00 0.126974111514D-05 0.000000000000D+00  7 -2 2 23 -11 11 23 21 0 0.19493493D-01 0.33334994D+00 0.15800127D+06 0.15800127D+06 0.15800127D+06 0.11057753D+01  1  2  2  2  7  2        2 0.191752251773D-03 0.100000000000D+01
-.646406263210D-06 0.000000000000D+00 -.492530158936D-07 0.126974111514D-05 0.000000000000D+00  7 -2 2 23 -11 11 23 21 2 0.19493493D-01 0.33334994D+00 0.15800127D+06 0.15800127D+06 0.15800127D+06 0.11057753D+01  1  2  3  2  7  2        2 -.118170189903D-04 0.100000000000D+01
0.768325477513D-06 0.000000000000D+00 0.000000000000D+00 0.126974111514D-05 0.000000000000D+00  7 -2 2 23 -11 11 23 21 2 0.19493493D-01 0.33334994D+00 0.15800127D+06 0.15800127D+06 0.15800127D+06 0.11057753D+01  1  2 15  2  7  2        2 0.140458366127D-04 0.100000000000D+01
-.238820374752D-05 0.000000000000D+00 -.299436505763D-05 0.126974111514D-05 0.000000000000D+00  7 -2 2 23 -11 11 23 21 2 0.19493493D-01 0.69088126D+00 0.15800127D+06 0.15800127D+06 0.15800127D+06 0.11057753D+01  1  2  5  2  7  2        2 -.101243841600D-05 0.100000000000D+01
-.406963533485D-08 0.000000000000D+00 -.235968322699D-06 0.126974111514D-05 0.000000000000D+00  7 -2 21 23 -11 11 23 -2 2 0.19493493D-01 0.69088126D+00 0.15800127D+06 0.15800127D+06 0.15800127D+06 0.11057753D+01  1  2  5  4  7  2        2 -.201012781202D-10 0.100000000000D+01
  </mgrwgt>
  </event>
  <event>
  8     66 0.53686478E-06 0.83042070E+02 0.75467711E-02 0.10149523E+00
       -2 -1    0    0    0  501 0.00000000E+00 0.00000000E+00 0.65672305E+02 0.65673085E+02 0.32000000E+00 0.0000E+00 0.9000E+01
        2 -1    0    0  501    0 0.00000000E+00 0.00000000E+00 -.30857418E+04 0.30857419E+04 0.32000000E+00 0.0000E+00 0.9000E+01
       25  2    1    2    0    0 0.45660870E+02 -.13538247E+03 -.37882948E+03 0.50478609E+03 0.30146956E+03 0.0000E+00 0.0000E+00
       23  2    1    2    0    0 -.45660870E+02 0.13538247E+03 -.26412401E+04 0.26466288E+04 0.89899366E+02 0.0000E+00 0.0000E+00
       23  1    3    3    0    0 0.34641172E+02 0.51144137E+02 -.63662002E+02 0.12721570E+03 0.91188000E+02 0.0000E+00 0.9000E+01
      -13  1    4    4    0    0 0.23282424E+02 0.22407294E+02 -.79186125E+03 0.79252029E+03 0.10565837E+00 0.0000E+00 0.9000E+01
       13  1    4    4    0    0 -.68943294E+02 0.11297518E+03 -.18493788E+04 0.18541086E+04 0.10565837E+00 0.0000E+00 0.9000E+01
       23  1    3    3    0    0 0.11019698E+02 -.18652661E+03 -.31516748E+03 0.37757039E+03 0.91188000E+02 0.0000E+00 0.9000E+01
#aMCatNLO 1  0  0  1  2 0.68255998D+02 0.00000000D+00  -5  7  0 0.00000000D+00 0.00000000D+00 0.00000000D+00 0.00000000D+00 0.00000000D+00
  <mgrwgt>
 0.2080923013D-03    9    2    0
 0.450165563172431D+03 0.000000000000000D+00 0.000000000000000D+00 0.450165563172431D+03
 0.450165563172431D+03 0.000000000000000D+00 0.000000000000000D+00 -.450165563172431D+03
 0.231743401179287D+03 0.346411718339941D+02 0.511441366638846D+02 0.203897079785409D+03
 0.117827798055523D+03 0.232825514031568D+02 0.224071692488840D+02 -.113310332984351D+03
 0.286353571579706D+03 -.689434209333865D+02 0.112975301863709D+03 -.253932577341427D+03
 0.264406355530345D+03 0.110196976962356D+02 -.186526607776478D+03 0.163345830540368D+03
 0.000000000000000D+00 0.000000000000000D+00 -.000000000000000D+00 0.000000000000000D+00
 0.526905367544877D+03 0.000000000000000D+00 0.000000000000000D+00 0.526905367544877D+03
 0.466894758921646D+03 0.000000000000000D+00 0.000000000000000D+00 -.466894758921646D+03
 0.236224985822357D+03 0.342380247123484D+02 0.688529672675910D+02 0.203897079785409D+03
 0.119824041112172D+03 0.230778182254990D+02 0.314003753700171D+02 -.113310332984351D+03
 0.295856932207061D+03 -.694449857726215D+02 0.135007275547483D+03 -.253932577341427D+03
 0.251008775667214D+03 0.105756759794563D+02 -.167022300429040D+03 0.163345830540368D+03
 0.908853916577188D+02 0.155346685531787D+01 -.682383177560510D+02 0.600106086232308D+02
0.158800000853D-04 0.000000000000D+00 0.000000000000D+00 0.950064445595D-07 0.000000000000D+00  7 -2 2 23 -13 13 23 21 0 0.10103493D-01 0.47472958D+00 0.58254662D+05 0.58254662D+05 0.58254662D+05 0.11415037D+01  1  2  2  1  7  1       -2 0.205215762842D-03 0.100000000000D+01
-.465458788472D-06 0.000000000000D+00 -.609833816276D-07 0.950064445595D-07 0.000000000000D+00  7 -2 2 23 -13 13 23 21 2 0.10103493D-01 0.47472958D+00 0.58254662D+05 0.58254662D+05 0.58254662D+05 0.11415037D+01  1  2  3  1  7  1       -2 -.783783439571D-05 0.100000000000D+01
0.955947645637D-06 0.000000000000D+00 0.000000000000D+00 0.950064445595D-07 0.000000000000D+00  7 -2 2 23 -13 13 23 21 2 0.10103493D-01 0.47472958D+00 0.58254662D+05 0.58254662D+05 0.58254662D+05 0.11415037D+01  1  2 15  1  7  1       -2 0.160971487123D-04 0.100000000000D+01
0.298435120732D-04 0.000000000000D+00 0.000000000000D+00 0.950064445595D-07 0.000000000000D+00  7 -2 2 23 -13 13 23 21 2 0.11991397D-01 0.47472958D+00 0.80916116D+05 0.80916116D+05 0.80916116D+05 0.11293479D+01  1  2 12  1  7  1       -2 0.371322390628D-03 0.100000000000D+01
-.320467604467D-04 0.000000000000D+00 0.000000000000D+00 0.950064445595D-07 0.000000000000D+00  7 -2 2 23 -13 13 23 21 2 0.10103493D-01 0.47472958D+00 0.58254662D+05 0.58254662D+05 0.58254662D+05 0.11415037D+01  1  2  4  1  7  1       -2 -.539633599194D-03 0.100000000000D+01
-.427137355757D-04 0.000000000000D+00 -.110845282616D-04 0.950064445595D-07 0.000000000000D+00  7 -2 2 23 -13 13 23 21 2 0.12424060D-01 0.47472958D+00 0.58254662D+05 0.58254662D+05 0.58254662D+05 0.11415037D+01  1  2  5  1  7  1       -2 -.522292079901D-03 0.100000000000D+01
0.442882960758D-04 0.000000000000D+00 0.108517602314D-04 0.950064445595D-07 0.000000000000D+00  7 -2 2 23 -13 13 23 21 2 0.10103493D-01 0.47472958D+00 0.58254662D+05 0.58254662D+05 0.58254662D+05 0.11415037D+01  1  2  6  1  7  1       -2 0.745768130083D-03 0.100000000000D+01
0.757053066427D-06 0.000000000000D+00 0.000000000000D+00 0.950064445595D-07 0.000000000000D+00  7 21 2 23 -13 13 23 2 2 0.11991397D-01 0.47472958D+00 0.80916116D+05 0.80916116D+05 0.80916116D+05 0.11293479D+01  1  2 12  3  7  1       -2 0.133571578206D-03 0.100000000000D+01
-.111863048458D-05 0.000000000000D+00 -.325361696378D-06 0.950064445595D-07 0.000000000000D+00  7 21 2 23 -13 13 23 2 2 0.12424060D-01 0.47472958D+00 0.58254662D+05 0.58254662D+05 0.58254662D+05 0.11415037D+01  1  2  5  3  7  1       -2 -.194119195705D-03 0.100000000000D+01
  </mgrwgt>
  </event>
  <event>
  8     66 0.53686478E-06 0.49463091E+03 0.75467711E-02 0.85093930E-01
       -2 -1    0    0    0  501 0.00000000E+00 0.00000000E+00 0.93492543E+03 0.93492549E+03 0.32000000E+00 0.0000E+00 0.9000E+01
        2 -1    0    0  501    0 0.00000000E+00 0.00000000E+00 -.20067763E+04 0.20067763E+04 0.32000000E+00 0.0000E+00 0.9000E+01
       25  2    1    2    0    0 0.94449937E+03 -.81970701E+03 0.93708703E+01 0.12859762E+04 0.29941339E+03 0.0000E+00 0.0000E+00
       23  2    1    2    0    0 -.94449937E+03 0.81970701E+03 -.10812217E+04 0.16557256E+04 0.91587184E+02 0.0000E+00 0.0000E+00
       23  1    3    3    0    0 0.34117622E+03 -.20771575E+03 -.79032648E+02 0.41726305E+03 0.91188000E+02 0.0000E+00 0.9000E+01
      -13  1    4    4    0    0 -.79677330E+03 0.69093342E+03 -.86574844E+03 0.13644622E+04 0.10565837E+00 0.0000E+00 0.9000E+01
       13  1    4    4    0    0 -.14772607E+03 0.12877358E+03 -.21547331E+03 0.29126343E+03 0.10565837E+00 0.0000E+00 0.9000E+01
       23  1    3    3    0    0 0.60332315E+03 -.61199126E+03 0.88403518E+02 0.86871316E+03 0.91188000E+02 0.0000E+00 0.9000E+01
#aMCatNLO 1  0  0  2  1 0.26299607D+02 0.00000000D+00  -5  7  0 0.00000000D+00 0.00000000D+00 0.00000000D+00 0.00000000D+00 0.00000000D+00
  <mgrwgt>
 0.4795549726D-03    9    2    0
 0.136973951231277D+04 0.000000000000000D+00 0.000000000000000D+00 0.136973951231277D+04
 0.136973951231277D+04 0.000000000000000D+00 0.000000000000000D+00 -.136973951231277D+04
 0.417142183625198D+03 0.341176215802252D+03 -.207715747371315D+03 0.783920154124696D+02
 0.112645175105781D+04 -.796774159495958D+03 0.690934171599496D+03 -.395795978676948D+03
 0.228456444303285D+03 -.147725206434081D+03 0.128772834210275D+03 -.117418769782182D+03
 0.967428645639236D+03 0.603323150127786D+03 -.611991258438455D+03 0.434822733046660D+03
 0.000000000000000D+00 -.000000000000000D+00 -.000000000000000D+00 -.000000000000000D+00
 0.138126115449501D+04 0.000000000000000D+00 0.000000000000000D+00 0.138126115449501D+04
 0.138489334880397D+04 0.000000000000000D+00 0.000000000000000D+00 -.138489334880397D+04
 0.417383039088608D+03 0.343453566281164D+03 -.204420374970706D+03 0.783920154124696D+02
 0.112761174319765D+04 -.790623006195348D+03 0.699835015367927D+03 -.395795978676948D+03
 0.228677712965185D+03 -.146477725035500D+03 0.130577965132909D+03 -.117418769782182D+03
 0.965932767501088D+03 0.608599133909086D+03 -.604356802740942D+03 0.434822733046660D+03
 0.265492405464561D+02 -.149519689594026D+02 -.216358027891878D+02 -.363219430895776D+01
0.543515790263D-03 0.000000000000D+00 0.000000000000D+00 0.655616189601D-05 0.000000000000D+00  7 -2 2 23 -13 13 23 21 0 0.14383469D+00 0.30873482D+00 0.15932917D+07 0.15932917D+07 0.15932917D+07 0.10346575D+01  1  2  2  2  7  2        2 0.136419438192D-03 0.100000000000D+01
-.299501486208D-04 0.000000000000D+00 -.208724374561D-05 0.655616189601D-05 0.000000000000D+00  7 -2 2 23 -13 13 23 21 2 0.14383469D+00 0.30873482D+00 0.15932917D+07 0.15932917D+07 0.15932917D+07 0.10346575D+01  1  2  3  2  7  2        2 -.804741358892D-05 0.100000000000D+01
0.333300101226D-04 0.000000000000D+00 0.000000000000D+00 0.655616189601D-05 0.000000000000D+00  7 -2 2 23 -13 13 23 21 2 0.14383469D+00 0.30873482D+00 0.15932917D+07 0.15932917D+07 0.15932917D+07 0.10346575D+01  1  2 15  2  7  2        2 0.895556078118D-05 0.100000000000D+01
0.277728940720D-03 0.000000000000D+00 0.000000000000D+00 0.655616189601D-05 0.000000000000D+00  7 -2 2 23 -13 13 23 21 2 0.14383469D+00 0.31343629D+00 0.16267471D+07 0.16267471D+07 0.16267471D+07 0.10340802D+01  1  2 12  2  7  2        2 0.715310179495D-04 0.100000000000D+01
-.231602888897D-03 0.000000000000D+00 0.000000000000D+00 0.655616189601D-05 0.000000000000D+00  7 -2 2 23 -13 13 23 21 2 0.14383469D+00 0.30873482D+00 0.15932917D+07 0.15932917D+07 0.15932917D+07 0.10346575D+01  1  2  4  2  7  2        2 -.622302165822D-04 0.100000000000D+01
-.307508095750D-01 0.000000000000D+00 -.354336055895D-02 0.655616189601D-05 0.000000000000D+00  7 -2 2 23 -13 13 23 21 2 0.14383469D+00 0.31345044D+00 0.15932917D+07 0.15932917D+07 0.15932917D+07 0.10346575D+01  1  2  5  2  7  2        2 -.794000150195D-02 0.100000000000D+01
0.308013898864D-01 0.000000000000D+00 0.354295349992D-02 0.655616189601D-05 0.000000000000D+00  7 -2 2 23 -13 13 23 21 2 0.14383469D+00 0.30873482D+00 0.15932917D+07 0.15932917D+07 0.15932917D+07 0.10346575D+01  1  2  6  2  7  2        2 0.827613667857D-02 0.100000000000D+01
0.144103492721D-04 0.000000000000D+00 0.000000000000D+00 0.655616189601D-05 0.000000000000D+00  7 -2 21 23 -13 13 23 -2 2 0.14383469D+00 0.31343629D+00 0.16267471D+07 0.16267471D+07 0.16267471D+07 0.10340802D+01  1  2 12  4  7  2        2 0.651001315963D-06 0.100000000000D+01
-.851471338075D-04 0.000000000000D+00 -.984587024949D-05 0.655616189601D-05 0.000000000000D+00  7 -2 21 23 -13 13 23 -2 2 0.14383469D+00 0.31345044D+00 0.15932917D+07 0.15932917D+07 0.15932917D+07 0.10346575D+01  1  2  5  4  7  2        2 -.385959205632D-05 0.100000000000D+01
  </mgrwgt>
  </event>
  <event>
  8     66 0.53686478E-06 0.15694802E+03 0.75467711E-02 0.10347144E+00
       -2 -1    0    0    0  501 0.00000000E+00 0.00000000E+00 0.35744583E+02 0.35746015E+02 0.32000000E+00 0.0000E+00 0.9000E+01
        2 -1    0    0  501    0 0.00000000E+00 0.00000000E+00 -.17575382E+04 0.17575383E+04 0.32000000E+00 0.0000E+00 0.9000E+01
       25  2    1    2    0    0 0.10854776E+02 0.12610556E+03 -.90049490E+03 0.95739175E+03 0.29947867E+03 0.0000E+00 0.0000E+00
       23  2    1    2    0    0 -.10854776E+02 -.12610556E+03 -.82129877E+03 0.83589254E+03 0.90356139E+02 0.0000E+00 0.0000E+00
       23  1    3    3    0    0 0.11467335E+03 0.98108164E+02 -.39429803E+03 0.43192751E+03 0.91188000E+02 0.0000E+00 0.9000E+01
      -11  1    4    4    0    0 0.30924362E+02 -.97628806E+02 -.61629624E+03 0.62474696E+03 0.51099893E-03 0.0000E+00 0.9000E+01
       11  1    4    4    0    0 -.41779138E+02 -.28476750E+02 -.20500252E+03 0.21114558E+03 0.51099893E-03 0.0000E+00 0.9000E+01
       23  1    3    3    0    0 -.10381857E+03 0.27997391E+02 -.50619687E+03 0.52546424E+03 0.91188000E+02 0.0000E+00 0.9000E+01
#aMCatNLO 1  0  0  2  1 0.19642699D+02 0.00000000D+00  -5  7  0 0.00000000D+00 0.00000000D+00 0.00000000D+00 0.00000000D+00 0.00000000D+00
  <mgrwgt>
 0.2568714397D-03    9    2    0
 0.250646728109043D+03 0.000000000000000D+00 0.000000000000000D+00 0.250646728109043D+03
 0.250646728109043D+03 0.000000000000000D+00 0.000000000000000D+00 -.250646728109043D+03
 0.190844250979780D+03 0.114673347779802D+03 0.981081643446455D+02 0.730143012424967D+02
 0.118122300014589D+03 0.309243615934498D+02 -.976288056521559D+02 -.588657619309189D+02
 0.512115344629064D+02 -.417791377995967D+02 -.284767495111077D+02 -.813631636856516D+01
 0.141115370760811D+03 -.103818571573655D+03 0.279973908186182D+02 -.601222294301261D+01
 0.000000000000000D+00 0.000000000000000D+00 0.000000000000000D+00 -.000000000000000D+00
 0.253696870497440D+03 0.000000000000000D+00 0.000000000000000D+00 0.253696870497440D+03
 0.284591973408603D+03 0.000000000000000D+00 0.000000000000000D+00 -.284591973408603D+03
 0.187127701424204D+03 0.114642436799488D+03 0.907058366096213D+02 0.730143012424967D+02
 0.122033343944326D+03 0.309047213891028D+02 -.102332093218053D+03 -.588657619309189D+02
 0.523734944350730D+02 -.417876091022124D+02 -.305053929791428D+02 -.813631636856516D+01
 0.140143608881158D+03 -.103841573255995D+03 0.224891219312403D+02 -.601222294301261D+01
 0.366106952212823D+02 0.820241696168799D-01 0.196425276563347D+02 -.308951029111629D+02
0.788965789562D-06 0.000000000000D+00 0.000000000000D+00 0.496297956602D-07 0.000000000000D+00  7 -2 2 23 -11 11 23 21 0 0.54992790D-02 0.27039061D+00 0.55291429D+05 0.55291429D+05 0.55291429D+05 0.11434723D+01  1  2  2  2  7  2        2 0.143041932411D-03 0.100000000000D+01
-.436141143858D-07 0.000000000000D+00 -.302983637138D-08 0.496297956602D-07 0.000000000000D+00  7 -2 2 23 -11 11 23 21 2 0.54992790D-02 0.27039061D+00 0.55291429D+05 0.55291429D+05 0.55291429D+05 0.11434723D+01  1  2  3  2  7  2        2 -.103391201942D-04 0.100000000000D+01
0.501966506439D-07 0.000000000000D+00 0.000000000000D+00 0.496297956602D-07 0.000000000000D+00  7 -2 2 23 -11 11 23 21 2 0.54992790D-02 0.27039061D+00 0.55291429D+05 0.55291429D+05 0.55291429D+05 0.11434723D+01  1  2 15  2  7  2        2 0.118995699365D-04 0.100000000000D+01
0.401011263341D-05 0.000000000000D+00 0.000000000000D+00 0.496297956602D-07 0.000000000000D+00  7 -2 2 23 -11 11 23 21 2 0.54992790D-02 0.30851471D+00 0.60168958D+05 0.60168958D+05 0.60168958D+05 0.11402897D+01  1  2 12  2  7  2        2 0.698324784862D-03 0.100000000000D+01
-.407000280789D-05 0.000000000000D+00 0.000000000000D+00 0.496297956602D-07 0.000000000000D+00  7 -2 2 23 -11 11 23 21 2 0.54992790D-02 0.27039061D+00 0.55291429D+05 0.55291429D+05 0.55291429D+05 0.11434723D+01  1  2  4  2  7  2        2 -.964830968463D-03 0.100000000000D+01
-.602086131324D-05 0.000000000000D+00 -.669427165482D-06 0.496297956602D-07 0.000000000000D+00  7 -2 2 23 -11 11 23 21 2 0.54992790D-02 0.30832814D+00 0.55291429D+05 0.55291429D+05 0.55291429D+05 0.11434723D+01  1  2  5  2  7  2        2 -.105685263607D-02 0.100000000000D+01
0.606215646096D-05 0.000000000000D+00 0.663698229576D-06 0.496297956602D-07 0.000000000000D+00  7 -2 2 23 -11 11 23 21 2 0.54992790D-02 0.27039061D+00 0.55291429D+05 0.55291429D+05 0.55291429D+05 0.11434723D+01  1  2  6  2  7  2        2 0.143708900590D-02 0.100000000000D+01
0.823340112151D-07 0.000000000000D+00 0.000000000000D+00 0.496297956602D-07 0.000000000000D+00  7 -2 21 23 -11 11 23 -2 2 0.54992790D-02 0.30851471D+00 0.60168958D+05 0.60168958D+05 0.60168958D+05 0.11402897D+01  1  2 12  4  7  2        2 0.309407708401D-05 0.100000000000D+01
-.119497318410D-06 0.000000000000D+00 -.136921817190D-07 0.496297956602D-07 0.000000000000D+00  7 -2 21 23 -11 11 23 -2 2 0.54992790D-02 0.30832814D+00 0.55291429D+05 0.55291429D+05 0.55291429D+05 0.11434723D+01  1  2  5  4  7  2        2 -.455520578639D-05 0.100000000000D+01
  </mgrwgt>
  </event>
  <event>
  8     66 0.53686478E-06 0.18455788E+03 0.75467711E-02 0.10278775E+00
       -2 -1    0    0    0  501 0.00000000E+00 0.00000000E+00 0.66525779E+03 0.66525787E+03 0.32000000E+00 0.0000E+00 0.9000E+01
        2 -1    0    0  501    0 0.00000000E+00 0.00000000E+00 -.17484540E+03 0.17484570E+03 0.32000000E+00 0.0000E+00 0.9000E+01
       25  2    1    2    0    0 0.82628011E+02 -.13890735E+02 0.59939733E+03 0.67548362E+03 0.29996770E+03 0.0000E+00 0.0000E+00
       23  2    1    2    0    0 -.82628011E+02 0.13890735E+02 -.10898494E+03 0.16461994E+03 0.90563060E+02 0.0000E+00 0.0000E+00
       23  1    3    3    0    0 -.26592610E+02 0.49763374E+02 0.81643887E+02 0.13477587E+03 0.91188000E+02 0.0000E+00 0.9000E+01
      -13  1    4    4    0    0 -.74092281E+02 -.15250055E+02 -.32507151E+02 0.82334417E+02 0.10565837E+00 0.0000E+00 0.9000E+01
       13  1    4    4    0    0 -.85357305E+01 0.29140790E+02 -.76477791E+02 0.82285528E+02 0.10565837E+00 0.0000E+00 0.9000E+01
       23  1    3    3    0    0 0.10922062E+03 -.63654109E+02 0.51775344E+03 0.54070775E+03 0.91188000E+02 0.0000E+00 0.9000E+01
#aMCatNLO 1  0  0  1  1 0.12702176D+03 0.00000000D+00  -5  7  0 0.00000000D+00 0.00000000D+00 0.00000000D+00 0.00000000D+00 0.00000000D+00
  <mgrwgt>
 0.9295234737D-04    4    2    0
 0.341053401465125D+03 0.000000000000000D+00 0.000000000000000D+00 0.341053401465125D+03
 0.341053401465125D+03 0.000000000000000D+00 0.000000000000000D+00 -.341053401465125D+03
 0.107294807185541D+03 -.265926101574383D+02 0.497633741322478D+02 0.365567845561330D+01
 0.124777113049495D+03 -.740923696092594D+02 -.152501155722244D+02 -.992324678806550D+02
 0.156330430955803D+03 -.853564151007586D+01 0.291408507014021D+02 -.153353047857671D+03
 0.293704451739411D+03 0.109220621276774D+03 -.636541092614254D+02 0.248929837282713D+03
 0.000000000000000D+00 -.000000000000000D+00 0.000000000000000D+00 -.000000000000000D+00
 0.403628093666065D+03 0.000000000000000D+00 0.000000000000000D+00 0.403628093666065D+03
 0.418041833683731D+03 0.000000000000000D+00 0.000000000000000D+00 -.418041833683731D+03
 0.100758153259457D+03 -.915563831919627D+01 0.417104831697427D+02 0.365567845561330D+01
 0.115586708279017D+03 -.539474162547237D+02 -.245536296407074D+02 -.992324678806550D+02
 0.155299641105078D+03 0.175821545494109D+02 0.170789075039761D+02 -.153353047857671D+03
 0.322188486894624D+03 0.160838766019169D+03 -.874928408458669D+02 0.248929837282713D+03
 0.127836937811621D+03 -.115317865994660D+03 0.532570798128556D+02 -.144137400176663D+02
0.825620100831D-05 0.000000000000D+00 0.000000000000D+00 0.595158252373D-06 0.000000000000D+00  7 -2 2 23 -13 13 23 21 0 0.10234738D+00 0.26899321D-01 0.34061612D+05 0.34061612D+05 0.34061612D+05 0.11622539D+01  1  2  2  1  7  1       -2 0.164858343456D-03 0.100000000000D+01
-.248380683051D-06 0.000000000000D+00 -.317059857796D-07 0.595158252373D-06 0.000000000000D+00  7 -2 2 23 -13 13 23 21 2 0.10234738D+00 0.26899321D-01 0.34061612D+05 0.34061612D+05 0.34061612D+05 0.11622539D+01  1  2  3  1  7  1       -2 -.669962519902D-05 0.100000000000D+01
0.522222020766D-06 0.000000000000D+00 0.000000000000D+00 0.595158252373D-06 0.000000000000D+00  7 -2 2 23 -13 13 23 21 2 0.10234738D+00 0.26899321D-01 0.34061612D+05 0.34061612D+05 0.34061612D+05 0.11622539D+01  1  2 15  1  7  1       -2 0.140860060727D-04 0.100000000000D+01
-.293967112551D-05 0.000000000000D+00 0.000000000000D+00 0.595158252373D-06 0.000000000000D+00  7 -2 2 23 -13 13 23 21 2 0.10234738D+00 0.26899321D-01 0.34061612D+05 0.34061612D+05 0.34061612D+05 0.11622539D+01  1  2  4  1  7  1       -2 -.792923769568D-04 0.100000000000D+01
  </mgrwgt>
  </event>
  <event>
  8     66 0.53686478E-06 0.28669552E+03 0.75467711E-02 0.95563254E-01
       -2 -1    0    0    0  501 0.00000000E+00 0.00000000E+00 0.20227980E+03 0.20228005E+03 0.32000000E+00 0.0000E+00 0.9000E+01
        2 -1    0    0  501    0 0.00000000E+00 0.00000000E+00 -.94374138E+03 0.94374144E+03 0.32000000E+00 0.0000E+00 0.9000E+01
       25  2    1    2    0    0 0.22098379E+03 -.99474038E+02 -.27738278E+02 0.38693690E+03 0.30036950E+03 0.0000E+00 0.0000E+00
       23  2    1    2    0    0 -.22098379E+03 0.99474038E+02 -.71372331E+03 0.75908459E+03 0.89886214E+02 0.0000E+00 0.0000E+00
       23  1    3    3    0    0 0.17929492E+03 -.68609727E+02 0.88621436E+02 0.23026718E+03 0.91188000E+02 0.0000E+00 0.9000E+01
      -13  1    4    4    0    0 -.10296490E+03 0.21621588E+01 -.34042045E+03 0.35565790E+03 0.10565837E+00 0.0000E+00 0.9000E+01
       13  1    4    4    0    0 -.11801888E+03 0.97311879E+02 -.37330286E+03 0.40342669E+03 0.10565837E+00 0.0000E+00 0.9000E+01
       23  1    3    3    0    0 0.41688867E+02 -.30864311E+02 -.11635971E+03 0.15666972E+03 0.91188000E+02 0.0000E+00 0.9000E+01
#aMCatNLO 1  0  0  1  1 0.30899754D+03 0.00000000D+00  -5  7  0 0.00000000D+00 0.00000000D+00 0.00000000D+00 0.00000000D+00 0.00000000D+00
  <mgrwgt>
 0.2305219697D-03    3    2    0
 0.436921034913921D+03 0.000000000000000D+00 0.000000000000000D+00 0.436921034913921D+03
 0.436921034913921D+03 0.000000000000000D+00 0.000000000000000D+00 -.436921034913921D+03
 0.377185460705388D+03 0.179294919085006D+03 -.686097266352261D+02 0.311608179971059D+03
 0.177586852374880D+03 -.102964880576698D+03 0.216202751866562D+01 -.144674286385840D+03
 0.212333525510559D+03 -.118018905101806D+03 0.973120103897710D+02 -.147266549929762D+03
 0.106736231237017D+03 0.416888665934977D+02 -.308643112732105D+02 -.196673436554574D+02
 0.000000000000000D+00 0.000000000000000D+00 -.000000000000000D+00 -.000000000000000D+00
 0.612313853077924D+03 0.000000000000000D+00 0.000000000000000D+00 0.612313853077924D+03
 0.623761031669703D+03 0.000000000000000D+00 0.000000000000000D+00 -.623761031669703D+03
 0.332614320698802D+03 0.711172601735919D+02 -.126377399265390D+02 0.311608179971059D+03
 0.221050954827476D+03 -.163719625599892D+03 0.335970189498686D+02 -.144674286385840D+03
 0.278095435924050D+03 -.192763161581284D+03 0.135985287037826D+03 -.147266549929762D+03
 0.951046727108381D+02 0.109271264046697D+02 -.149479406444550D+02 -.196673436554574D+02
 0.309209500586461D+03 0.274438400602915D+03 -.141996625416700D+03 -.114471785917785D+02
0.690471231859D-05 0.000000000000D+00 0.000000000000D+00 0.297056205897D-06 0.000000000000D+00  7 -2 2 23 -13 13 23 21 0 0.31119992D-01 0.14519101D+00 0.82194321D+05 0.82194321D+05 0.82194321D+05 0.11287780D+01  1  2  2  1  7  1       -2 0.225102953672D-03 0.100000000000D+01
-.300800353792D-06 0.000000000000D+00 -.265159133559D-07 0.297056205897D-06 0.000000000000D+00  7 -2 2 23 -13 13 23 21 2 0.31119992D-01 0.14519101D+00 0.82194321D+05 0.82194321D+05 0.82194321D+05 0.11287780D+01  1  2  3  1  7  1       -2 -.124948486309D-04 0.100000000000D+01
0.431257471397D-06 0.000000000000D+00 0.000000000000D+00 0.297056205897D-06 0.000000000000D+00  7 -2 2 23 -13 13 23 21 2 0.31119992D-01 0.14519101D+00 0.82194321D+05 0.82194321D+05 0.82194321D+05 0.11287780D+01  1  2 15  1  7  1       -2 0.179138646551D-04 0.100000000000D+01
  </mgrwgt>
  </event>
  <event>
  8     66 0.53686478E-06 0.20435999E+03 0.75467711E-02 0.10391806E+00
       -2 -1    0    0    0  501 0.00000000E+00 0.00000000E+00 0.20317728E+03 0.20317753E+03 0.32000000E+00 0.0000E+00 0.9000E+01
        2 -1    0    0  501    0 0.00000000E+00 0.00000000E+00 -.25950025E+03 0.25950044E+03 0.32000000E+00 0.0000E+00 0.9000E+01
       25  2    1    2    0    0 0.10122026E+03 -.96746535E+01 0.22274064E+02 0.31823898E+03 0.30073373E+03 0.0000E+00 0.0000E+00
       23  2    1    2    0    0 -.10122026E+03 0.96746535E+01 -.78597030E+02 0.14443899E+03 0.65924125E+02 0.0000E+00 0.0000E+00
       23  1    3    3    0    0 0.12365873E+03 0.66730838E+02 -.52983351E+02 0.17568999E+03 0.91188000E+02 0.0000E+00 0.9000E+01
      -13  1    4    4    0    0 0.86006107E+01 0.55711354E+01 -.12623468E+02 0.16259494E+02 0.10565837E+00 0.0000E+00 0.9000E+01
       13  1    4    4    0    0 -.10982087E+03 0.41035181E+01 -.65973562E+02 0.12817950E+03 0.10565837E+00 0.0000E+00 0.9000E+01
       23  1    3    3    0    0 -.22438478E+02 -.76405492E+02 0.75257415E+02 0.14254899E+03 0.91188000E+02 0.0000E+00 0.9000E+01
#aMCatNLO 1  0  0  2  2 0.59858050D+02 0.00000000D+00  -5  7  0 0.00000000D+00 0.00000000D+00 0.00000000D+00 0.00000000D+00 0.00000000D+00
  <mgrwgt>
 0.4767254583D-03    4    2    0
 0.229618506291380D+03 0.000000000000000D+00 0.000000000000000D+00 0.229618506291380D+03
 0.229618506291380D+03 0.000000000000000D+00 0.000000000000000D+00 -.229618506291380D+03
 0.170508291098695D+03 0.123658758797722D+03 0.667308360109339D+02 -.318328900240961D+02
 0.148328153915645D+02 0.860086872602595D+01 0.557113023806501D+01 -.107238042442232D+02
 0.121048902329024D+03 -.109821171644706D+03 0.410352765539123D+01 -.507474932822006D+02
 0.152847003763476D+03 -.224384558790411D+02 -.764054939043902D+02 0.933041875505200D+02
 0.000000000000000D+00 0.000000000000000D+00 0.000000000000000D+00 0.000000000000000D+00
 0.270808326584290D+03 0.000000000000000D+00 0.000000000000000D+00 0.270808326584290D+03
 0.254383808652073D+03 0.000000000000000D+00 0.000000000000000D+00 -.254383808652073D+03
 0.162517376026175D+03 0.122660285773702D+03 0.451416390161094D+02 -.318328900240961D+02
 0.141811119055965D+02 0.851387956396774D+01 0.369023199553688D+01 -.107238042442232D+02
 0.122199851385724D+03 -.110550476748446D+03 -.116656630740553D+02 -.507474932822006D+02
 0.164223264390291D+03 -.233890916429546D+02 -.969603434433803D+02 0.933041875505200D+02
 0.620705315285763D+02 0.276540305373043D+01 0.597941355057894D+02 0.164245179322163D+02
0.748909417402D-05 0.000000000000D+00 0.000000000000D+00 0.110095680714D-09 0.000000000000D+00  7 -2 2 23 -13 13 23 21 0 0.31258078D-01 0.39923149D-01 0.41763005D+05 0.41763005D+05 0.41763005D+05 0.11542361D+01  1  2  2  2  7  2        2 0.106031115735D-02 0.100000000000D+01
-.409190738667D-06 0.000000000000D+00 -.287600935520D-07 0.110095680714D-09 0.000000000000D+00  7 -2 2 23 -13 13 23 21 2 0.31258078D-01 0.39923149D-01 0.41763005D+05 0.41763005D+05 0.41763005D+05 0.11542361D+01  1  2  3  2  7  2        2 -.771825482162D-04 0.100000000000D+01
0.450255083878D-06 0.000000000000D+00 0.000000000000D+00 0.110095680714D-09 0.000000000000D+00  7 -2 2 23 -13 13 23 21 2 0.31258078D-01 0.39923149D-01 0.41763005D+05 0.41763005D+05 0.41763005D+05 0.11542361D+01  1  2 15  2  7  2        2 0.849282044706D-04 0.100000000000D+01
-.313500032938D-05 0.000000000000D+00 0.000000000000D+00 0.110095680714D-09 0.000000000000D+00  7 -2 2 23 -13 13 23 21 2 0.31258078D-01 0.39923149D-01 0.41763005D+05 0.41763005D+05 0.41763005D+05 0.11542361D+01  1  2  4  2  7  2        2 -.591331355319D-03 0.100000000000D+01
  </mgrwgt>
  </event>
  <event>
  8     66 0.53686478E-06 0.11857668E+03 0.75467711E-02 0.10509970E+00
       -2 -1    0    0    0  501 0.00000000E+00 0.00000000E+00 0.12923501E+03 0.12923541E+03 0.32000000E+00 0.0000E+00 0.9000E+01
        2 -1    0    0  501    0 0.00000000E+00 0.00000000E+00 -.37102446E+03 0.37102460E+03 0.32000000E+00 0.0000E+00 0.9000E+01
       25  2    1    2    0    0 0.68606457E+02 0.48473327E+02 -.20304558E+03 0.37087964E+03 0.29877699E+03 0.0000E+00 0.0000E+00
       23  2    1    2    0    0 -.68606457E+02 -.48473327E+02 -.38743872E+02 0.12938037E+03 0.90452656E+02 0.0000E+00 0.0000E+00
       23  1    3    3    0    0 -.87040830E+02 0.21926015E+02 -.79785052E+02 0.15079046E+03 0.91188000E+02 0.0000E+00 0.9000E+01
      -11  1    4    4    0    0 -.15499147E+02 0.24350926E+02 0.48331077E+01 0.29266877E+02 0.51099893E-03 0.0000E+00 0.9000E+01
       11  1    4    4    0    0 -.53107311E+02 -.72824253E+02 -.43576979E+02 0.10011349E+03 0.51099893E-03 0.0000E+00 0.9000E+01
       23  1    3    3    0    0 0.15564729E+03 0.26547311E+02 -.12326053E+03 0.22008918E+03 0.91188000E+02 0.0000E+00 0.9000E+01
#aMCatNLO 1  0  0  2  1 0.66577617D+01 0.00000000D+00  -5  7  0 0.00000000D+00 0.00000000D+00 0.00000000D+00 0.00000000D+00 0.00000000D+00
  <mgrwgt>
 0.3186735115D-03   11    2    0
 0.218973705857030D+03 0.000000000000000D+00 0.000000000000000D+00 0.218973705857030D+03
 0.218973705857030D+03 0.000000000000000D+00 0.000000000000000D+00 -.218973705857030D+03
 0.128196331037432D+03 -.870408300205008D+02 0.219260154795852D+02 -.788617156737548D+01
 0.360994084540580D+02 -.154991467303959D+02 0.243509260243671D+02 0.216789331637508D+02
 0.902992493731468D+02 -.531073107745705D+02 -.728242528983243D+02 0.549510413439505D+01
 0.183352422849423D+03 0.155647287525467D+03 0.265473113943720D+02 -.192878657307704D+02
 0.000000000000000D+00 0.000000000000000D+00 -.000000000000000D+00 -.000000000000000D+00
 0.221763289943751D+03 0.000000000000000D+00 0.000000000000000D+00 0.221763289943751D+03
 0.223007804831077D+03 0.000000000000000D+00 0.000000000000000D+00 -.223007804831077D+03
 0.129547375976856D+03 -.888041022329179D+02 0.227796181509755D+02 -.788617156737548D+01
 0.364769583589819D+02 -.159956550345638D+02 0.245912864246619D+02 0.216789331637508D+02
 0.905539683575229D+02 -.543445609757288D+02 -.722252982562392D+02 0.549510413439505D+01
 0.181419712391441D+03 0.153151814105825D+03 0.277553737470760D+02 -.192878657307704D+02
 0.677307969002602D+01 0.599250413738578D+01 -.290098006647433D+01 -.124451488732596D+01
0.699394915892D-06 0.000000000000D+00 0.000000000000D+00 0.171227733032D-07 0.000000000000D+00  7 -2 2 23 -11 11 23 21 0 0.19882350D-01 0.57080728D-01 0.46071528D+05 0.46071528D+05 0.46071528D+05 0.11504344D+01  1  2  2  2  7  2        2 0.144686393812D-03 0.100000000000D+01
-.388364206472D-07 0.000000000000D+00 -.268586063194D-08 0.171227733032D-07 0.000000000000D+00  7 -2 2 23 -11 11 23 21 2 0.19882350D-01 0.57080728D-01 0.46071528D+05 0.46071528D+05 0.46071528D+05 0.11504344D+01  1  2  3  2  7  2        2 -.106333020534D-04 0.100000000000D+01
0.455824228888D-07 0.000000000000D+00 0.000000000000D+00 0.171227733032D-07 0.000000000000D+00  7 -2 2 23 -11 11 23 21 2 0.19882350D-01 0.57080728D-01 0.46071528D+05 0.46071528D+05 0.46071528D+05 0.11504344D+01  1  2 15  2  7  2        2 0.124803383737D-04 0.100000000000D+01
0.731134141766D-06 0.000000000000D+00 0.000000000000D+00 0.171227733032D-07 0.000000000000D+00  7 -2 2 23 -11 11 23 21 2 0.19882350D-01 0.58490234D-01 0.47541291D+05 0.47541291D+05 0.47541291D+05 0.11492266D+01  1  2 12  2  7  2        2 0.194662820459D-03 0.100000000000D+01
-.968560589416D-06 0.000000000000D+00 0.000000000000D+00 0.171227733032D-07 0.000000000000D+00  7 -2 2 23 -11 11 23 21 2 0.19882350D-01 0.57080728D-01 0.46071528D+05 0.46071528D+05 0.46071528D+05 0.11504344D+01  1  2  4  2  7  2        2 -.265189148038D-03 0.100000000000D+01
-.245050668450D-04 0.000000000000D+00 -.324555032837D-05 0.171227733032D-07 0.000000000000D+00  7 -2 2 23 -11 11 23 21 2 0.19882350D-01 0.58775731D-01 0.46071528D+05 0.46071528D+05 0.46071528D+05 0.11504344D+01  1  2  5  2  7  2        2 -.650137336932D-02 0.100000000000D+01
0.245908995407D-04 0.000000000000D+00 0.324416125250D-05 0.171227733032D-07 0.000000000000D+00  7 -2 2 23 -11 11 23 21 2 0.19882350D-01 0.57080728D-01 0.46071528D+05 0.46071528D+05 0.46071528D+05 0.11504344D+01  1  2  6  2  7  2        2 0.673291869392D-02 0.100000000000D+01
0.339717427196D-06 0.000000000000D+00 0.000000000000D+00 0.171227733032D-07 0.272192857365D-08  7 -2 2 23 -11 11 23 21 2 0.20135639D-01 0.58132312D-01 0.47541291D+05 0.47541291D+05 0.47541291D+05 0.11492266D+01  1  2 11  2  7  2        2 0.891802335903D-04 0.100000000000D+01
0.200637212276D-07 0.000000000000D+00 0.000000000000D+00 0.171227733032D-07 0.000000000000D+00  7 -2 21 23 -11 11 23 -2 2 0.19882350D-01 0.58490234D-01 0.47541291D+05 0.47541291D+05 0.47541291D+05 0.11492266D+01  1  2 12  4  7  2        2 0.149277441938D-04 0.100000000000D+01
-.127736865211D-06 0.000000000000D+00 -.170510233370D-07 0.171227733032D-07 0.000000000000D+00  7 -2 21 23 -11 11 23 -2 2 0.19882350D-01 0.58775731D-01 0.46071528D+05 0.46071528D+05 0.46071528D+05 0.11504344D+01  1  2  5  4  7  2        2 -.943069022501D-04 0.100000000000D+01
0.178713044354D-08 0.000000000000D+00 0.000000000000D+00 0.171227733032D-07 0.907748454054D-11  7 -2 21 23 -11 11 23 -2 2 0.20135639D-01 0.58132312D-01 0.47541291D+05 0.47541291D+05 0.47541291D+05 0.11492266D+01  1  2 11  4  7  2        2 0.132000880733D-05 0.100000000000D+01
  </mgrwgt>
  </event>
  <event>
  8     66 0.53686478E-06 0.29903493E+03 0.75467711E-02 0.97258136E-01
       -2 -1    0    0    0  501 0.00000000E+00 0.00000000E+00 0.34071010E+03 0.34071025E+03 0.32000000E+00 0.0000E+00 0.9000E+01
        2 -1    0    0  501    0 0.00000000E+00 0.00000000E+00 -.28388950E+03 0.28388968E+03 0.32000000E+00 0.0000E+00 0.9000E+01
       25  2    1    2    0    0 -.21933730E+03 -.60407449E+02 0.30854804E+02 0.37798839E+03 0.30027536E+03 0.0000E+00 0.0000E+00
       23  2    1    2    0    0 0.21933730E+03 0.60407449E+02 0.25965794E+02 0.24661154E+03 0.91570301E+02 0.0000E+00 0.0000E+00
       23  1    3    3    0    0 -.20661030E+03 0.35719055E+02 0.70214094E+02 0.23918390E+03 0.91188000E+02 0.0000E+00 0.9000E+01
      -13  1    4    4    0    0 0.64226367E+02 0.49005793E+02 -.22222247E+02 0.83788027E+02 0.10565837E+00 0.0000E+00 0.9000E+01
       13  1    4    4    0    0 0.15511093E+03 0.11401656E+02 0.48188042E+02 0.16282351E+03 0.10565837E+00 0.0000E+00 0.9000E+01
       23  1    3    3    0    0 -.12726994E+02 -.96126504E+02 -.39359291E+02 0.13880449E+03 0.91188000E+02 0.0000E+00 0.9000E+01
#aMCatNLO 1  0  0  1  1 0.17443700D+03 0.00000000D+00  -5  7  0 0.00000000D+00 0.00000000D+00 0.00000000D+00 0.00000000D+00 0.00000000D+00
  <mgrwgt>
 0.1757020314D-03    3    2    0
 0.311005020878003D+03 0.000000000000000D+00 0.000000000000000D+00 0.311005020878003D+03
 0.311005020878003D+03 0.000000000000000D+00 0.000000000000000D+00 -.311005020878003D+03
 0.233765744651401D+03 -.206610302172206D+03 0.357190544795049D+02 0.486570057835881D+02
 0.861668027934955D+02 0.642262467439759D+02 0.490058427759117D+02 -.299688923161619D+02
 0.159099589232799D+03 0.155111050023537D+03 0.114016066664942D+02 0.335148447715880D+02
 0.142977905078310D+03 -.127269945953076D+02 -.961265039219108D+02 -.522029582390142D+02
 0.000000000000000D+00 -.000000000000000D+00 0.000000000000000D+00 -.000000000000000D+00
 0.341900143072853D+03 0.000000000000000D+00 0.000000000000000D+00 0.341900143072853D+03
 0.725562860101578D+03 0.000000000000000D+00 0.000000000000000D+00 -.725562860101578D+03
 0.212718778597814D+03 -.184656495358312D+03 -.216449055046951D+02 0.486570057835881D+02
 0.830935877373590D+02 0.725488418653401D+02 0.272594086584127D+02 -.299688923161619D+02
 0.177799268443021D+03 0.171676489701965D+03 -.318828782016438D+02 0.335148447715880D+02
 0.172395145153389D+03 0.278001328194077D+01 -.136645370963330D+03 -.522029582390142D+02
 0.421456223242850D+03 -.623488494909336D+02 0.162913746011256D+03 -.383662717028725D+03
0.352083306413D-05 0.000000000000D+00 0.000000000000D+00 0.238545649947D-06 0.000000000000D+00  7 -2 2 23 -13 13 23 21 0 0.52416964D-01 0.43675333D-01 0.89421890D+05 0.89421890D+05 0.89421890D+05 0.11257285D+01  1  2  2  1  7  1       -2 0.173202554998D-03 0.100000000000D+01
-.195235480142D-06 0.000000000000D+00 -.135209260229D-07 0.238545649947D-06 0.000000000000D+00  7 -2 2 23 -13 13 23 21 2 0.52416964D-01 0.43675333D-01 0.89421890D+05 0.89421890D+05 0.89421890D+05 0.11257285D+01  1  2  3  1  7  1       -2 -.121712439028D-04 0.100000000000D+01
0.235328874591D-06 0.000000000000D+00 0.000000000000D+00 0.238545649947D-06 0.000000000000D+00  7 -2 2 23 -13 13 23 21 2 0.52416964D-01 0.43675333D-01 0.89421890D+05 0.89421890D+05 0.89421890D+05 0.11257285D+01  1  2 15  1  7  1       -2 0.146707203421D-04 0.100000000000D+01
  </mgrwgt>
  </event>
  <event>
  8     66 0.53686478E-06 0.24697548E+03 0.75467711E-02 0.86254798E-01
       -2 -1    0    0    0  501 0.00000000E+00 0.00000000E+00 0.10456718E+03 0.10456767E+03 0.32000000E+00 0.0000E+00 0.9000E+01
        2 -1    0    0  501    0 0.00000000E+00 0.00000000E+00 -.13829821E+04 0.13829821E+04 0.32000000E+00 0.0000E+00 0.9000E+01
       25  2    1    2    0    0 0.93782768E+02 -.16302651E+03 -.12180406E+04 0.12683293E+04 0.29943839E+03 0.0000E+00 0.0000E+00
       23  2    1    2    0    0 -.93782768E+02 0.16302651E+03 -.60374295E+02 0.21922053E+03 0.95077508E+02 0.0000E+00 0.0000E+00
       23  1    3    3    0    0 0.68231728E+02 -.11071551E+01 -.82496465E+03 0.83278972E+03 0.91188000E+02 0.0000E+00 0.9000E+01
      -11  1    4    4    0    0 -.33279764E+02 0.98736283E+02 0.12240572E+02 0.10491057E+03 0.51099893E-03 0.0000E+00 0.9000E+01
       11  1    4    4    0    0 -.60503005E+02 0.64290230E+02 -.72614867E+02 0.11430996E+03 0.51099893E-03 0.0000E+00 0.9000E+01
       23  1    3    3    0    0 0.25551041E+02 -.16191936E+03 -.39307596E+03 0.43553954E+03 0.91188000E+02 0.0000E+00 0.9000E+01
#aMCatNLO 1  0  0  1  1 0.10559933D+04 0.00000000D+00  -5  7  0 0.00000000D+00 0.00000000D+00 0.00000000D+00 0.00000000D+00 0.00000000D+00
  <mgrwgt>
 0.3643751484D-03    3    2    0
 0.380282697773329D+03 0.000000000000000D+00 0.000000000000000D+00 0.380282697773329D+03
 0.380282697773329D+03 0.000000000000000D+00 0.000000000000000D+00 -.380282697773329D+03
 0.242147585372232D+03 0.682317277301532D+02 -.110715513119746D+01 -.213689979400243D+03
 0.225763923844839D+03 -.332797636020075D+02 0.987362833532847D+02 0.200282183416280D+03
 0.101516350953848D+03 -.605030046462795D+02 0.642902295854191D+02 0.501170861045527D+02
 0.191137535375740D+03 0.255510405181338D+02 -.161919357807506D+03 -.367092901205904D+02
 0.000000000000000D+00 -.000000000000000D+00 -.000000000000000D+00 -.000000000000000D+00
 0.915051859330426D+03 0.000000000000000D+00 0.000000000000000D+00 0.915051859330426D+03
 0.170522305516602D+04 0.000000000000000D+00 0.000000000000000D+00 -.170522305516602D+04
 0.456212572390671D+03 0.231514070729030D+03 0.317100122393087D+03 -.213689979400243D+03
 0.487170119020731D+03 0.133410073480986D+03 0.423584140598392D+03 0.200282183416280D+03
 0.214767452018778D+03 0.134467472516500D+02 0.208404705118136D+03 0.501170861045527D+02
 0.143226630431118D+03 0.103728129804984D+03 -.956657862848419D+01 -.367092901205904D+02
 0.131889814063515D+04 -.482099021266651D+03 -.939522389481131D+03 -.790171195835594D+03
0.644285884642D-05 0.000000000000D+00 0.000000000000D+00 0.544024373251D-07 0.000000000000D+00  7 -2 2 23 -11 11 23 21 0 0.16087299D-01 0.21276651D+00 0.60996890D+05 0.60996890D+05 0.60996890D+05 0.11397777D+01  1  2  2  1  7  1       -2 0.356777951108D-03 0.100000000000D+01
-.276858702956D-06 0.000000000000D+00 -.247422744140D-07 0.544024373251D-07 0.000000000000D+00  7 -2 2 23 -11 11 23 21 2 0.16087299D-01 0.21276651D+00 0.60996890D+05 0.60996890D+05 0.60996890D+05 0.11397777D+01  1  2  3  1  7  1       -2 -.199167236662D-04 0.100000000000D+01
0.382465941842D-06 0.000000000000D+00 0.000000000000D+00 0.544024373251D-07 0.000000000000D+00  7 -2 2 23 -11 11 23 21 2 0.16087299D-01 0.21276651D+00 0.60996890D+05 0.60996890D+05 0.60996890D+05 0.11397777D+01  1  2 15  1  7  1       -2 0.275139209788D-04 0.100000000000D+01
  </mgrwgt>
  </event>
  <event>
  8     66 0.53686478E-06 0.73581759E+03 0.75467711E-02 0.84076880E-01
       -2 -1    0    0    0  501 0.00000000E+00 0.00000000E+00 0.25649068E+03 0.25649088E+03 0.32000000E+00 0.0000E+00 0.9000E+01
        2 -1    0    0  501    0 0.00000000E+00 0.00000000E+00 -.21785028E+04 0.21785029E+04 0.32000000E+00 0.0000E+00 0.9000E+01
       25  2    1    2    0    0 0.35364438E+03 0.61406900E+03 -.11500352E+04 0.13828471E+04 0.29587179E+03 0.0000E+00 0.0000E+00
       23  2    1    2    0    0 -.35364438E+03 -.61406900E+03 -.77197701E+03 0.10521467E+04 0.94440448E+02 0.0000E+00 0.0000E+00
       23  1    3    3    0    0 0.16532139E+03 0.12529467E+03 -.24922579E+03 0.33683626E+03 0.91188000E+02 0.0000E+00 0.9000E+01
      -11  1    4    4    0    0 -.20830319E+03 -.43834559E+03 -.49256657E+03 0.69149034E+03 0.51099893E-03 0.0000E+00 0.9000E+01
       11  1    4    4    0    0 -.14534120E+03 -.17572341E+03 -.27941045E+03 0.36065632E+03 0.51099893E-03 0.0000E+00 0.9000E+01
       23  1    3    3    0    0 0.18832299E+03 0.48877433E+03 -.90080936E+03 0.10460108E+04 0.91188000E+02 0.0000E+00 0.9000E+01
#aMCatNLO 1  0  0  1  2 0.10490440D+04 0.00000000D+00  -5  7  0 0.00000000D+00 0.00000000D+00 0.00000000D+00 0.00000000D+00 0.00000000D+00
  <mgrwgt>
 0.2703905488D-03    5    2    0
 0.747506479948876D+03 0.000000000000000D+00 0.000000000000000D+00 0.747506479948876D+03
 0.747506479948876D+03 0.000000000000000D+00 0.000000000000000D+00 -.747506479948876D+03
 0.228211513926253D+03 0.165321392589245D+03 0.125294668450438D+03 0.271169127070208D+02
 0.493009587808484D+03 -.208303186889837D+03 -.438345587530379D+03 0.867259009481912D+02
 0.228202431313724D+03 -.145341195562330D+03 -.175723410227213D+03 0.857727393326087D+01
 0.545589426849291D+03 0.188322989862923D+03 0.488774329307154D+03 -.122420087588473D+03
 0.000000000000000D+00 -.000000000000000D+00 -.000000000000000D+00 0.000000000000000D+00
 0.165036999437480D+04 0.000000000000000D+00 0.000000000000000D+00 0.165036999437480D+04
 0.128637847568030D+04 0.000000000000000D+00 0.000000000000000D+00 -.128637847568030D+04
 0.419661966769464D+03 0.354262414065496D+03 0.203871847086697D+03 0.271169127070208D+02
 0.349203079934964D+03 0.373134751362200D+02 -.336198027528491D+03 0.867259009481912D+02
 0.137263556116877D+03 -.387594029169298D+02 -.131397956206510D+03 0.857727393326087D+01
 0.920222140242232D+03 0.615801414324088D+03 0.666554931209182D+03 -.122420087588473D+03
 0.111039772699156D+04 -.968617900608874D+03 -.402830794560878D+03 0.363991518694499D+03
0.648524878154D-04 0.000000000000D+00 0.000000000000D+00 0.366941203365D-08 0.000000000000D+00  7 -2 2 23 -11 11 23 21 0 0.39460121D-01 0.33515430D+00 0.54142753D+06 0.54142753D+06 0.54142753D+06 0.10660757D+01  1  2  2  1  7  1       -2 0.260883337462D-03 0.100000000000D+01
-.360182784243D-05 0.000000000000D+00 -.249050629263D-06 0.366941203365D-08 0.000000000000D+00  7 -2 2 23 -11 11 23 21 2 0.39460121D-01 0.33515430D+00 0.54142753D+06 0.54142753D+06 0.54142753D+06 0.10660757D+01  1  2  3  1  7  1       -2 -.164671611875D-04 0.100000000000D+01
0.384415100751D-05 0.000000000000D+00 0.000000000000D+00 0.366941203365D-08 0.000000000000D+00  7 -2 2 23 -11 11 23 21 2 0.39460121D-01 0.33515430D+00 0.54142753D+06 0.54142753D+06 0.54142753D+06 0.10660757D+01  1  2 15  1  7  1       -2 0.175750360759D-04 0.100000000000D+01
0.223535212418D-04 0.000000000000D+00 -.237170464312D-04 0.366941203365D-08 0.000000000000D+00  7 -2 2 23 -11 11 23 21 2 0.16965235D+00 0.33515430D+00 0.54142753D+06 0.54142753D+06 0.54142753D+06 0.10660757D+01  1  2  5  1  7  1       -2 0.347574344957D-05 0.100000000000D+01
0.390949935809D-05 0.000000000000D+00 -.416345888746D-05 0.366941203365D-08 0.000000000000D+00  7 21 2 23 -11 11 23 2 2 0.16965235D+00 0.33515430D+00 0.54142753D+06 0.54142753D+06 0.54142753D+06 0.10660757D+01  1  2  5  3  7  1       -2 0.492359298358D-05 0.100000000000D+01
  </mgrwgt>
  </event>
  <event>
  7     66 0.53686478E-06 0.22354935E+03 0.75467711E-02 0.10116576E+00
       -2 -1    0    0    0  501 0.00000000E+00 0.00000000E+00 0.67133181E+02 0.67133944E+02 0.32000000E+00 0.0000E+00 0.9000E+01
        2 -1    0    0  501    0 0.00000000E+00 0.00000000E+00 -.12586830E+04 0.12586830E+04 0.32000000E+00 0.0000E+00 0.9000E+01
       23  2    1    2    0    0 0.68955070E+02 -.11735328E+03 -.17919613E+03 0.24255794E+03 0.90534552E+02 0.0000E+00 0.0000E+00
       23  1    1    2    0    0 0.10839030E+02 -.26809362E+02 -.61026679E+02 0.11347129E+03 0.91188000E+02 0.0000E+00 0.9000E+01
      -11  1    3    3    0    0 0.74565002E+02 -.12966935E+03 -.15954795E+03 0.21869986E+03 0.51099893E-03 0.0000E+00 0.9000E+01
       11  1    3    3    0    0 -.56099320E+01 0.12316068E+02 -.19648185E+02 0.23858081E+02 0.51099893E-03 0.0000E+00 0.9000E+01
       23  1    1    2    0    0 -.79794100E+02 0.14416264E+03 -.95132696E+03 0.96978771E+03 0.91188000E+02 0.0000E+00 0.9000E+01
#aMCatNLO 1  0  0  2  1 0.11835714D+03 0.00000000D+00  -5  7  0 0.00000000D+00 0.00000000D+00 0.00000000D+00 0.00000000D+00 0.00000000D+00
  <mgrwgt>
 0.1879647597D-03    4    2    0
 0.290688705188307D+03 0.000000000000000D+00 0.000000000000000D+00 0.290688705188307D+03
 0.290688705188307D+03 0.000000000000000D+00 0.000000000000000D+00 -.290688705188307D+03
 0.133692554617831D+03 0.108390298268307D+02 -.268093622338089D+02 0.933928334791867D+02
 0.171741544134808D+03 0.745650018414851D+02 -.129669350021360D+03 0.843864808320937D+02
 0.141382482385451D+02 -.560993203807598D+01 0.123160683506171D+02 0.409062173340660D+01
 0.261805063385432D+03 -.797940996302398D+02 0.144162643904552D+03 -.181869936044687D+03
 0.000000000000000D+00 0.000000000000000D+00 -.000000000000000D+00 0.000000000000000D+00
 0.363972032692475D+03 0.000000000000000D+00 0.000000000000000D+00 0.363972032692475D+03
 0.348672560692039D+03 0.000000000000000D+00 0.000000000000000D+00 -.348672560692039D+03
 0.130594789950371D+03 0.404989160717813D+01 -.106058987386911D+01 0.933928334791867D+02
 0.145868343317728D+03 0.664060889379309D+02 -.987255123410397D+02 0.843864808320937D+02
 0.171438839567956D+02 -.641352223505117D+01 0.153637984723427D+02 0.409062173340660D+01
 0.299695691995717D+03 -.942181964213679D+02 0.198868082615078D+03 -.181869936044687D+03
 0.119341884163903D+03 0.301757381113100D+02 -.114445778872512D+03 0.152994720004357D+02
0.259826265882D-05 0.000000000000D+00 0.000000000000D+00 0.671274904912D-10 0.000000000000D+00  7 -2 2 23 -11 11 23 21 0 0.10328243D-01 0.19364359D+00 0.49974310D+05 0.49974310D+05 0.49974310D+05 0.11473150D+01  1  2  2  2  7  2        2 0.337400933938D-03 0.100000000000D+01
-.132243331945D-06 0.000000000000D+00 -.997801274815D-08 0.671274904912D-10 0.000000000000D+00  7 -2 2 23 -11 11 23 21 2 0.10328243D-01 0.19364359D+00 0.49974310D+05 0.49974310D+05 0.49974310D+05 0.11473150D+01  1  2  3  2  7  2        2 -.226048885733D-04 0.100000000000D+01
0.166862039630D-06 0.000000000000D+00 0.000000000000D+00 0.671274904912D-10 0.000000000000D+00  7 -2 2 23 -11 11 23 21 2 0.10328243D-01 0.19364359D+00 0.49974310D+05 0.49974310D+05 0.49974310D+05 0.11473150D+01  1  2 15  2  7  2        2 0.285224045513D-04 0.100000000000D+01
-.908851620902D-06 0.000000000000D+00 0.000000000000D+00 0.671274904912D-10 0.000000000000D+00  7 -2 2 23 -11 11 23 21 2 0.10328243D-01 0.19364359D+00 0.49974310D+05 0.49974310D+05 0.49974310D+05 0.11473150D+01  1  2  4  2  7  2        2 -.155353690186D-03 0.100000000000D+01
  </mgrwgt>
  </event>
  <event>
  8     66 0.53686478E-06 0.29969152E+03 0.75467711E-02 0.92536881E-01
       -2 -1    0    0    0  501 0.00000000E+00 0.00000000E+00 0.11350421E+03 0.11350467E+03 0.32000000E+00 0.0000E+00 0.9000E+01
        2 -1    0    0  501    0 0.00000000E+00 0.00000000E+00 -.22214172E+04 0.22214172E+04 0.32000000E+00 0.0000E+00 0.9000E+01
       25  2    1    2    0    0 -.30797942E+03 0.31578723E+03 -.13735125E+04 0.14735194E+04 0.30025001E+03 0.0000E+00 0.0000E+00
       23  2    1    2    0    0 0.30797942E+03 -.31578723E+03 -.73440050E+03 0.86140245E+03 0.89984452E+02 0.0000E+00 0.0000E+00
       23  1    3    3    0    0 -.11732431E+03 0.28083743E+03 -.87649990E+03 0.93231003E+03 0.91188000E+02 0.0000E+00 0.9000E+01
      -13  1    4    4    0    0 0.26896491E+03 -.22249435E+03 -.57062226E+03 0.66892124E+03 0.10565837E+00 0.0000E+00 0.9000E+01
       13  1    4    4    0    0 0.39014510E+02 -.93292886E+02 -.16377824E+03 0.19248121E+03 0.10565837E+00 0.0000E+00 0.9000E+01
       23  1    3    3    0    0 -.19065510E+03 0.34949797E+02 -.49701258E+03 0.54120940E+03 0.91188000E+02 0.0000E+00 0.9000E+01
#aMCatNLO 1  0  0  2  1 0.20507791D+03 0.00000000D+00  -5  7  0 0.00000000D+00 0.00000000D+00 0.00000000D+00 0.00000000D+00 0.00000000D+00
  <mgrwgt>
 0.1828332293D-03    9    2    0
 0.502136202663272D+03 0.000000000000000D+00 0.000000000000000D+00 0.502136202663272D+03
 0.502136202663272D+03 0.000000000000000D+00 0.000000000000000D+00 -.502136202663272D+03
 0.327884708726017D+03 -.117324313297522D+03 0.280837434212226D+03 -.809843931057290D+02
 0.357529620132189D+03 0.268965224657929D+03 -.222494523802504D+03 0.773390203873469D+02
 0.103754686396582D+03 0.390141929865891D+02 -.932927075145458D+02 0.232249525180089D+02
 0.215103390071756D+03 -.190655104346995D+03 0.349497971048236D+02 -.195795797996268D+02
 0.000000000000000D+00 0.000000000000000D+00 -.000000000000000D+00 -.000000000000000D+00
 0.590634692578496D+03 0.000000000000000D+00 0.000000000000000D+00 0.590634692578496D+03
 0.647062229190314D+03 0.000000000000000D+00 0.000000000000000D+00 -.647062229190314D+03
 0.374129222752016D+03 -.185256027093121D+03 0.301295795642749D+03 -.809843931057290D+02
 0.299215121509066D+03 0.205414070150200D+03 -.203355414605904D+03 0.773390203873469D+02
 0.927737437534765D+02 0.199967455100928D+02 -.875654000137985D+02 0.232249525180089D+02
 0.258879479137107D+03 -.236520958529293D+03 0.487627891486356D+02 -.195795797996268D+02
 0.212699354617144D+03 0.196366169962122D+03 -.591377701716822D+02 -.564275366118180D+02
0.741186214815D-05 0.000000000000D+00 0.000000000000D+00 0.329480926102D-06 0.000000000000D+00  7 -2 2 23 -13 13 23 21 0 0.17462223D-01 0.34175653D+00 0.24114144D+06 0.24114144D+06 0.24114144D+06 0.10916398D+01  1  2  2  2  7  2        2 0.121916574503D-03 0.100000000000D+01
-.411521106660D-06 0.000000000000D+00 -.284635022370D-07 0.329480926102D-06 0.000000000000D+00  7 -2 2 23 -13 13 23 21 2 0.17462223D-01 0.34175653D+00 0.24114144D+06 0.24114144D+06 0.24114144D+06 0.10916398D+01  1  2  3  2  7  2        2 -.806652043122D-05 0.100000000000D+01
0.443847138403D-06 0.000000000000D+00 0.000000000000D+00 0.329480926102D-06 0.000000000000D+00  7 -2 2 23 -13 13 23 21 2 0.17462223D-01 0.34175653D+00 0.24114144D+06 0.24114144D+06 0.24114144D+06 0.10916398D+01  1  2 15  2  7  2        2 0.870016616966D-05 0.100000000000D+01
0.303586378262D-05 0.000000000000D+00 0.000000000000D+00 0.329480926102D-06 0.000000000000D+00  7 -2 2 23 -13 13 23 21 2 0.17462223D-01 0.46339437D+00 0.36441867D+06 0.36441867D+06 0.36441867D+06 0.10783565D+01  1  2 12  2  7  2        2 0.193933687902D-04 0.100000000000D+01
-.361708429616D-05 0.000000000000D+00 0.000000000000D+00 0.329480926102D-06 0.000000000000D+00  7 -2 2 23 -13 13 23 21 2 0.17462223D-01 0.34175653D+00 0.24114144D+06 0.24114144D+06 0.24114144D+06 0.10916398D+01  1  2  4  2  7  2        2 -.709010641355D-04 0.100000000000D+01
-.769404584821D-05 0.000000000000D+00 -.271743626562D-05 0.329480926102D-06 0.000000000000D+00  7 -2 2 23 -13 13 23 21 2 0.17462223D-01 0.46630628D+00 0.24114144D+06 0.24114144D+06 0.24114144D+06 0.10916398D+01  1  2  5  2  7  2        2 -.501147553064D-04 0.100000000000D+01
0.826245475103D-05 0.000000000000D+00 0.259131512031D-05 0.329480926102D-06 0.000000000000D+00  7 -2 2 23 -13 13 23 21 2 0.17462223D-01 0.34175653D+00 0.24114144D+06 0.24114144D+06 0.24114144D+06 0.10916398D+01  1  2  6  2  7  2        2 0.161958302946D-03 0.100000000000D+01
0.118615097659D-06 0.000000000000D+00 0.000000000000D+00 0.329480926102D-06 0.000000000000D+00  7 -2 21 23 -13 13 23 -2 2 0.17462223D-01 0.46339437D+00 0.36441867D+06 0.36441867D+06 0.36441867D+06 0.10783565D+01  1  2 12  4  7  2        2 0.494168530243D-07 0.100000000000D+01
-.240740765637D-06 0.000000000000D+00 -.107745276726D-06 0.329480926102D-06 0.000000000000D+00  7 -2 21 23 -13 13 23 -2 2 0.17462223D-01 0.46630628D+00 0.24114144D+06 0.24114144D+06 0.24114144D+06 0.10916398D+01  1  2  5  4  7  2        2 -.102260118034D-06 0.100000000000D+01
  </mgrwgt>
  </event>
  <event>
  8     66 0.53686478E-06 0.71068139E+03 0.75467711E-02 0.90385727E-01
       -2 -1    0    0    0  501 0.00000000E+00 0.00000000E+00 0.57397313E+03 0.57397322E+03 0.32000000E+00 0.0000E+00 0.9000E+01
        2 -1    0    0  501    0 0.00000000E+00 0.00000000E+00 -.15258118E+04 0.15258119E+04 0.32000000E+00 0.0000E+00 0.9000E+01
       25  2    1    2    0    0 -.47500357E+02 0.70765816E+03 -.11256182E+04 0.13637341E+04 0.29952955E+03 0.0000E+00 0.0000E+00
       23  2    1    2    0    0 0.47500357E+02 -.70765816E+03 0.17377950E+03 0.73605100E+03 0.92387200E+02 0.0000E+00 0.0000E+00
       23  1    3    3    0    0 0.91662727E+02 0.27883117E+03 -.50631812E+03 0.59230243E+03 0.91188000E+02 0.0000E+00 0.9000E+01
      -11  1    4    4    0    0 0.24787777E+02 -.64310850E+03 0.17720550E+03 0.66753635E+03 0.51099893E-03 0.0000E+00 0.9000E+01
       11  1    4    4    0    0 0.22712580E+02 -.64549658E+02 -.34260058E+01 0.68514649E+02 0.51099893E-03 0.0000E+00 0.9000E+01
       23  1    3    3    0    0 -.13916308E+03 0.42882699E+03 -.61930007E+03 0.77143165E+03 0.91188000E+02 0.0000E+00 0.9000E+01
#aMCatNLO 1  0  0  2  1 0.21568593D+00 0.00000000D+00  -5  7  0 0.00000000D+00 0.00000000D+00 0.00000000D+00 0.00000000D+00 0.00000000D+00
  <mgrwgt>
 0.1285971807D-03    9    2    0
 0.935828569444916D+03 0.000000000000000D+00 0.000000000000000D+00 0.935828569444916D+03
 0.935828569444916D+03 0.000000000000000D+00 0.000000000000000D+00 -.935828569444916D+03
 0.407005432004685D+03 0.916627269163783D+02 0.278831172283567D+03 -.266813215929320D+03
 0.839017937175806D+03 0.247877766857322D+02 -.643108504613015D+03 0.538282561787148D+03
 0.751232849162770D+02 0.227125803111072D+02 -.645496577726282D+02 0.309998115100752D+02
 0.550510484793063D+03 -.139163083913218D+03 0.428826990102077D+03 -.302469157367903D+03
 0.000000000000000D+00 0.000000000000000D+00 0.000000000000000D+00 -.000000000000000D+00
 0.935929666976763D+03 0.000000000000000D+00 0.000000000000000D+00 0.935929666976763D+03
 0.935943621197823D+03 0.000000000000000D+00 0.000000000000000D+00 -.935943621197823D+03
 0.406993996302261D+03 0.916158426702259D+02 0.278829888748253D+03 -.266813215929320D+03
 0.839017115464276D+03 0.246911262389084D+02 -.643111150582007D+03 0.538282561787148D+03
 0.751208726113190D+02 0.227039266391027D+02 -.645498946814946D+02 0.309998115100752D+02
 0.550525166939578D+03 -.139226500697951D+03 0.428825253960636D+03 -.302469157367903D+03
 0.216136857152454D+00 0.215605149714462D+00 0.590255461215216D-02 -.139542210601382D-01
0.158179466913D-04 0.000000000000D+00 0.000000000000D+00 0.299015410089D-05 0.000000000000D+00  7 -2 2 23 -11 11 23 21 0 0.88303567D-01 0.23474029D+00 0.54710957D+06 0.54710957D+06 0.54710957D+06 0.10657576D+01  1  2  2  2  7  2        2 0.271305317470D-04 0.100000000000D+01
-.819653379746D-06 0.000000000000D+00 -.607450802557D-07 0.299015410089D-05 0.000000000000D+00  7 -2 2 23 -11 11 23 21 2 0.88303567D-01 0.23474029D+00 0.54710957D+06 0.54710957D+06 0.54710957D+06 0.10657576D+01  1  2  3  2  7  2        2 -.159681771624D-05 0.100000000000D+01
0.986355960216D-06 0.000000000000D+00 0.000000000000D+00 0.299015410089D-05 0.000000000000D+00  7 -2 2 23 -11 11 23 21 2 0.88303567D-01 0.23474029D+00 0.54710957D+06 0.54710957D+06 0.54710957D+06 0.10657576D+01  1  2 15  2  7  2        2 0.192158137904D-05 0.100000000000D+01
-.100402015391D-01 0.000000000000D+00 0.000000000000D+00 0.299015410089D-05 0.000000000000D+00  7 -2 2 23 -11 11 23 21 2 0.88303567D-01 0.23474029D+00 0.54710957D+06 0.54710957D+06 0.54710957D+06 0.10657576D+01  1  2  4  2  7  2        2 -.195599409317D-01 0.100000000000D+01
-.155533173874D+00 0.000000000000D+00 -.911706983802D-02 0.299015410089D-05 0.000000000000D+00  7 -2 2 23 -11 11 23 21 2 0.88303567D-01 0.23478451D+00 0.54710957D+06 0.54710957D+06 0.54710957D+06 0.10657576D+01  1  2  5  2  7  2        2 -.302892545603D+00 0.100000000000D+01
0.155534888701D+00 0.000000000000D+00 0.911706967626D-02 0.299015410089D-05 0.000000000000D+00  7 -2 2 23 -11 11 23 21 2 0.88303567D-01 0.23474029D+00 0.54710957D+06 0.54710957D+06 0.54710957D+06 0.10657576D+01  1  2  6  2  7  2        2 0.303007188048D+00 0.100000000000D+01
0.100402016354D-01 0.000000000000D+00 0.000000000000D+00 0.299015410089D-05 0.389366323240D-03  7 -2 2 23 -11 11 23 21 2 0.88313107D-01 0.23476915D+00 0.54726816D+06 0.54726816D+06 0.54726816D+06 0.10657488D+01  1  2 11  2  7  2        2 0.195496936340D-01 0.100000000000D+01
-.549179782971D-05 0.000000000000D+00 -.321926241992D-06 0.299015410089D-05 0.000000000000D+00  7 -2 21 23 -11 11 23 -2 2 0.88303567D-01 0.23478451D+00 0.54710957D+06 0.54710957D+06 0.54710957D+06 0.10657576D+01  1  2  5  4  7  2        2 -.352403761703D-05 0.100000000000D+01
0.421993046694D-06 0.000000000000D+00 0.000000000000D+00 0.299015410089D-05 0.897356049984D-08  7 -2 21 23 -11 11 23 -2 2 0.88313107D-01 0.23476915D+00 0.54726816D+06 0.54726816D+06 0.54726816D+06 0.10657488D+01  1  2 11  4  7  2        2 0.270775955219D-06 0.100000000000D+01
  </mgrwgt>
  </event>
  <event>
  8     66 0.53686478E-06 0.15549435E+03 0.75467711E-02 0.96610885E-01
       -2 -1    0    0    0  501 0.00000000E+00 0.00000000E+00 0.99807448E+02 0.99807961E+02 0.32000000E+00 0.0000E+00 0.9000E+01
        2 -1    0    0  501    0 0.00000000E+00 0.00000000E+00 -.15265383E+04 0.15265384E+04 0.32000000E+00 0.0000E+00 0.9000E+01
       25  2    1    2    0    0 -.10496265E+03 0.18432426E+03 -.29626697E+03 0.47256780E+03 0.30092127E+03 0.0000E+00 0.0000E+00
       23  2    1    2    0    0 0.10496265E+03 -.18432426E+03 -.11304639E+04 0.11537785E+04 0.90904642E+02 0.0000E+00 0.0000E+00
       23  1    3    3    0    0 -.60049482E+02 0.22044484E+03 -.14112738E+03 0.28360898E+03 0.91188000E+02 0.0000E+00 0.9000E+01
      -11  1    4    4    0    0 -.36949044E+01 -.66591330E+01 -.20627825E+03 0.20641878E+03 0.51099893E-03 0.0000E+00 0.9000E+01
       11  1    4    4    0    0 0.10865756E+03 -.17766513E+03 -.92418567E+03 0.94735976E+03 0.51099893E-03 0.0000E+00 0.9000E+01
       23  1    3    3    0    0 -.44913170E+02 -.36120571E+02 -.15513959E+03 0.18895881E+03 0.91188000E+02 0.0000E+00 0.9000E+01
#aMCatNLO 1  0  0  1  2 0.23542939D+03 0.00000000D+00  -5  7  0 0.00000000D+00 0.00000000D+00 0.00000000D+00 0.00000000D+00 0.00000000D+00
  <mgrwgt>
 0.1857726259D-03    7    2    0
 0.390333627384076D+03 0.000000000000000D+00 0.000000000000000D+00 0.390333627384076D+03
 0.390333627384076D+03 0.000000000000000D+00 0.000000000000000D+00 -.390333627384076D+03
 0.332914739089181D+03 -.600494820204832D+02 0.220444835464862D+03 0.224310290412096D+03
 0.530378010335061D+02 -.369490441273544D+01 -.665913304084423D+01 -.524882078851513D+02
 0.284590941812931D+03 0.108657556349087D+03 -.177665131691171D+03 -.193960409855658D+03
 0.110123772832534D+03 -.449131699158685D+02 -.361205707328468D+02 0.221383273287130D+02
 0.000000000000000D+00 0.000000000000000D+00 -.000000000000000D+00 0.000000000000000D+00
 0.737740602798874D+03 0.000000000000000D+00 0.000000000000000D+00 0.737740602798874D+03
 0.449681943149151D+03 0.000000000000000D+00 0.000000000000000D+00 -.449681943149151D+03
 0.414431318798705D+03 -.614619859479328D+02 0.330674136508755D+03 0.224310290412096D+03
 0.534033618582229D+02 -.389608104174152D+01 0.904033424612268D+01 -.524882078851513D+02
 0.243255985082464D+03 0.107659911617490D+03 -.998107064276132D+02 -.193960409855658D+03
 0.104303938524126D+03 -.453184439937185D+02 -.449370055962877D+01 0.221383273287130D+02
 0.372027941684508D+03 0.301659936590303D+01 -.235410063767636D+03 0.288058659649723D+03
0.501207020316D-05 0.000000000000D+00 0.000000000000D+00 0.337412488862D-06 0.000000000000D+00  7 -2 2 23 -11 11 23 21 0 0.15355034D-01 0.23485209D+00 0.81154138D+05 0.81154138D+05 0.81154138D+05 0.11292410D+01  1  2  2  1  7  1       -2 0.249022047664D-03 0.100000000000D+01
-.244866330548D-06 0.000000000000D+00 -.192476692885D-07 0.337412488862D-06 0.000000000000D+00  7 -2 2 23 -11 11 23 21 2 0.15355034D-01 0.23485209D+00 0.81154138D+05 0.81154138D+05 0.81154138D+05 0.11292410D+01  1  2  3  1  7  1       -2 -.155139721011D-04 0.100000000000D+01
0.304551270862D-06 0.000000000000D+00 0.000000000000D+00 0.337412488862D-06 0.000000000000D+00  7 -2 2 23 -11 11 23 21 2 0.15355034D-01 0.23485209D+00 0.81154138D+05 0.81154138D+05 0.81154138D+05 0.11292410D+01  1  2 15  1  7  1       -2 0.192954250139D-04 0.100000000000D+01
0.230673689741D-06 0.000000000000D+00 0.000000000000D+00 0.337412488862D-06 0.000000000000D+00  7 -2 2 23 -11 11 23 21 2 0.29267163D-01 0.23485209D+00 0.17744721D+06 0.17744721D+06 0.17744721D+06 0.11018385D+01  1  2 12  1  7  1       -2 0.463468560740D-05 0.100000000000D+01
-.278694691382D-05 0.000000000000D+00 -.155260325317D-05 0.337412488862D-06 0.000000000000D+00  7 -2 2 23 -11 11 23 21 2 0.33306748D-01 0.23485209D+00 0.81154138D+05 0.81154138D+05 0.81154138D+05 0.11292410D+01  1  2  5  1  7  1       -2 -.480220247521D-04 0.100000000000D+01
0.161610090836D-07 0.000000000000D+00 0.000000000000D+00 0.337412488862D-06 0.000000000000D+00  7 21 2 23 -11 11 23 2 2 0.29267163D-01 0.23485209D+00 0.17744721D+06 0.17744721D+06 0.17744721D+06 0.11018385D+01  1  2 12  3  7  1       -2 0.381415431616D-05 0.100000000000D+01
-.136265302556D-06 0.000000000000D+00 -.130188228750D-06 0.337412488862D-06 0.000000000000D+00  7 21 2 23 -11 11 23 2 2 0.33306748D-01 0.23485209D+00 0.81154138D+05 0.81154138D+05 0.81154138D+05 0.11292410D+01  1  2  5  3  7  1       -2 -.274576898727D-04 0.100000000000D+01
  </mgrwgt>
  </event>
  <event>
  8     66 0.53686478E-06 0.72263862E+02 0.75467711E-02 0.10560021E+00
       -2 -1    0    0    0  501 0.00000000E+00 0.00000000E+00 0.39274071E+02 0.39275374E+02 0.32000000E+00 0.0000E+00 0.9000E+01
        2 -1    0    0  501    0 0.00000000E+00 0.00000000E+00 -.10191624E+04 0.10191625E+04 0.32000000E+00 0.0000E+00 0.9000E+01
       25  2    1    2    0    0 -.28302474E+02 -.67110796E+01 -.69796853E+03 0.76040587E+03 0.30035139E+03 0.0000E+00 0.0000E+00
       23  2    1    2    0    0 0.28302474E+02 0.67110796E+01 -.28191984E+03 0.29803199E+03 0.92185693E+02 0.0000E+00 0.0000E+00
       23  1    3    3    0    0 -.10481339E+03 -.17062590E+02 -.56304159E+03 0.58017933E+03 0.91188000E+02 0.0000E+00 0.9000E+01
      -13  1    4    4    0    0 0.85424090E-01 -.24784081E+02 -.22878805E+03 0.23012657E+03 0.10565837E+00 0.0000E+00 0.9000E+01
       13  1    4    4    0    0 0.28217050E+02 0.31495160E+02 -.53131792E+02 0.67905416E+02 0.10565837E+00 0.0000E+00 0.9000E+01
       23  1    3    3    0    0 0.76510920E+02 0.10351510E+02 -.13492694E+03 0.18022654E+03 0.91188000E+02 0.0000E+00 0.9000E+01
#aMCatNLO 1  0  0  1  2 0.82325247D+02 0.00000000D+00  -5  7  0 0.00000000D+00 0.00000000D+00 0.00000000D+00 0.00000000D+00 0.00000000D+00
  <mgrwgt>
 0.2408845892D-03    9    2    0
 0.200068423198637D+03 0.000000000000000D+00 0.000000000000000D+00 0.200068423198637D+03
 0.200068423198637D+03 0.000000000000000D+00 0.000000000000000D+00 -.200068423198637D+03
 0.155863461922827D+03 -.104818051491695D+03 -.170636941581584D+02 -.685578138634081D+02
 0.484525037505688D+02 0.906134724217633D-01 -.247815603836577D+02 -.416354557300461D+02
 0.495087476350536D+02 0.282208908286719D+02 0.314947811814621D+02 0.257444396241097D+02
 0.146312133088826D+03 0.765065471906009D+02 0.103504733603540D+02 0.844488299693444D+02
 0.000000000000000D+00 0.000000000000000D+00 0.000000000000000D+00 0.000000000000000D+00
 0.281793300340441D+03 0.000000000000000D+00 0.000000000000000D+00 0.281793300340441D+03
 0.226112046803320D+03 0.000000000000000D+00 0.000000000000000D+00 -.226112046803320D+03
 0.166816787325386D+03 -.111286947762056D+03 -.492709915227873D+02 -.685578138634081D+02
 0.544624963440225D+02 -.197256350177246D+01 -.350536920652521D+02 -.416354557300461D+02
 0.430494357497635D+02 0.263653409811542D+02 0.222563820456303D+02 0.257444396241097D+02
 0.144189263153926D+03 0.706827528831780D+02 -.186449946778313D+02 0.844488299693444D+02
 0.993873645706644D+02 0.162114173994964D+02 0.807132962202405D+02 0.556812535371214D+02
0.594326085470D-06 0.000000000000D+00 0.000000000000D+00 0.449719213678D-07 0.000000000000D+00  7 -2 2 23 -13 13 23 21 0 0.60422688D-02 0.15679433D+00 0.26654980D+05 0.26654980D+05 0.26654980D+05 0.11721298D+01  1  2  2  1  7  1       -2 0.235046028932D-03 0.100000000000D+01
-.313589797916D-07 0.000000000000D+00 -.228236865786D-08 0.449719213678D-07 0.000000000000D+00  7 -2 2 23 -13 13 23 21 2 0.60422688D-02 0.15679433D+00 0.26654980D+05 0.26654980D+05 0.26654980D+05 0.11721298D+01  1  2  3  1  7  1       -2 -.170388957913D-04 0.100000000000D+01
0.390447117314D-07 0.000000000000D+00 0.000000000000D+00 0.449719213678D-07 0.000000000000D+00  7 -2 2 23 -13 13 23 21 2 0.60422688D-02 0.15679433D+00 0.26654980D+05 0.26654980D+05 0.26654980D+05 0.11721298D+01  1  2 15  1  7  1       -2 0.212149368001D-04 0.100000000000D+01
0.272606719862D-06 0.000000000000D+00 0.000000000000D+00 0.449719213678D-07 0.000000000000D+00  7 -2 2 23 -13 13 23 21 2 0.87772574D-02 0.15679433D+00 0.44286464D+05 0.44286464D+05 0.44286464D+05 0.11519598D+01  1  2 12  1  7  1       -2 0.824356452744D-04 0.100000000000D+01
-.439494741038D-06 0.000000000000D+00 0.000000000000D+00 0.449719213678D-07 0.000000000000D+00  7 -2 2 23 -13 13 23 21 2 0.60422688D-02 0.15679433D+00 0.26654980D+05 0.26654980D+05 0.26654980D+05 0.11721298D+01  1  2  4  1  7  1       -2 -.238799385157D-03 0.100000000000D+01
-.506218366834D-06 0.000000000000D+00 -.226938874507D-06 0.449719213678D-07 0.000000000000D+00  7 -2 2 23 -13 13 23 21 2 0.96342862D-02 0.15679433D+00 0.26654980D+05 0.26654980D+05 0.26654980D+05 0.11721298D+01  1  2  5  1  7  1       -2 -.137177674477D-03 0.100000000000D+01
0.571411973553D-06 0.000000000000D+00 0.204298085477D-06 0.449719213678D-07 0.000000000000D+00  7 -2 2 23 -13 13 23 21 2 0.60422688D-02 0.15679433D+00 0.26654980D+05 0.26654980D+05 0.26654980D+05 0.11721298D+01  1  2  6  1  7  1       -2 0.310476588715D-03 0.100000000000D+01
0.123403082934D-07 0.000000000000D+00 0.000000000000D+00 0.449719213678D-07 0.000000000000D+00  7 21 2 23 -13 13 23 2 2 0.87772574D-02 0.15679433D+00 0.44286464D+05 0.44286464D+05 0.44286464D+05 0.11519598D+01  1  2 12  3  7  1       -2 0.565514600950D-04 0.100000000000D+01
-.176008200589D-07 0.000000000000D+00 -.121225445751D-07 0.449719213678D-07 0.000000000000D+00  7 21 2 23 -13 13 23 2 2 0.96342862D-02 0.15679433D+00 0.26654980D+05 0.26654980D+05 0.26654980D+05 0.11721298D+01  1  2  5  3  7  1       -2 -.718241151737D-04 0.100000000000D+01
  </mgrwgt>
  </event>
  <event>
  8     66 0.53686478E-06 0.17480501E+03 0.75467711E-02 0.10485233E+00
       -4 -1    0    0    0  501 0.00000000E+00 0.00000000E+00 0.39979292E+03 0.39979593E+03 0.15500000E+01 0.0000E+00 0.9000E+01
        4 -1    0    0  501    0 0.00000000E+00 0.00000000E+00 -.11604625E+03 0.11605660E+03 0.15500000E+01 0.0000E+00 0.9000E+01
       25  2    1    2    0    0 0.23358850E+02 0.58247427E+02 0.14832432E+03 0.34061138E+03 0.30012932E+03 0.0000E+00 0.0000E+00
       23  2    1    2    0    0 -.23358850E+02 -.58247427E+02 0.13542236E+03 0.17524115E+03 0.91825089E+02 0.0000E+00 0.0000E+00
       23  1    3    3    0    0 -.64165593E+02 0.42804027E+02 -.28424937E+02 0.12277067E+03 0.91188000E+02 0.0000E+00 0.9000E+01
      -13  1    4    4    0    0 0.19658940E+02 0.10084481E+02 0.63431944E+01 0.22987344E+02 0.10565837E+00 0.0000E+00 0.9000E+01
       13  1    4    4    0    0 -.43017791E+02 -.68331908E+02 0.12907916E+03 0.15225381E+03 0.10565837E+00 0.0000E+00 0.9000E+01
       23  1    3    3    0    0 0.87524443E+02 0.15443400E+02 0.17674925E+03 0.21784071E+03 0.91188000E+02 0.0000E+00 0.9000E+01
#aMCatNLO 1  0  0  1  2 0.88386023D+02 0.00000000D+00  -5  7  0 0.00000000D+00 0.00000000D+00 0.00000000D+00 0.00000000D+00 0.00000000D+00
  <mgrwgt>
 0.2205923830D-04    4    2    0
 0.215401751115813D+03 0.000000000000000D+00 0.000000000000000D+00 0.215401751115813D+03
 0.215401751115813D+03 0.000000000000000D+00 0.000000000000000D+00 -.215401751115813D+03
 0.165729978950245D+03 -.641655715105513D+02 0.428040811120276D+02 -.114898932335021D+03
 0.233474002211136D+02 0.196589732140461D+02 0.100845273206410D+02 -.754507640607538D+01
 0.972944511060044D+02 -.430178639798584D+02 -.683320560063471D+02 0.542807858875913D+02
 0.144431671954264D+03 0.875244622763636D+02 0.154434475736785D+02 0.681632228535054D+02
 0.000000000000000D+00 -.000000000000000D+00 0.000000000000000D+00 -.000000000000000D+00
 0.254912566185409D+03 0.000000000000000D+00 0.000000000000000D+00 0.254912566185409D+03
 0.275650700184706D+03 0.000000000000000D+00 0.000000000000000D+00 -.275650700184706D+03
 0.153481114812925D+03 -.351701405457498D+02 0.283283925149791D+02 -.114898932335021D+03
 0.265181844609815D+02 0.241884966122582D+02 0.782320655306362D+01 -.754507640607538D+01
 0.976866632076649D+02 -.253068208802205D+02 -.771741230530652D+02 0.542807858875913D+02
 0.162090965675618D+03 0.115367341650538D+03 0.154315921600594D+01 0.681632228535054D+02
 0.907863382129255D+02 -.790788768368257D+02 0.394793647690165D+02 -.207381339992966D+02
0.213834053680D-05 0.000000000000D+00 0.000000000000D+00 0.106859107774D-06 0.000000000000D+00  7 -4 4 23 -13 13 23 21 0 0.61507631D-01 0.17854297D-01 0.30556793D+05 0.30556793D+05 0.30556793D+05 0.11665956D+01  1  2  2  1  7  1       -4 0.349577134695D-04 0.100000000000D+01
-.112497470031D-06 0.000000000000D+00 -.821179069929D-08 0.106859107774D-06 0.000000000000D+00  7 -4 4 23 -13 13 23 21 2 0.61507631D-01 0.17854297D-01 0.30556793D+05 0.30556793D+05 0.30556793D+05 0.11665956D+01  1  2  3  1  7  1       -4 -.250293518693D-05 0.100000000000D+01
0.135848121195D-06 0.000000000000D+00 0.000000000000D+00 0.106859107774D-06 0.000000000000D+00  7 -4 4 23 -13 13 23 21 2 0.61507631D-01 0.17854297D-01 0.30556793D+05 0.30556793D+05 0.30556793D+05 0.11665956D+01  1  2 15  1  7  1       -4 0.302245946087D-05 0.100000000000D+01
-.603088325519D-06 0.000000000000D+00 0.000000000000D+00 0.106859107774D-06 0.000000000000D+00  7 -4 4 23 -13 13 23 21 2 0.61507631D-01 0.17854297D-01 0.30556793D+05 0.30556793D+05 0.30556793D+05 0.11665956D+01  1  2  4  1  7  1       -4 -.134179994480D-04 0.100000000000D+01
  </mgrwgt>
  </event>
  <event>
  8     66 0.53686478E-06 0.50104444E+03 0.75467711E-02 0.94378321E-01
       -2 -1    0    0    0  501 0.00000000E+00 0.00000000E+00 0.12021677E+04 0.12021677E+04 0.32000000E+00 0.0000E+00 0.9000E+01
        2 -1    0    0  501    0 0.00000000E+00 0.00000000E+00 -.26386874E+03 0.26386893E+03 0.32000000E+00 0.0000E+00 0.9000E+01
       25  2    1    2    0    0 -.34902456E+03 -.30323234E+03 0.80475937E+03 0.97597703E+03 0.30187002E+03 0.0000E+00 0.0000E+00
       23  2    1    2    0    0 0.34902456E+03 0.30323234E+03 0.13353957E+03 0.49005962E+03 0.92507394E+02 0.0000E+00 0.0000E+00
       23  1    3    3    0    0 -.41014218E+02 -.29719190E+01 0.79239442E+02 0.12761324E+03 0.91188000E+02 0.0000E+00 0.9000E+01
      -13  1    4    4    0    0 0.26216668E+03 0.22814794E+03 0.14089304E+03 0.37501162E+03 0.10565837E+00 0.0000E+00 0.9000E+01
       13  1    4    4    0    0 0.86857883E+02 0.75084397E+02 -.73534743E+01 0.11504800E+03 0.10565837E+00 0.0000E+00 0.9000E+01
       23  1    3    3    0    0 -.30801034E+03 -.30026042E+03 0.72551993E+03 0.84836379E+03 0.91188000E+02 0.0000E+00 0.9000E+01
#aMCatNLO 1  0  0  2  1 0.19800452D+02 0.00000000D+00  -5  7  0 0.00000000D+00 0.00000000D+00 0.00000000D+00 0.00000000D+00 0.00000000D+00
  <mgrwgt>
 0.1203262025D-03    4    2    0
 0.563218107963098D+03 0.000000000000000D+00 0.000000000000000D+00 0.563218107963098D+03
 0.563218107963098D+03 0.000000000000000D+00 0.000000000000000D+00 -.563218107963098D+03
 0.100081478106457D+03 -.410142184812985D+02 -.297191898247586D+01 -.317056712641453D+01
 0.370710112585793D+03 0.262166907747722D+03 0.228148143395256D+03 -.129007459941922D+03
 0.155857943313075D+03 0.868576547984151D+02 0.750841972366484D+02 -.105403081653380D+03
 0.499786681920870D+03 -.308010344064839D+03 -.300260421649429D+03 0.237581108721716D+03
 0.000000000000000D+00 -.000000000000000D+00 -.000000000000000D+00 0.000000000000000D+00
 0.592396482135031D+03 0.000000000000000D+00 0.000000000000000D+00 0.592396482135031D+03
 0.566674308670581D+03 0.000000000000000D+00 0.000000000000000D+00 -.566674308670581D+03
 0.998064201662894D+02 -.404262829993674D+02 -.131655207335231D+01 -.317056712641453D+01
 0.376088834675395D+03 0.264363486944150D+03 0.234332741241083D+03 -.129007459941922D+03
 0.157636725216346D+03 0.877797448329663D+02 0.776803959307893D+02 -.105403081653380D+03
 0.493078248220569D+03 -.305090004583362D+03 -.292038034177313D+03 0.237581108721716D+03
 0.324605625270119D+02 -.662694419438707D+01 -.186585509212070D+02 0.257221734644500D+02
0.718538267487D-04 0.000000000000D+00 0.000000000000D+00 0.908310219763D-07 0.000000000000D+00  7 -2 2 23 -13 13 23 21 0 0.18494889D+00 0.40595208D-01 0.25104553D+06 0.25104553D+06 0.25104553D+06 0.10903228D+01  1  2  2  2  7  2        2 0.178191342610D-03 0.100000000000D+01
-.392547073659D-05 0.000000000000D+00 -.275937614262D-06 0.908310219763D-07 0.000000000000D+00  7 -2 2 23 -13 13 23 21 2 0.18494889D+00 0.40595208D-01 0.25104553D+06 0.25104553D+06 0.25104553D+06 0.10903228D+01  1  2  3  2  7  2        2 -.115728044313D-04 0.100000000000D+01
0.445017748636D-05 0.000000000000D+00 0.000000000000D+00 0.908310219763D-07 0.000000000000D+00  7 -2 2 23 -13 13 23 21 2 0.18494889D+00 0.40595208D-01 0.25104553D+06 0.25104553D+06 0.25104553D+06 0.10903228D+01  1  2 15  2  7  2        2 0.131197089955D-04 0.100000000000D+01
-.201524396547D-04 0.000000000000D+00 0.000000000000D+00 0.908310219763D-07 0.000000000000D+00  7 -2 2 23 -13 13 23 21 2 0.18494889D+00 0.40595208D-01 0.25104553D+06 0.25104553D+06 0.25104553D+06 0.10903228D+01  1  2  4  2  7  2        2 -.594120447171D-04 0.100000000000D+01
  </mgrwgt>
  </event>
  <event>
  8     66 0.53686478E-06 0.34643158E+03 0.75467711E-02 0.95240590E-01
       -2 -1    0    0    0  501 0.00000000E+00 0.00000000E+00 0.67475994E+03 0.67476001E+03 0.32000000E+00 0.0000E+00 0.9000E+01
        2 -1    0    0  501    0 0.00000000E+00 0.00000000E+00 -.20048867E+03 0.20048893E+03 0.32000000E+00 0.0000E+00 0.9000E+01
       25  2    1    2    0    0 -.22984695E+03 -.19092957E+03 0.28889951E+03 0.51247829E+03 0.29981219E+03 0.0000E+00 0.0000E+00
       23  2    1    2    0    0 0.22984695E+03 0.19092957E+03 0.18537176E+03 0.36277065E+03 0.89197178E+02 0.0000E+00 0.0000E+00
       23  1    3    3    0    0 0.62471653E+01 -.55757089E+02 0.17210672E+03 0.20269152E+03 0.91188000E+02 0.0000E+00 0.9000E+01
      -11  1    4    4    0    0 0.12541435E+03 0.10010774E+03 0.47347385E+02 0.16730838E+03 0.51099893E-03 0.0000E+00 0.9000E+01
       11  1    4    4    0    0 0.10443260E+03 0.90821827E+02 0.13802437E+03 0.19546227E+03 0.51099893E-03 0.0000E+00 0.9000E+01
       23  1    3    3    0    0 -.23609411E+03 -.13517248E+03 0.11679279E+03 0.30978676E+03 0.91188000E+02 0.0000E+00 0.9000E+01
#aMCatNLO 1  0  0  1  1 0.22241755D+03 0.00000000D+00  -5  7  0 0.00000000D+00 0.00000000D+00 0.00000000D+00 0.00000000D+00 0.00000000D+00
  <mgrwgt>
 0.1227627447D-03    4    2    0
 0.367806834134754D+03 0.000000000000000D+00 0.000000000000000D+00 0.367806834134754D+03
 0.367806834134754D+03 0.000000000000000D+00 0.000000000000000D+00 -.367806834134754D+03
 0.130204581770579D+03 0.624716529989797D+01 -.557570890720491D+02 0.740952205879621D+02
 0.168540883158342D+03 0.125414348050756D+03 0.100107743304327D+03 -.515335844795652D+02
 0.143576929946113D+03 0.104432600728456D+03 0.908218270045075D+02 0.382042204135270D+02
 0.293291273394474D+03 -.236094114079110D+03 -.135172481236786D+03 -.607658565219239D+02
 0.000000000000000D+00 -.000000000000000D+00 -.000000000000000D+00 -.000000000000000D+00
 0.495072545298975D+03 0.000000000000000D+00 0.000000000000000D+00 0.495072545298975D+03
 0.495849474946943D+03 0.000000000000000D+00 0.000000000000000D+00 -.495849474946943D+03
 0.120157606618305D+03 0.153984768812814D+02 -.198842721767034D+02 0.740952205879621D+02
 0.214778632870920D+03 0.139425554571128D+03 0.155031176029605D+03 -.515335844795652D+02
 0.184409855970468D+03 0.116421269192389D+03 0.137816982267341D+03 0.382042204135270D+02
 0.249157018012100D+03 -.216266386244506D+03 -.574484912123993D+02 -.607658565219239D+02
 0.222418906774124D+03 -.549789144002925D+02 -.215515394907844D+03 -.776929647968758D+00
0.114812479057D-04 0.000000000000D+00 0.000000000000D+00 0.204392452346D-06 0.000000000000D+00  7 -2 2 23 -11 11 23 21 0 0.10380925D+00 0.30844436D-01 0.12001484D+06 0.12001484D+06 0.12001484D+06 0.11152773D+01  1  2  2  1  7  1       -2 0.186300663561D-03 0.100000000000D+01
-.635067047974D-06 0.000000000000D+00 -.440910150401D-07 0.204392452346D-06 0.000000000000D+00  7 -2 2 23 -11 11 23 21 2 0.10380925D+00 0.30844436D-01 0.12001484D+06 0.12001484D+06 0.12001484D+06 0.11152773D+01  1  2  3  1  7  1       -2 -.128177154661D-04 0.100000000000D+01
0.736185872598D-06 0.000000000000D+00 0.000000000000D+00 0.204392452346D-06 0.000000000000D+00  7 -2 2 23 -11 11 23 21 2 0.10380925D+00 0.30844436D-01 0.12001484D+06 0.12001484D+06 0.12001484D+06 0.11152773D+01  1  2 15  1  7  1       -2 0.148586217396D-04 0.100000000000D+01
-.324917111978D-05 0.000000000000D+00 0.000000000000D+00 0.204392452346D-06 0.000000000000D+00  7 -2 2 23 -11 11 23 21 2 0.10380925D+00 0.30844436D-01 0.12001484D+06 0.12001484D+06 0.12001484D+06 0.11152773D+01  1  2  4  1  7  1       -2 -.655788251759D-04 0.100000000000D+01
  </mgrwgt>
  </event>
  <event>
  8     66 0.53686478E-06 0.44863502E+03 0.75467711E-02 0.88000340E-01
       -2 -1    0    0    0  501 0.00000000E+00 0.00000000E+00 0.56545418E+03 0.56545427E+03 0.32000000E+00 0.0000E+00 0.9000E+01
        2 -1    0    0  501    0 0.00000000E+00 0.00000000E+00 -.11812228E+04 0.11812228E+04 0.32000000E+00 0.0000E+00 0.9000E+01
       25  2    1    2    0    0 0.21993435E+03 -.36797361E+03 -.10218685E+04 0.11487986E+04 0.30289803E+03 0.0000E+00 0.0000E+00
       23  2    1    2    0    0 -.21993435E+03 0.36797361E+03 0.40609993E+03 0.59787849E+03 0.93626056E+02 0.0000E+00 0.0000E+00
       23  1    3    3    0    0 0.12342184E+03 -.22996540E+03 -.84139308E+03 0.88564926E+03 0.91188000E+02 0.0000E+00 0.9000E+01
      -13  1    4    4    0    0 -.98065702E+02 0.14229370E+03 0.22590217E+03 0.28442254E+03 0.10565837E+00 0.0000E+00 0.9000E+01
       13  1    4    4    0    0 -.12186865E+03 0.22567991E+03 0.18019776E+03 0.31345595E+03 0.10565837E+00 0.0000E+00 0.9000E+01
       23  1    3    3    0    0 0.96512507E+02 -.13800822E+03 -.18047542E+03 0.26314932E+03 0.91188000E+02 0.0000E+00 0.9000E+01
#aMCatNLO 1  0  0  1  1 0.72598180D+03 0.00000000D+00  -5  7  0 0.00000000D+00 0.00000000D+00 0.00000000D+00 0.00000000D+00 0.00000000D+00
  <mgrwgt>
 0.2873538151D-03    3    2    0
 0.817268288776941D+03 0.000000000000000D+00 0.000000000000000D+00 0.817268288776941D+03
 0.817268288776941D+03 0.000000000000000D+00 0.000000000000000D+00 -.817268288776941D+03
 0.629438236711549D+03 0.123421840053759D+03 -.229965397033423D+03 -.565473437091035D+03
 0.389038559897179D+03 -.980656715793494D+02 0.142293597003177D+03 0.348549361491969D+03
 0.402845966566279D+03 -.121868675817356D+03 0.225680016649255D+03 0.310646790935358D+03
 0.213213814378875D+03 0.965125073429465D+02 -.138008216619009D+03 -.937227153362921D+02
 0.000000000000000D+00 0.000000000000000D+00 -.000000000000000D+00 -.000000000000000D+00
 0.107068368614532D+04 0.000000000000000D+00 0.000000000000000D+00 0.107068368614532D+04
 0.164107959838860D+04 0.000000000000000D+00 0.000000000000000D+00 -.164107959838860D+04
 0.631308183717176D+03 -.143877444833778D+03 -.223100525093140D+03 -.565473437091035D+03
 0.470849677522216D+03 -.280376330742076D+03 0.146975761899455D+03 0.348549361491969D+03
 0.497477239208201D+03 -.312752223191884D+03 0.230582353401799D+03 0.310646790935358D+03
 0.188872490411516D+03 0.112634993013489D+02 -.135818822347012D+03 -.937227153362921D+02
 0.923255693674804D+03 0.725742499466389D+03 -.186387678611020D+02 -.570395912243278D+03
0.952786352656D-04 0.000000000000D+00 0.000000000000D+00 0.398591219328D-07 0.000000000000D+00  7 -2 2 23 -13 13 23 21 0 0.86992961D-01 0.18172659D+00 0.20127338D+06 0.20127338D+06 0.20127338D+06 0.10976138D+01  1  2  2  1  7  1       -2 0.278383661226D-03 0.100000000000D+01
-.297822944407D-05 0.000000000000D+00 -.365895046861D-06 0.398591219328D-07 0.000000000000D+00  7 -2 2 23 -13 13 23 21 2 0.86992961D-01 0.18172659D+00 0.20127338D+06 0.20127338D+06 0.20127338D+06 0.10976138D+01  1  2  3  1  7  1       -2 -.104834794143D-04 0.100000000000D+01
0.552654144099D-05 0.000000000000D+00 0.000000000000D+00 0.398591219328D-07 0.000000000000D+00  7 -2 2 23 -13 13 23 21 2 0.86992961D-01 0.18172659D+00 0.20127338D+06 0.20127338D+06 0.20127338D+06 0.10976138D+01  1  2 15  1  7  1       -2 0.194536332801D-04 0.100000000000D+01
  </mgrwgt>
  </event>
  <event>
  8     66 0.53686478E-06 0.75411970E+02 0.75467711E-02 0.10736697E+00
       -2 -1    0    0    0  501 0.00000000E+00 0.00000000E+00 0.56793049E+02 0.56793950E+02 0.32000000E+00 0.0000E+00 0.9000E+01
        2 -1    0    0  501    0 0.00000000E+00 0.00000000E+00 -.76309147E+03 0.76309154E+03 0.32000000E+00 0.0000E+00 0.9000E+01
       25  2    1    2    0    0 0.32491105E+02 -.81683803E+01 -.41915187E+03 0.51647288E+03 0.29988923E+03 0.0000E+00 0.0000E+00
       23  2    1    2    0    0 -.32491105E+02 0.81683803E+01 -.28714655E+03 0.30341261E+03 0.92106869E+02 0.0000E+00 0.0000E+00
       23  1    3    3    0    0 -.71280462E+02 -.72002923E+02 -.27465689E+03 0.30662189E+03 0.91188000E+02 0.0000E+00 0.9000E+01
      -11  1    4    4    0    0 -.17919304E+02 -.19832832E+01 -.24868139E+01 0.18199427E+02 0.51099893E-03 0.0000E+00 0.9000E+01
       11  1    4    4    0    0 -.14571800E+02 0.10151663E+02 -.28465973E+03 0.28521318E+03 0.51099893E-03 0.0000E+00 0.9000E+01
       23  1    3    3    0    0 0.10377157E+03 0.63834542E+02 -.14449498E+03 0.20985099E+03 0.91188000E+02 0.0000E+00 0.9000E+01
#aMCatNLO 1  0  0  1  2 0.46604483D+02 0.00000000D+00  -5  7  0 0.00000000D+00 0.00000000D+00 0.00000000D+00 0.00000000D+00 0.00000000D+00
  <mgrwgt>
 0.6207280814D-03    9    2    0
 0.208179461307667D+03 0.000000000000000D+00 0.000000000000000D+00 0.208179461307667D+03
 0.208179461307667D+03 0.000000000000000D+00 0.000000000000000D+00 -.208179461307667D+03
 0.137874096316360D+03 -.712804620298447D+02 -.720029225164966D+02 -.207048297010186D+02
 0.316193846663644D+02 -.179193044783236D+02 -.198328321324932D+01 0.259759619915932D+02
 0.787479847463439D+02 -.145718002972394D+02 0.101516635200163D+02 -.767193030826282D+02
 0.168117456886266D+03 0.103771566805408D+03 0.638345422097296D+02 0.714481707920536D+02
 0.000000000000000D+00 -.000000000000000D+00 -.000000000000000D+00 0.000000000000000D+00
 0.244312341541183D+03 0.000000000000000D+00 0.000000000000000D+00 0.244312341541183D+03
 0.225068152213189D+03 0.000000000000000D+00 0.000000000000000D+00 -.225068152213189D+03
 0.127677620491246D+03 -.587785643726689D+02 -.640524303024199D+02 -.207048297010186D+02
 0.300052084842693D+02 -.150180829535820D+02 -.138272177622211D+00 0.259759619915932D+02
 0.784732050459961D+02 -.716999078174189D+01 0.148587912326851D+02 -.767193030826282D+02
 0.182803069274145D+03 0.120292538903051D+03 0.743409360095461D+02 0.714481707920536D+02
 0.504213904587156D+02 -.393259007950582D+02 -.250090247621891D+02 0.192441893279947D+02
0.151830615927D-05 0.000000000000D+00 0.000000000000D+00 0.146410080172D-06 0.000000000000D+00  7 -2 2 23 -11 11 23 21 0 0.87374666D-02 0.11739876D+00 0.26289098D+05 0.26289098D+05 0.26289098D+05 0.11726942D+01  1  2  2  1  7  1       -2 0.502931403279D-03 0.100000000000D+01
-.779432688485D-07 0.000000000000D+00 -.583069543077D-08 0.146410080172D-06 0.000000000000D+00  7 -2 2 23 -11 11 23 21 2 0.87374666D-02 0.11739876D+00 0.26289098D+05 0.26289098D+05 0.26289098D+05 0.11726942D+01  1  2  3  1  7  1       -2 -.355056591756D-04 0.100000000000D+01
0.933293136229D-07 0.000000000000D+00 0.000000000000D+00 0.146410080172D-06 0.000000000000D+00  7 -2 2 23 -11 11 23 21 2 0.87374666D-02 0.11739876D+00 0.26289098D+05 0.26289098D+05 0.26289098D+05 0.11726942D+01  1  2 15  1  7  1       -2 0.425144961142D-04 0.100000000000D+01
0.152871878412D-05 0.000000000000D+00 0.000000000000D+00 0.146410080172D-06 0.000000000000D+00  7 -2 2 23 -11 11 23 21 2 0.10560801D-01 0.11739876D+00 0.34665069D+05 0.34665069D+05 0.34665069D+05 0.11615564D+01  1  2 12  1  7  1       -2 0.514594794226D-03 0.100000000000D+01
-.155807451176D-05 0.000000000000D+00 0.000000000000D+00 0.146410080172D-06 0.000000000000D+00  7 -2 2 23 -11 11 23 21 2 0.87374666D-02 0.11739876D+00 0.26289098D+05 0.26289098D+05 0.26289098D+05 0.11726942D+01  1  2  4  1  7  1       -2 -.709752919042D-03 0.100000000000D+01
-.300072260306D-05 0.000000000000D+00 -.943924099031D-06 0.146410080172D-06 0.000000000000D+00  7 -2 2 23 -11 11 23 21 2 0.11079946D-01 0.11739876D+00 0.26289098D+05 0.26289098D+05 0.26289098D+05 0.11726942D+01  1  2  5  1  7  1       -2 -.953556898308D-03 0.100000000000D+01
0.316134155034D-05 0.000000000000D+00 0.917910600778D-06 0.146410080172D-06 0.000000000000D+00  7 -2 2 23 -11 11 23 21 2 0.87374666D-02 0.11739876D+00 0.26289098D+05 0.26289098D+05 0.26289098D+05 0.11726942D+01  1  2  6  1  7  1       -2 0.144009248370D-02 0.100000000000D+01
0.419705978669D-07 0.000000000000D+00 0.000000000000D+00 0.146410080172D-06 0.000000000000D+00  7 21 2 23 -11 11 23 2 2 0.10560801D-01 0.11739876D+00 0.34665069D+05 0.34665069D+05 0.34665069D+05 0.11615564D+01  1  2 12  3  7  1       -2 0.208579651638D-03 0.100000000000D+01
-.832356474742D-07 0.000000000000D+00 -.307561514355D-07 0.146410080172D-06 0.000000000000D+00  7 21 2 23 -11 11 23 2 2 0.11079946D-01 0.11739876D+00 0.26289098D+05 0.26289098D+05 0.26289098D+05 0.11726942D+01  1  2  5  3  7  1       -2 -.389169271006D-03 0.100000000000D+01
  </mgrwgt>
  </event>
  <event>
  8     66 0.53686478E-06 0.10953127E+03 0.75467711E-02 0.10528980E+00
       -2 -1    0    0    0  501 0.00000000E+00 0.00000000E+00 0.64731758E+02 0.64732549E+02 0.32000000E+00 0.0000E+00 0.9000E+01
        2 -1    0    0  501    0 0.00000000E+00 0.00000000E+00 -.15334902E+04 0.15334903E+04 0.32000000E+00 0.0000E+00 0.9000E+01
       25  2    1    2    0    0 0.95911590E+02 0.58832333E+02 -.37045716E+03 0.49032283E+03 0.30086159E+03 0.0000E+00 0.0000E+00
       23  2    1    2    0    0 -.95911590E+02 -.58832333E+02 -.10983013E+04 0.11079000E+04 0.92283885E+02 0.0000E+00 0.0000E+00
       23  1    3    3    0    0 -.54327799E+02 -.25584461E+02 -.21435484E+03 0.24056044E+03 0.91188000E+02 0.0000E+00 0.9000E+01
      -11  1    4    4    0    0 -.49156382E+02 -.50141694E+01 -.17475528E+03 0.18160644E+03 0.51099893E-03 0.0000E+00 0.9000E+01
       11  1    4    4    0    0 -.46755208E+02 -.53818164E+02 -.92354603E+03 0.92629353E+03 0.51099893E-03 0.0000E+00 0.9000E+01
       23  1    3    3    0    0 0.15023939E+03 0.84416795E+02 -.15610232E+03 0.24976240E+03 0.91188000E+02 0.0000E+00 0.9000E+01
#aMCatNLO 1  0  0  2  1 0.59502087D+01 0.00000000D+00  -5  7  0 0.00000000D+00 0.00000000D+00 0.00000000D+00 0.00000000D+00 0.00000000D+00
  <mgrwgt>
 0.3071360616D-03   11    2    0
 0.315065353284676D+03 0.000000000000000D+00 0.000000000000000D+00 0.315065353284676D+03
 0.315065353284676D+03 0.000000000000000D+00 0.000000000000000D+00 -.315065353284676D+03
 0.110506737203579D+03 -.543277988809365D+02 -.255844614199419D+02 0.170415147796469D+02
 0.532814217596684D+02 -.491563822872849D+02 -.501416939738334D+01 -.199353477625125D+02
 0.196716969767195D+03 -.467552078062683D+02 -.538181640447297D+02 -.183344271675542D+03
 0.269625577838910D+03 0.150239388974490D+03 0.844167948620550D+02 0.186238104658407D+03
 0.000000000000000D+00 -.000000000000000D+00 -.000000000000000D+00 -.000000000000000D+00
 0.315425938672184D+03 0.000000000000000D+00 0.000000000000000D+00 0.315425938672184D+03
 0.340621244302944D+03 0.000000000000000D+00 0.000000000000000D+00 -.340621244302944D+03
 0.109967281560232D+03 -.535478430629170D+02 -.248951189406999D+02 0.170415147796469D+02
 0.529046394090233D+02 -.487807351399907D+02 -.468216400700949D+01 -.199353477625125D+02
 0.196058379770117D+03 -.453657133852751D+02 -.525900976505427D+02 -.183344271675542D+03
 0.271228498568141D+03 0.152152731353599D+03 0.861078498536093D+02 0.186238104658407D+03
 0.258883836676156D+02 -.445843976541574D+01 -.394046925535727D+01 -.251953056307601D+02
0.183304973081D-05 0.000000000000D+00 0.000000000000D+00 0.139194514022D-06 0.000000000000D+00  7 -2 2 23 -11 11 23 21 0 0.99587954D-02 0.23592164D+00 0.45125993D+05 0.45125993D+05 0.45125993D+05 0.11512341D+01  1  2  2  2  7  2        2 0.179097432902D-03 0.100000000000D+01
-.825982032300D-07 0.000000000000D+00 -.703939361939D-08 0.139194514022D-06 0.000000000000D+00  7 -2 2 23 -11 11 23 21 2 0.99587954D-02 0.23592164D+00 0.45125993D+05 0.45125993D+05 0.45125993D+05 0.11512341D+01  1  2  3  2  7  2        2 -.106957937212D-04 0.100000000000D+01
0.111124698836D-06 0.000000000000D+00 0.000000000000D+00 0.139194514022D-06 0.000000000000D+00  7 -2 2 23 -11 11 23 21 2 0.99587954D-02 0.23592164D+00 0.45125993D+05 0.45125993D+05 0.45125993D+05 0.11512341D+01  1  2 15  2  7  2        2 0.143897422655D-04 0.100000000000D+01
0.642581498427D-04 0.000000000000D+00 0.000000000000D+00 0.139194514022D-06 0.000000000000D+00  7 -2 2 23 -11 11 23 21 2 0.99587954D-02 0.25518676D+00 0.46274049D+05 0.46274049D+05 0.46274049D+05 0.11502655D+01  1  2 12  2  7  2        2 0.713303328511D-02 0.100000000000D+01
-.860402630551D-04 0.000000000000D+00 0.000000000000D+00 0.139194514022D-06 0.000000000000D+00  7 -2 2 23 -11 11 23 21 2 0.99587954D-02 0.23592164D+00 0.45125993D+05 0.45125993D+05 0.45125993D+05 0.11512341D+01  1  2  4  2  7  2        2 -.111415123982D-01 0.100000000000D+01
-.956341211437D-04 0.000000000000D+00 -.264291744370D-05 0.139194514022D-06 0.000000000000D+00  7 -2 2 23 -11 11 23 21 2 0.99587954D-02 0.25516405D+00 0.45125993D+05 0.45125993D+05 0.45125993D+05 0.11512341D+01  1  2  5  2  7  2        2 -.106391520407D-01 0.100000000000D+01
0.955555756187D-04 0.000000000000D+00 0.263481433068D-05 0.139194514022D-06 0.000000000000D+00  7 -2 2 23 -11 11 23 21 2 0.99587954D-02 0.23592164D+00 0.45125993D+05 0.45125993D+05 0.45125993D+05 0.11512341D+01  1  2  6  2  7  2        2 0.123736677768D-01 0.100000000000D+01
0.216579561318D-04 0.000000000000D+00 0.000000000000D+00 0.139194514022D-06 0.278317707929D-07  7 -2 2 23 -11 11 23 21 2 0.99701931D-02 0.25505794D+00 0.46274049D+05 0.46274049D+05 0.46274049D+05 0.11502655D+01  1  2 11  2  7  2        2 0.240239544113D-02 0.100000000000D+01
0.927302209771D-06 0.000000000000D+00 0.000000000000D+00 0.139194514022D-06 0.000000000000D+00  7 -2 21 23 -11 11 23 -2 2 0.99587954D-02 0.25518676D+00 0.46274049D+05 0.46274049D+05 0.46274049D+05 0.11502655D+01  1  2 12  4  7  2        2 0.329399958328D-04 0.100000000000D+01
-.132023988987D-05 0.000000000000D+00 -.346752195474D-07 0.139194514022D-06 0.000000000000D+00  7 -2 21 23 -11 11 23 -2 2 0.99587954D-02 0.25516405D+00 0.45125993D+05 0.45125993D+05 0.45125993D+05 0.11512341D+01  1  2  5  4  7  2        2 -.470772402094D-04 0.100000000000D+01
0.282854413208D-06 0.000000000000D+00 0.000000000000D+00 0.139194514022D-06 0.362841392264D-09  7 -2 21 23 -11 11 23 -2 2 0.99701931D-02 0.25505794D+00 0.46274049D+05 0.46274049D+05 0.46274049D+05 0.11502655D+01  1  2 11  4  7  2        2 0.100498603865D-04 0.100000000000D+01
  </mgrwgt>
  </event>
  <event>
  8     66 0.53686478E-06 0.19793012E+03 0.75467711E-02 0.93316904E-01
       -2 -1    0    0    0  501 0.00000000E+00 0.00000000E+00 0.27508588E+03 0.27508607E+03 0.32000000E+00 0.0000E+00 0.9000E+01
        2 -1    0    0  501    0 0.00000000E+00 0.00000000E+00 -.13886198E+04 0.13886198E+04 0.32000000E+00 0.0000E+00 0.9000E+01
       25  2    1    2    0    0 -.62461597E+02 -.44199529E+03 -.10797513E+04 0.12064718E+04 0.30074906E+03 0.0000E+00 0.0000E+00
       23  2    1    2    0    0 0.62461597E+02 0.44199529E+03 -.33782605E+02 0.45723411E+03 0.93061722E+02 0.0000E+00 0.0000E+00
       23  1    3    3    0    0 -.81185250E+02 -.14583734E+03 -.21176368E+03 0.28463781E+03 0.91188000E+02 0.0000E+00 0.9000E+01
      -13  1    4    4    0    0 0.37379472E+01 0.11171346E+02 -.18778169E+02 0.22167589E+02 0.10565837E+00 0.0000E+00 0.9000E+01
       13  1    4    4    0    0 0.58723650E+02 0.43082394E+03 -.15004437E+02 0.43506652E+03 0.10565837E+00 0.0000E+00 0.9000E+01
       23  1    3    3    0    0 0.18723654E+02 -.29615794E+03 -.86798760E+03 0.92183395E+03 0.91188000E+02 0.0000E+00 0.9000E+01
#aMCatNLO 1  0  0  1  2 0.16784024D+03 0.00000000D+00  -5  7  0 0.00000000D+00 0.00000000D+00 0.00000000D+00 0.00000000D+00 0.00000000D+00
  <mgrwgt>
 0.3529605493D-03    9    2    0
 0.618053298747154D+03 0.000000000000000D+00 0.000000000000000D+00 0.618053298747154D+03
 0.618053298747154D+03 0.000000000000000D+00 0.000000000000000D+00 -.618053298747154D+03
 0.192335810614904D+03 -.811852503552935D+02 -.145837344754605D+03 -.286048370134665D+02
 0.129190554044665D+02 0.373787634527884D+01 0.111708046028871D+02 -.530503510781933D+01
 0.572050724983314D+03 0.587237204145884D+02 0.430824483661788D+03 0.371730844687602D+03
 0.458801006491624D+03 0.187236535954263D+02 -.296157943510071D+03 -.337820972566316D+03
 0.000000000000000D+00 0.000000000000000D+00 0.000000000000000D+00 0.000000000000000D+00
 0.745078279176023D+03 0.000000000000000D+00 0.000000000000000D+00 0.745078279176023D+03
 0.681758273121707D+03 0.000000000000000D+00 0.000000000000000D+00 -.681758273121707D+03
 0.216130273572175D+03 -.885714983533875D+02 -.172435195912123D+03 -.286048370134665D+02
 0.114403191247475D+02 0.329738841172296D+01 0.958460921702608D+01 -.530503510781933D+01
 0.518801509861413D+03 0.389979574987427D+02 0.359792085868005D+03 0.371730844687602D+03
 0.501077242092427D+03 0.136627909974919D+01 -.358661783543664D+03 -.337820972566316D+03
 0.179387207646968D+03 0.449098733431727D+02 0.161720284370756D+03 0.633200060543159D+02
0.266438400682D-04 0.000000000000D+00 0.000000000000D+00 0.387907408106D-06 0.000000000000D+00  7 -2 2 23 -13 13 23 21 0 0.42320922D-01 0.21363383D+00 0.22431043D+06 0.22431043D+06 0.22431043D+06 0.10940195D+01  1  2  2  1  7  1       -2 0.265505005764D-03 0.100000000000D+01
-.135269817509D-05 0.000000000000D+00 -.102319361346D-06 0.387907408106D-06 0.000000000000D+00  7 -2 2 23 -13 13 23 21 2 0.42320922D-01 0.21363383D+00 0.22431043D+06 0.22431043D+06 0.22431043D+06 0.10940195D+01  1  2  3  1  7  1       -2 -.161334378771D-04 0.100000000000D+01
0.162787821015D-05 0.000000000000D+00 0.000000000000D+00 0.387907408106D-06 0.000000000000D+00  7 -2 2 23 -13 13 23 21 2 0.42320922D-01 0.21363383D+00 0.22431043D+06 0.22431043D+06 0.22431043D+06 0.10940195D+01  1  2 15  1  7  1       -2 0.194154708408D-04 0.100000000000D+01
0.199319232122D-04 0.000000000000D+00 0.000000000000D+00 0.387907408106D-06 0.000000000000D+00  7 -2 2 23 -13 13 23 21 2 0.52846411D-01 0.21363383D+00 0.31594485D+06 0.31594485D+06 0.31594485D+06 0.10828919D+01  1  2 12  1  7  1       -2 0.148877864239D-03 0.100000000000D+01
-.217502311171D-04 0.000000000000D+00 0.000000000000D+00 0.387907408106D-06 0.000000000000D+00  7 -2 2 23 -13 13 23 21 2 0.42320922D-01 0.21363383D+00 0.22431043D+06 0.22431043D+06 0.22431043D+06 0.10940195D+01  1  2  4  1  7  1       -2 -.259411899122D-03 0.100000000000D+01
-.384665941603D-04 0.000000000000D+00 -.140408041498D-04 0.387907408106D-06 0.000000000000D+00  7 -2 2 23 -13 13 23 21 2 0.55943542D-01 0.21363383D+00 0.22431043D+06 0.22431043D+06 0.22431043D+06 0.10940195D+01  1  2  5  1  7  1       -2 -.265142172561D-03 0.100000000000D+01
0.412959331549D-04 0.000000000000D+00 0.135112836195D-04 0.387907408106D-06 0.000000000000D+00  7 -2 2 23 -13 13 23 21 2 0.42320922D-01 0.21363383D+00 0.22431043D+06 0.22431043D+06 0.22431043D+06 0.10940195D+01  1  2  6  1  7  1       -2 0.492530694872D-03 0.100000000000D+01
0.617670245499D-06 0.000000000000D+00 0.000000000000D+00 0.387907408106D-06 0.000000000000D+00  7 21 2 23 -13 13 23 2 2 0.52846411D-01 0.21363383D+00 0.31594485D+06 0.31594485D+06 0.31594485D+06 0.10828919D+01  1  2 12  3  7  1       -2 0.475786212875D-04 0.100000000000D+01
-.112997275481D-05 0.000000000000D+00 -.515027271568D-06 0.387907408106D-06 0.000000000000D+00  7 21 2 23 -13 13 23 2 2 0.55943542D-01 0.21363383D+00 0.22431043D+06 0.22431043D+06 0.22431043D+06 0.10940195D+01  1  2  5  3  7  1       -2 -.802595981570D-04 0.100000000000D+01
  </mgrwgt>
  </event>
  <event>
  9     66 -.53686478E-06 0.23728923E+03 0.75467711E-02 0.10367808E+00
       -2 -1    0    0    0  501 0.00000000E+00 0.00000000E+00 0.26001312E+03 0.26001332E+03 0.32000000E+00 0.0000E+00 0.9000E+01
        2 -1    0    0  502    0 0.00000000E+00 0.00000000E+00 -.26820062E+03 0.26820081E+03 0.32000000E+00 0.0000E+00 0.9000E+01
       25  2    1    2    0    0 0.30878532E+02 -.12580794E+03 0.89423582E+02 0.33889142E+03 0.30011614E+03 0.0000E+00 0.0000E+00
       23  2    1    2    0    0 -.24450693E+02 0.11973002E+03 -.92972767E+02 0.17930599E+03 0.92593664E+02 0.0000E+00 0.0000E+00
       23  1    3    3    0    0 -.67070574E+02 -.15035434E+03 0.30650809E+02 0.19068197E+03 0.91188000E+02 0.0000E+00 0.9000E+01
      -13  1    4    4    0    0 -.42604206E+02 0.17148913E+02 -.46097027E+02 0.65070352E+02 0.10565837E+00 0.0000E+00 0.9000E+01
       13  1    4    4    0    0 0.18153513E+02 0.10258111E+03 -.46875740E+02 0.11423563E+03 0.10565837E+00 0.0000E+00 0.9000E+01
       23  1    3    3    0    0 0.97949106E+02 0.24546400E+02 0.58772772E+02 0.14820946E+03 0.91188000E+02 0.0000E+00 0.9000E+01
       21  1    1    2  502  501 -.64278390E+01 0.60779165E+01 -.46383112E+01 0.10016717E+02 0.75000000E+00 0.0000E+00 0.9000E+01
#aMCatNLO 2  0  0  2  1 0.88463655D+01 0.00000000D+00  -5  7  0 0.00000000D+00 0.00000000D+00 0.00000000D+00 0.00000000D+00 0.00000000D+00
  <mgrwgt>
 -.3873971759D-04    3    2    0
 0.259054869526391D+03 0.000000000000000D+00 0.000000000000000D+00 0.259054869526391D+03
 0.259054869526391D+03 0.000000000000000D+00 0.000000000000000D+00 -.259054869526391D+03
 0.189992504280925D+03 -.694331167940538D+02 -.148120413290505D+03 0.319575624516433D+02
 0.654952522943494D+02 -.434121871371794D+02 0.179127432485708D+02 -.456524228314093D+02
 0.114912072328183D+03 0.167342176304079D+02 0.103923312673427D+03 -.460944184260620D+02
 0.147709910149323D+03 0.961110863008253D+02 0.262843573685076D+02 0.597892788058280D+02
 0.000000000000000D+00 -.000000000000000D+00 0.000000000000000D+00 -.000000000000000D+00
 0.261786276041760D+03 0.000000000000000D+00 0.000000000000000D+00 0.261786276041760D+03
 0.266355843966551D+03 0.000000000000000D+00 0.000000000000000D+00 -.266355843966551D+03
 0.190896379044817D+03 -.670705728831657D+02 -.150354343614329D+03 0.319575624516433D+02
 0.647560793824383D+02 -.426042756858103D+02 0.171488133669461D+02 -.456524228314093D+02
 0.113917312976378D+03 0.181535803226532D+02 0.102581218101513D+03 -.460944184260620D+02
 0.148615484932844D+03 0.979491072787024D+02 0.245463956826397D+02 0.597892788058280D+02
 0.995686367183310D+01 -.642783903237970D+01 0.607791646323050D+01 -.456956792479086D+01
-.183831402566D-05 0.000000000000D+00 0.000000000000D+00 0.823983589554D-07 0.000000000000D+00  7 -2 2 23 -13 13 23 21 2 0.39582556D-01 0.41466842D-01 0.58372513D+05 0.58372513D+05 0.58372513D+05 0.11414277D+01  1  2 13  2  7  2        2 -.213407295935D-03 0.100000000000D+01
-.493008380338D-05 0.000000000000D+00 0.000000000000D+00 0.823983589554D-07 0.000000000000D+00  7 -2 2 23 -13 13 23 21 2 0.39582556D-01 0.40128505D-01 0.56306178D+05 0.56306178D+05 0.56306178D+05 0.11427854D+01  1  2  8  2  7  2        2 -.594551739826D-03 0.100000000000D+01
0.671891055115D-05 0.000000000000D+00 0.000000000000D+00 0.823983589554D-07 0.732178275969D-08  7 -2 2 23 -13 13 23 21 2 0.39999904D-01 0.41259451D-01 0.58372513D+05 0.58372513D+05 0.58372513D+05 0.11414277D+01  1  2  1  2  7  2        2 0.769219318175D-03 0.100000000000D+01
  </mgrwgt>
  </event>
  <event>
  7     66 0.53686478E-06 0.12509521E+03 0.75467711E-02 0.10154713E+00
       -2 -1    0    0    0  501 0.00000000E+00 0.00000000E+00 0.70000709E+02 0.70001440E+02 0.32000000E+00 0.0000E+00 0.9000E+01
        2 -1    0    0  501    0 0.00000000E+00 0.00000000E+00 -.13565897E+04 0.13565898E+04 0.32000000E+00 0.0000E+00 0.9000E+01
       25  2    1    2    0    0 -.20450920E+03 0.11121338E+03 -.72457201E+03 0.81684178E+03 0.29670435E+03 0.0000E+00 0.0000E+00
       23  1    3    3    0    0 -.47787460E+02 -.14988397E+02 -.46261057E+03 0.47416462E+03 0.91188000E+02 0.0000E+00 0.9000E+01
      -11  1    1    2    0    0 0.12303838E+03 -.66426918E+02 -.28313225E+03 0.31577658E+03 0.51099893E-03 0.0000E+00 0.9000E+01
       11  1    1    2    0    0 0.81470821E+02 -.44786465E+02 -.27888476E+03 0.29397284E+03 0.51099893E-03 0.0000E+00 0.9000E+01
       23  1    3    3    0    0 -.15672174E+03 0.12620178E+03 -.26196144E+03 0.34267717E+03 0.91188000E+02 0.0000E+00 0.9000E+01
#aMCatNLO 1  0  0  1  2 0.92532267D+01 0.00000000D+00  -5  7  0 0.00000000D+00 0.00000000D+00 0.00000000D+00 0.00000000D+00 0.00000000D+00
  <mgrwgt>
 0.7705437029D-05   11    2    0
 0.308160333127191D+03 0.000000000000000D+00 0.000000000000000D+00 0.308160333127191D+03
 0.308160333127191D+03 0.000000000000000D+00 0.000000000000000D+00 -.308160333127191D+03
 0.131829740066547D+03 -.477874595672141D+02 -.149883966686204D+02 -.809662626989123D+02
 0.139877265497823D+03 0.123038378908630D+03 -.664269177712614D+02 0.383031514305143D+01
 0.982751410093613D+02 0.814708214544074D+02 -.447864651092070D+02 -.318540599449380D+02
 0.246338519680650D+03 -.156721740795823D+03 0.126201779549089D+03 0.108990007500799D+03
 0.000000000000000D+00 -.000000000000000D+00 0.000000000000000D+00 0.000000000000000D+00
 0.321667972059374D+03 0.000000000000000D+00 0.000000000000000D+00 0.321667972059374D+03
 0.309783846919750D+03 0.000000000000000D+00 0.000000000000000D+00 -.309783846919750D+03
 0.131277873388193D+03 -.459786816318696D+02 -.157814396457480D+02 -.809662626989123D+02
 0.141985283743156D+03 0.124976090832556D+03 -.672764907359345D+02 0.383031514305143D+01
 0.996764500690157D+02 0.828316732576202D+02 -.453831187637883D+02 -.318540599449380D+02
 0.243450517522429D+03 -.153354602947419D+03 0.124725487201909D+03 0.108990007500799D+03
 0.150616942563291D+02 -.847447951088722D+01 0.371556194356177D+01 0.118841251396241D+02
0.757650024790D-07 0.000000000000D+00 0.000000000000D+00 0.440575134248D-11 0.000000000000D+00  7 -2 2 23 -11 11 23 21 0 0.10769399D-01 0.20870617D+00 0.77770281D+05 0.77770281D+05 0.77770281D+05 0.11307937D+01  1  2  2  1  7  1       -2 0.812939875715D-05 0.100000000000D+01
-.415812971816D-08 0.000000000000D+00 -.290957558903D-09 0.440575134248D-11 0.000000000000D+00  7 -2 2 23 -11 11 23 21 2 0.10769399D-01 0.20870617D+00 0.77770281D+05 0.77770281D+05 0.77770281D+05 0.11307937D+01  1  2  3  1  7  1       -2 -.570498603476D-06 0.100000000000D+01
0.485760395044D-08 0.000000000000D+00 0.000000000000D+00 0.440575134248D-11 0.000000000000D+00  7 -2 2 23 -11 11 23 21 2 0.10769399D-01 0.20870617D+00 0.77770281D+05 0.77770281D+05 0.77770281D+05 0.11307937D+01  1  2 15  1  7  1       -2 0.666467007478D-06 0.100000000000D+01
0.440472548675D-06 0.000000000000D+00 0.000000000000D+00 0.440575134248D-11 0.000000000000D+00  7 -2 2 23 -11 11 23 21 2 0.11269093D-01 0.20870617D+00 0.80276838D+05 0.80276838D+05 0.80276838D+05 0.11296366D+01  1  2 12  1  7  1       -2 0.561968746812D-04 0.100000000000D+01
-.449048699447D-06 0.000000000000D+00 0.000000000000D+00 0.440575134248D-11 0.000000000000D+00  7 -2 2 23 -11 11 23 21 2 0.10769399D-01 0.20870617D+00 0.77770281D+05 0.77770281D+05 0.77770281D+05 0.11307937D+01  1  2  4  1  7  1       -2 -.616098278052D-04 0.100000000000D+01
-.202047046477D-05 0.000000000000D+00 -.206876069068D-06 0.440575134248D-11 0.000000000000D+00  7 -2 2 23 -11 11 23 21 2 0.11297768D-01 0.20870617D+00 0.77770281D+05 0.77770281D+05 0.77770281D+05 0.11307937D+01  1  2  5  1  7  1       -2 -.257361771206D-03 0.100000000000D+01
0.202828919951D-05 0.000000000000D+00 0.206639001478D-06 0.440575134248D-11 0.000000000000D+00  7 -2 2 23 -11 11 23 21 2 0.10769399D-01 0.20870617D+00 0.77770281D+05 0.77770281D+05 0.77770281D+05 0.11307937D+01  1  2  6  1  7  1       -2 0.278282842094D-03 0.100000000000D+01
0.540510558981D-10 0.000000000000D+00 0.000000000000D+00 0.440575134248D-11 0.350520269717D-12  7 -2 2 23 -11 11 23 21 2 0.11241456D-01 0.20980572D+00 0.80276838D+05 0.80276838D+05 0.80276838D+05 0.11296366D+01  1  2 11  1  7  1       -2 0.686037600246D-08 0.100000000000D+01
0.795431434970D-08 0.000000000000D+00 0.000000000000D+00 0.440575134248D-11 0.000000000000D+00  7 21 2 23 -11 11 23 2 2 0.11269093D-01 0.20870617D+00 0.80276838D+05 0.80276838D+05 0.80276838D+05 0.11296366D+01  1  2 12  3  7  1       -2 0.145529478394D-04 0.100000000000D+01
-.167424802349D-07 0.000000000000D+00 -.173141383084D-08 0.440575134248D-11 0.000000000000D+00  7 21 2 23 -11 11 23 2 2 0.11297768D-01 0.20870617D+00 0.77770281D+05 0.77770281D+05 0.77770281D+05 0.11307937D+01  1  2  5  3  7  1       -2 -.305886338295D-04 0.100000000000D+01
0.427104975409D-12 0.000000000000D+00 0.000000000000D+00 0.440575134248D-11 0.265596676907D-14  7 21 2 23 -11 11 23 2 2 0.11241456D-01 0.20980572D+00 0.80276838D+05 0.80276838D+05 0.80276838D+05 0.11296366D+01  1  2 11  3  7  1       -2 0.777717542019D-09 0.100000000000D+01
  </mgrwgt>
  </event>
  <event>
  8     66 0.53686478E-06 0.13940326E+03 0.75467711E-02 0.10512235E+00
       -2 -1    0    0    0  501 0.00000000E+00 0.00000000E+00 0.21689974E+02 0.21692335E+02 0.32000000E+00 0.0000E+00 0.9000E+01
        2 -1    0    0  501    0 0.00000000E+00 0.00000000E+00 -.21747460E+04 0.21747460E+04 0.32000000E+00 0.0000E+00 0.9000E+01
       25  2    1    2    0    0 0.29748384E+01 0.59657339E+01 -.19599369E+04 0.19826709E+04 0.29931067E+03 0.0000E+00 0.0000E+00
       23  2    1    2    0    0 -.29748384E+01 -.59657339E+01 -.19311914E+03 0.21376745E+03 0.91417081E+02 0.0000E+00 0.0000E+00
       23  1    3    3    0    0 0.32024559E+02 -.35337179E+00 -.22244703E+03 0.24253583E+03 0.91188000E+02 0.0000E+00 0.9000E+01
      -11  1    4    4    0    0 -.40942173E+02 -.20255507E+02 -.13775849E+03 0.14513424E+03 0.51099893E-03 0.0000E+00 0.9000E+01
       11  1    4    4    0    0 0.37967334E+02 0.14289773E+02 -.55360649E+02 0.68633210E+02 0.51099893E-03 0.0000E+00 0.9000E+01
       23  1    3    3    0    0 -.29049721E+02 0.63191057E+01 -.17374898E+04 0.17401351E+04 0.91188000E+02 0.0000E+00 0.9000E+01
#aMCatNLO 1  0  0  1  2 0.12564014D+03 0.00000000D+00  -5  7  0 0.00000000D+00 0.00000000D+00 0.00000000D+00 0.00000000D+00 0.00000000D+00
  <mgrwgt>
 0.4032754517D-03    7    2    0
 0.217193008406146D+03 0.000000000000000D+00 0.000000000000000D+00 0.217193008406146D+03
 0.217193008406146D+03 0.000000000000000D+00 0.000000000000000D+00 -.217193008406146D+03
 0.123793318486298D+03 0.320245594637974D+02 -.353371783760527D+00 0.773552653500862D+02
 0.510529144836095D+02 -.409421724273233D+02 -.202555065590499D+02 0.228002861437825D+02
 0.726405437653743D+02 0.379673340498835D+02 0.142897726212019D+02 0.602572198338769D+02
 0.186899240077009D+03 -.290497210863576D+02 0.631910572160857D+01 -.160412771327746D+03
 0.000000000000000D+00 0.000000000000000D+00 -.000000000000000D+00 0.000000000000000D+00
 0.293199782722703D+03 0.000000000000000D+00 0.000000000000000D+00 0.293199782722703D+03
 0.284904835136120D+03 0.000000000000000D+00 0.000000000000000D+00 -.284904835136120D+03
 0.127218102793578D+03 0.260774918781880D+02 0.347177429329463D+02 0.773552653500862D+02
 0.493491392123775D+02 -.433209398794953D+02 -.622741204043919D+01 0.228002861437825D+02
 0.778569886391477D+02 0.344016835622940D+02 0.353171672976188D+02 0.602572198338769D+02
 0.197766721031361D+03 -.381633879343858D+02 0.600643256835400D+02 -.160412771327746D+03
 0.125913666182358D+03 0.210051523733990D+02 -.123871823873666D+03 0.829494758658299D+01
0.159922733317D-05 0.000000000000D+00 0.000000000000D+00 0.125422694496D-06 0.000000000000D+00  7 -2 2 23 -11 11 23 21 0 0.33371025D-02 0.33457649D+00 0.19433269D+05 0.19433269D+05 0.19433269D+05 0.11852474D+01  1  2  2  1  7  1       -2 0.365790544281D-03 0.100000000000D+01
-.676066261454D-07 0.000000000000D+00 -.614145404562D-08 0.125422694496D-06 0.000000000000D+00  7 -2 2 23 -11 11 23 21 2 0.33371025D-02 0.33457649D+00 0.19433269D+05 0.19433269D+05 0.19433269D+05 0.11852474D+01  1  2  3  1  7  1       -2 -.217234865671D-04 0.100000000000D+01
0.978670559252D-07 0.000000000000D+00 0.000000000000D+00 0.125422694496D-06 0.000000000000D+00  7 -2 2 23 -11 11 23 21 2 0.33371025D-02 0.33457649D+00 0.19433269D+05 0.19433269D+05 0.19433269D+05 0.11852474D+01  1  2 15  1  7  1       -2 0.314468240166D-04 0.100000000000D+01
-.459028181832D-06 0.000000000000D+00 0.000000000000D+00 0.125422694496D-06 0.000000000000D+00  7 -2 2 23 -11 11 23 21 2 0.33371025D-02 0.33457649D+00 0.19433269D+05 0.19433269D+05 0.19433269D+05 0.11852474D+01  1  2  4  1  7  1       -2 -.147495787181D-03 0.100000000000D+01
-.426439641563D-07 0.000000000000D+00 -.521200964775D-06 0.125422694496D-06 0.000000000000D+00  7 -2 2 23 -11 11 23 21 2 0.64623761D-02 0.33457649D+00 0.19433269D+05 0.19433269D+05 0.19433269D+05 0.11852474D+01  1  2  5  1  7  1       -2 -.521311414866D-05 0.100000000000D+01
0.394093643192D-06 0.000000000000D+00 0.424964986348D-06 0.125422694496D-06 0.000000000000D+00  7 -2 2 23 -11 11 23 21 2 0.33371025D-02 0.33457649D+00 0.19433269D+05 0.19433269D+05 0.19433269D+05 0.11852474D+01  1  2  6  1  7  1       -2 0.126630900729D-03 0.100000000000D+01
0.273186671489D-07 0.000000000000D+00 -.373516077991D-07 0.125422694496D-06 0.000000000000D+00  7 21 2 23 -11 11 23 2 2 0.64623761D-02 0.33457649D+00 0.19433269D+05 0.19433269D+05 0.19433269D+05 0.11852474D+01  1  2  5  3  7  1       -2 0.538395706079D-04 0.100000000000D+01
  </mgrwgt>
  </event>
  <event>
  9     66 0.53686478E-06 0.21783452E+03 0.75467711E-02 0.10340032E+00
       21 -1    0    0  502  501 0.00000000E+00 0.00000000E+00 0.81129088E+02 0.81132555E+02 0.75000000E+00 0.0000E+00 0.9000E+01
        2 -1    0    0  501    0 0.00000000E+00 0.00000000E+00 -.12758110E+04 0.12758111E+04 0.32000000E+00 0.0000E+00 0.9000E+01
       25  2    1    2    0    0 -.27332837E+02 -.11997380E+03 -.10888019E+04 0.11360441E+04 0.29994320E+03 0.0000E+00 0.0000E+00
       23  2    1    2    0    0 0.46544560E+02 0.64901306E+02 -.10752794E+03 0.16254811E+03 0.92092645E+02 0.0000E+00 0.0000E+00
       23  1    3    3    0    0 0.93181724E+02 -.11235737E+03 -.54011710E+03 0.56687631E+03 0.91188000E+02 0.0000E+00 0.9000E+01
      -13  1    4    4    0    0 0.37188726E+02 0.83044108E+02 -.55311505E+02 0.10648333E+03 0.10565837E+00 0.0000E+00 0.9000E+01
       13  1    4    4    0    0 0.93558340E+01 -.18142802E+02 -.52216432E+02 0.56064783E+02 0.10565837E+00 0.0000E+00 0.9000E+01
       23  1    3    3    0    0 -.12051456E+03 -.76164328E+01 -.54868475E+03 0.56916779E+03 0.91188000E+02 0.0000E+00 0.9000E+01
        2  1    1    2  502    0 -.19211723E+02 0.55072497E+02 0.16478441E+01 0.58351419E+02 0.32000000E+00 0.0000E+00 0.9000E+01
#aMCatNLO 2  0  0  1  2 0.58327269D+02 0.00000000D+00  -5  7  0 0.00000000D+00 0.00000000D+00 0.00000000D+00 0.00000000D+00 0.00000000D+00
  <mgrwgt>
 0.5469761651D-04    2    2    0
 0.250865846792273D+03 0.000000000000000D+00 0.000000000000000D+00 0.250865846792273D+03
 0.250865846792273D+03 0.000000000000000D+00 0.000000000000000D+00 -.250865846792273D+03
 0.163443922839763D+03 0.866638074041142D+02 -.936730587073386D+02 -.459718079684129D+02
 0.151409001363872D+03 0.315757508233201D+02 0.991345598691011D+02 0.109999984970491D+03
 0.182532103557564D+02 0.861700620258166D+01 -.160251051702792D+02 -.145701636149014D+01
 0.168625559025154D+03 -.126856564430016D+03 0.105636040085167D+02 -.625711606405880D+02
 0.000000000000000D+00 -.000000000000000D+00 0.000000000000000D+00 0.000000000000000D+00
 0.400733970493031D+03 0.000000000000000D+00 0.000000000000000D+00 0.400733970493031D+03
 0.258295133870498D+03 0.000000000000000D+00 0.000000000000000D+00 -.258295133870498D+03
 0.178145085542525D+03 0.931817230783413D+02 -.112357374102550D+03 -.459718079684129D+02
 0.142756249769001D+03 0.371887660378675D+02 0.830442402288187D+02 0.109999984970491D+03
 0.204650833680539D+02 0.935579629052069D+01 -.181429274471907D+02 -.145701636149014D+01
 0.163744225265355D+03 -.120514562276826D+03 -.761643611318478D+01 -.625711606405880D+02
 0.153918460418595D+03 -.192117231299039D+02 0.550724974341066D+02 0.142438836622533D+03
-.238013913083D-06 0.000000000000D+00 0.000000000000D+00 0.292250009012D-06 0.000000000000D+00  7 21 2 23 -13 13 23 2 2 0.12539346D-01 0.19063324D+00 0.60801738D+05 0.60801738D+05 0.60801738D+05 0.11398977D+01  1  2 13  3  7  1       -2 -.431153496857D-03 0.100000000000D+01
0.278827096627D-06 0.000000000000D+00 0.000000000000D+00 0.292250009012D-06 0.382267020474D-10  7 21 2 23 -13 13 23 2 2 0.12481660D-01 0.19627877D+00 0.60801738D+05 0.60801738D+05 0.60801738D+05 0.11398977D+01  1  2  1  3  7  1       -2 0.485851113367D-03 0.100000000000D+01
  </mgrwgt>
  </event>
  <event>
  8     66 0.53686478E-06 0.20970442E+03 0.75467711E-02 0.98477799E-01
       -2 -1    0    0    0  501 0.00000000E+00 0.00000000E+00 0.96031311E+02 0.96031844E+02 0.32000000E+00 0.0000E+00 0.9000E+01
        2 -1    0    0  501    0 0.00000000E+00 0.00000000E+00 -.56732774E+03 0.56732783E+03 0.32000000E+00 0.0000E+00 0.9000E+01
       25  2    1    2    0    0 0.10222415E+03 -.16262477E+02 -.39561858E+03 0.50659236E+03 0.29901090E+03 0.0000E+00 0.0000E+00
       23  2    1    2    0    0 -.10222415E+03 0.16262477E+02 -.75677848E+02 0.15676731E+03 0.90192057E+02 0.0000E+00 0.0000E+00
       23  1    3    3    0    0 0.13755052E+03 -.94825944E+02 -.25410960E+03 0.31748865E+03 0.91188000E+02 0.0000E+00 0.9000E+01
      -13  1    4    4    0    0 -.26076593E+02 0.63907713E+01 0.20440768E+02 0.33744138E+02 0.10565837E+00 0.0000E+00 0.9000E+01
       13  1    4    4    0    0 -.76147559E+02 0.98717056E+01 -.96118616E+02 0.12302317E+03 0.10565837E+00 0.0000E+00 0.9000E+01
       23  1    3    3    0    0 -.35326368E+02 0.78563467E+02 -.14150898E+03 0.18910371E+03 0.91188000E+02 0.0000E+00 0.9000E+01
#aMCatNLO 1  0  0  2  1 0.23269801D+03 0.00000000D+00  -5  7  0 0.00000000D+00 0.00000000D+00 0.00000000D+00 0.00000000D+00 0.00000000D+00
  <mgrwgt>
 0.2297238740D-03    3    2    0
 0.233412581434640D+03 0.000000000000000D+00 0.000000000000000D+00 0.233412581434640D+03
 0.233412581434640D+03 0.000000000000000D+00 0.000000000000000D+00 -.233412581434640D+03
 0.194608672615214D+03 0.137550525605442D+03 -.948259447926960D+02 -.405607841750467D+02
 0.685870348452506D+02 -.260765347579778D+02 0.639076758829353D+01 0.631138160271744D+02
 0.777769891080828D+02 -.761476275132446D+02 0.987171093721730D+01 -.123833833016269D+02
 0.125852466300733D+03 -.353263633342198D+02 0.785634662671852D+02 -.101696485505008D+02
 0.000000000000000D+00 0.000000000000000D+00 -.000000000000000D+00 0.000000000000000D+00
 0.530022493032789D+03 0.000000000000000D+00 0.000000000000000D+00 0.530022493032789D+03
 0.311086454992321D+03 0.000000000000000D+00 0.000000000000000D+00 -.311086454992321D+03
 0.145349132182612D+03 0.577692370935710D+02 -.884796977558716D+02 -.405607841750467D+02
 0.898457671522010D+02 -.632575404813789D+02 0.934835140023176D+01 0.631138160271744D+02
 0.125132064649532D+03 -.123766318806814D+03 0.136595662621448D+02 -.123833833016269D+02
 0.161280259695306D+03 -.102710663769721D+03 0.839235879817354D+02 -.101696485505008D+02
 0.319501724345458D+03 0.231965285964342D+03 -.184518078882403D+02 0.218936038040469D+03
0.108153532379D-05 0.000000000000D+00 0.000000000000D+00 0.349484513074D-07 0.000000000000D+00  7 -2 2 23 -13 13 23 21 0 0.14774096D-01 0.87281238D-01 0.43975944D+05 0.43975944D+05 0.43975944D+05 0.11522321D+01  1  2  2  2  7  2        2 0.226569454323D-03 0.100000000000D+01
-.592471907309D-07 0.000000000000D+00 -.415338041816D-08 0.349484513074D-07 0.000000000000D+00  7 -2 2 23 -13 13 23 21 2 0.14774096D-01 0.87281238D-01 0.43975944D+05 0.43975944D+05 0.43975944D+05 0.11522321D+01  1  2  3  2  7  2        2 -.164781458466D-04 0.100000000000D+01
0.705889101697D-07 0.000000000000D+00 0.000000000000D+00 0.349484513074D-07 0.000000000000D+00  7 -2 2 23 -13 13 23 21 2 0.14774096D-01 0.87281238D-01 0.43975944D+05 0.43975944D+05 0.43975944D+05 0.11522321D+01  1  2 15  2  7  2        2 0.196325655711D-04 0.100000000000D+01
  </mgrwgt>
  </event>
  <event>
  8     66 0.53686478E-06 0.15451913E+03 0.75467711E-02 0.98301495E-01
       -2 -1    0    0    0  501 0.00000000E+00 0.00000000E+00 0.17190196E+03 0.17190225E+03 0.32000000E+00 0.0000E+00 0.9000E+01
        2 -1    0    0  501    0 0.00000000E+00 0.00000000E+00 -.25368194E+04 0.25368194E+04 0.32000000E+00 0.0000E+00 0.9000E+01
       25  2    1    2    0    0 -.30559356E+03 0.74015534E+02 -.13312464E+03 0.45320016E+03 0.29799746E+03 0.0000E+00 0.0000E+00
       23  2    1    2    0    0 0.30559356E+03 -.74015534E+02 -.22317928E+04 0.22555215E+04 0.87249426E+02 0.0000E+00 0.0000E+00
       23  1    3    3    0    0 -.28162649E+03 0.70280150E+02 -.17386233E+03 0.35042280E+03 0.91188000E+02 0.0000E+00 0.9000E+01
      -13  1    4    4    0    0 0.20731038E+03 -.21495280E+02 -.16540784E+04 0.16671578E+04 0.10565837E+00 0.0000E+00 0.9000E+01
       13  1    4    4    0    0 0.98283186E+02 -.52520254E+02 -.57771432E+03 0.58836367E+03 0.10565837E+00 0.0000E+00 0.9000E+01
       23  1    3    3    0    0 -.23967072E+02 0.37353832E+01 0.40737691E+02 0.10277735E+03 0.91188000E+02 0.0000E+00 0.9000E+01
#aMCatNLO 1  0  0  1  2 0.12497033D+02 0.00000000D+00  -5  7  0 0.00000000D+00 0.00000000D+00 0.00000000D+00 0.00000000D+00 0.00000000D+00
  <mgrwgt>
 0.2624463627D-03    9    2    0
 0.660367050400048D+03 0.000000000000000D+00 0.000000000000000D+00 0.660367050400048D+03
 0.660367050400048D+03 0.000000000000000D+00 0.000000000000000D+00 -.660367050400048D+03
 0.407370249774605D+03 -.281626490793437D+03 0.702801503522127D+02 0.270892024997541D+03
 0.457403248991631D+03 0.207310536514947D+03 -.214952343471252D+02 -.407158480862609D+03
 0.172227097962897D+03 0.982830264187350D+02 -.525202991990310D+02 -.131317318594083D+03
 0.283733504070962D+03 -.239670721402446D+02 0.373538319394356D+01 0.267583774459151D+03
 0.000000000000000D+00 -.000000000000000D+00 0.000000000000000D+00 0.000000000000000D+00
 0.685301437858948D+03 0.000000000000000D+00 0.000000000000000D+00 0.685301437858948D+03
 0.661964338755660D+03 0.000000000000000D+00 0.000000000000000D+00 -.661964338755660D+03
 0.405242881204423D+03 -.279293633224430D+03 0.672243903348463D+02 0.270892024997541D+03
 0.458775715152220D+03 0.209940711870953D+03 -.249404445469775D+02 -.407158480862609D+03
 0.173194128881879D+03 0.992746649891945D+02 -.538192252610184D+02 -.131317318594083D+03
 0.283580498872554D+03 -.223384216603092D+02 0.160204891543117D+01 0.267583774459151D+03
 0.264725525035317D+02 -.758332197540916D+01 0.993323055771850D+01 0.233370991032888D+02
0.202154152554D-04 0.000000000000D+00 0.000000000000D+00 0.180423871782D-07 0.000000000000D+00  7 -2 2 23 -13 13 23 21 0 0.26446479D-01 0.39027993D+00 0.12904860D+06 0.12904860D+06 0.12904860D+06 0.11127452D+01  1  2  2  1  7  1       -2 0.112959436695D-03 0.100000000000D+01
-.616933935317D-06 0.000000000000D+00 -.776325174218D-07 0.180423871782D-07 0.000000000000D+00  7 -2 2 23 -13 13 23 21 2 0.26446479D-01 0.39027993D+00 0.12904860D+06 0.12904860D+06 0.12904860D+06 0.11127452D+01  1  2  3  1  7  1       -2 -.426844771857D-05 0.100000000000D+01
0.117978316979D-05 0.000000000000D+00 0.000000000000D+00 0.180423871782D-07 0.000000000000D+00  7 -2 2 23 -13 13 23 21 2 0.26446479D-01 0.39027993D+00 0.12904860D+06 0.12904860D+06 0.12904860D+06 0.11127452D+01  1  2 15  1  7  1       -2 0.816269375249D-05 0.100000000000D+01
0.159899284632D-03 0.000000000000D+00 0.000000000000D+00 0.180423871782D-07 0.000000000000D+00  7 -2 2 23 -13 13 23 21 2 0.27476366D-01 0.39027993D+00 0.13400436D+06 0.13400436D+06 0.13400436D+06 0.11114374D+01  1  2 12  1  7  1       -2 0.103099558188D-02 0.100000000000D+01
-.162487905008D-03 0.000000000000D+00 0.000000000000D+00 0.180423871782D-07 0.000000000000D+00  7 -2 2 23 -13 13 23 21 2 0.26446479D-01 0.39027993D+00 0.12904860D+06 0.12904860D+06 0.12904860D+06 0.11127452D+01  1  2  4  1  7  1       -2 -.112422268856D-02 0.100000000000D+01
-.849505854765D-03 0.000000000000D+00 -.665994115088D-04 0.180423871782D-07 0.000000000000D+00  7 -2 2 23 -13 13 23 21 2 0.27494918D-01 0.39027993D+00 0.12904860D+06 0.12904860D+06 0.12904860D+06 0.11127452D+01  1  2  5  1  7  1       -2 -.549511388492D-02 0.100000000000D+01
0.851501809983D-03 0.000000000000D+00 0.665491103196D-04 0.180423871782D-07 0.000000000000D+00  7 -2 2 23 -13 13 23 21 2 0.26446479D-01 0.39027993D+00 0.12904860D+06 0.12904860D+06 0.12904860D+06 0.11127452D+01  1  2  6  1  7  1       -2 0.589137790954D-02 0.100000000000D+01
0.379625793482D-05 0.000000000000D+00 0.000000000000D+00 0.180423871782D-07 0.000000000000D+00  7 21 2 23 -13 13 23 2 2 0.27476366D-01 0.39027993D+00 0.13400436D+06 0.13400436D+06 0.13400436D+06 0.11114374D+01  1  2 12  3  7  1       -2 0.293221759368D-03 0.100000000000D+01
-.581098586927D-05 0.000000000000D+00 -.458386359634D-06 0.180423871782D-07 0.000000000000D+00  7 21 2 23 -13 13 23 2 2 0.27494918D-01 0.39027993D+00 0.12904860D+06 0.12904860D+06 0.12904860D+06 0.11127452D+01  1  2  5  3  7  1       -2 -.450665997355D-03 0.100000000000D+01
  </mgrwgt>
  </event>
  <event>
  8     66 0.53686478E-06 0.22987547E+03 0.75467711E-02 0.85403508E-01
       -2 -1    0    0    0  501 0.00000000E+00 0.00000000E+00 0.37892797E+03 0.37892810E+03 0.32000000E+00 0.0000E+00 0.9000E+01
        2 -1    0    0  501    0 0.00000000E+00 0.00000000E+00 -.54422225E+03 0.54422234E+03 0.32000000E+00 0.0000E+00 0.9000E+01
       25  2    1    2    0    0 0.10752614E+03 -.10706431E+03 -.46567964E+03 0.57432630E+03 0.29994755E+03 0.0000E+00 0.0000E+00
       23  2    1    2    0    0 -.10752614E+03 0.10706431E+03 0.30038536E+03 0.34882415E+03 0.91773014E+02 0.0000E+00 0.0000E+00
       23  1    3    3    0    0 -.30813031E+02 -.47209451E+02 -.34374472E+03 0.36007480E+03 0.91188000E+02 0.0000E+00 0.9000E+01
      -13  1    4    4    0    0 -.49243084E+02 -.55667698E+01 0.10140981E+03 0.11287086E+03 0.10565837E+00 0.0000E+00 0.9000E+01
       13  1    4    4    0    0 -.58283051E+02 0.11263108E+03 0.19897555E+03 0.23595329E+03 0.10565837E+00 0.0000E+00 0.9000E+01
       23  1    3    3    0    0 0.13833917E+03 -.59854856E+02 -.12193492E+03 0.21425150E+03 0.91188000E+02 0.0000E+00 0.9000E+01
#aMCatNLO 1  0  0  1  2 0.11865396D+04 0.00000000D+00  -5  7  0 0.00000000D+00 0.00000000D+00 0.00000000D+00 0.00000000D+00 0.00000000D+00
  <mgrwgt>
 0.2551028490D-03    5    2    0
 0.454115773695156D+03 0.000000000000000D+00 0.000000000000000D+00 0.454115773695156D+03
 0.454115773695156D+03 0.000000000000000D+00 0.000000000000000D+00 -.454115773695156D+03
 0.303429419852746D+03 -.308130305763622D+02 -.472094510939706D+02 -.283859095965375D+03
 0.133180877099622D+03 -.492430720898830D+02 -.556692624814912D+01 0.123617455111820D+03
 0.276042025380440D+03 -.582830633685701D+02 0.112631233546594D+03 0.245186642234611D+03
 0.195579225057505D+03 0.138339166034815D+03 -.598548562044739D+02 -.849450013810559D+02
 0.000000000000000D+00 -.000000000000000D+00 -.000000000000000D+00 0.000000000000000D+00
 0.316743076262448D+04 0.000000000000000D+00 0.000000000000000D+00 0.316743076262448D+04
 0.892544415556937D+03 0.000000000000000D+00 0.000000000000000D+00 -.892544415556937D+03
 0.433493672245845D+03 0.906440095709576D+01 0.314552639165843D+03 -.283859095965375D+03
 0.204834351817739D+03 -.309519107828971D+02 0.160367751418912D+03 0.123617455111820D+03
 0.592066406680566D+03 -.113067439475758D+02 0.538793372203721D+03 0.245186642234611D+03
 0.263848091261210D+03 0.163200351072356D+03 0.165682093384940D+03 -.849450013810559D+02
 0.256573265617606D+04 -.130006097298979D+03 -.117939585617342D+04 0.227488634706754D+04
0.123578983729D-04 0.000000000000D+00 0.000000000000D+00 0.111178577798D-05 0.000000000000D+00  7 -2 2 23 -13 13 23 21 0 0.58296628D-01 0.83726518D-01 0.52842734D+05 0.52842734D+05 0.52842734D+05 0.11451890D+01  1  2  2  1  7  1       -2 0.242916750260D-03 0.100000000000D+01
-.299638875263D-06 0.000000000000D+00 -.474575836613D-07 0.111178577798D-05 0.000000000000D+00  7 -2 2 23 -13 13 23 21 2 0.58296628D-01 0.83726518D-01 0.52842734D+05 0.52842734D+05 0.52842734D+05 0.11451890D+01  1  2  3  1  7  1       -2 -.772441019943D-05 0.100000000000D+01
0.760749416995D-06 0.000000000000D+00 0.000000000000D+00 0.111178577798D-05 0.000000000000D+00  7 -2 2 23 -13 13 23 21 2 0.58296628D-01 0.83726518D-01 0.52842734D+05 0.52842734D+05 0.52842734D+05 0.11451890D+01  1  2 15  1  7  1       -2 0.196114090693D-04 0.100000000000D+01
0.144560046728D-04 0.000000000000D+00 -.753885508842D-05 0.111178577798D-05 0.000000000000D+00  7 -2 2 23 -13 13 23 21 2 0.51251249D+00 0.83726518D-01 0.52842734D+05 0.52842734D+05 0.52842734D+05 0.11451890D+01  1  2  5  1  7  1       -2 0.967160026585D-07 0.100000000000D+01
0.275415779400D-05 0.000000000000D+00 -.197479885936D-05 0.111178577798D-05 0.000000000000D+00  7 21 2 23 -13 13 23 2 2 0.51251249D+00 0.83726518D-01 0.52842734D+05 0.52842734D+05 0.52842734D+05 0.11451890D+01  1  2  5  3  7  1       -2 0.202383870359D-06 0.100000000000D+01
  </mgrwgt>
  </event>
  <event>
  8     66 0.53686478E-06 0.26378372E+03 0.75467711E-02 0.94100000E-01
       -2 -1    0    0    0  501 0.00000000E+00 0.00000000E+00 0.71792245E+03 0.71792252E+03 0.32000000E+00 0.0000E+00 0.9000E+01
        2 -1    0    0  501    0 0.00000000E+00 0.00000000E+00 -.14143897E+03 0.14143933E+03 0.32000000E+00 0.0000E+00 0.9000E+01
       25  2    1    2    0    0 0.83852260E+02 -.19837923E+03 0.21105523E+03 0.42528880E+03 0.29990120E+03 0.0000E+00 0.0000E+00
       23  2    1    2    0    0 -.83852260E+02 0.19837923E+03 0.36542825E+03 0.43407305E+03 0.92174214E+02 0.0000E+00 0.0000E+00
       23  1    3    3    0    0 -.47682465E+01 -.14398410E+03 -.29034458E+01 0.17052225E+03 0.91188000E+02 0.0000E+00 0.9000E+01
      -13  1    4    4    0    0 -.59758606E+02 0.17605583E+03 0.35297390E+03 0.39894528E+03 0.10565837E+00 0.0000E+00 0.9000E+01
       13  1    4    4    0    0 -.24093654E+02 0.22323398E+02 0.12454342E+02 0.35127768E+02 0.10565837E+00 0.0000E+00 0.9000E+01
       23  1    3    3    0    0 0.88620506E+02 -.54395132E+02 0.21395868E+03 0.25476654E+03 0.91188000E+02 0.0000E+00 0.9000E+01
#aMCatNLO 1  0  0  1  1 0.39788321D+03 0.00000000D+00  -5  7  0 0.00000000D+00 0.00000000D+00 0.00000000D+00 0.00000000D+00 0.00000000D+00
  <mgrwgt>
 0.2175009407D-03    3    2    0
 0.318657173594825D+03 0.000000000000000D+00 0.000000000000000D+00 0.318657173594825D+03
 0.318657173594825D+03 0.000000000000000D+00 0.000000000000000D+00 -.318657173594825D+03
 0.232560442095920D+03 -.476824629194265D+01 -.143984100727960D+03 -.158161153412302D+03
 0.218659567562051D+03 -.597586532352916D+02 0.176056036786722D+03 0.115087713335870D+03
 0.361008465978386D+02 -.240936067803730D+02 0.223231964445869D+02 -.149814598050331D+02
 0.149993490933842D+03 0.886205063076072D+02 -.543951325033494D+02 0.580548998814647D+02
 0.000000000000000D+00 -.000000000000000D+00 -.000000000000000D+00 -.000000000000000D+00
 0.460743547184258D+03 0.000000000000000D+00 0.000000000000000D+00 0.460743547184258D+03
 0.840821101467428D+03 0.000000000000000D+00 0.000000000000000D+00 -.840821101467428D+03
 0.223060496316843D+03 0.105057928005817D+03 -.734071862117813D+02 -.158161153412302D+03
 0.285809584333236D+03 0.618422485953049D+02 0.254199671566535D+03 0.115087713335870D+03
 0.374388021434504D+02 -.636707667709681D+01 0.337146867497620D+02 -.149814598050331D+02
 0.205010372269871D+03 0.174193211311932D+03 0.595925180534401D+00 0.580548998814647D+02
 0.550245393588286D+03 -.334726311235956D+03 -.215103097285050D+03 -.380077554283169D+03
0.102090865338D-04 0.000000000000D+00 0.000000000000D+00 0.468478831651D-06 0.000000000000D+00  7 -2 2 23 -13 13 23 21 0 0.11044964D+00 0.21759874D-01 0.69581849D+05 0.69581849D+05 0.69581849D+05 0.11348809D+01  1  2  2  1  7  1       -2 0.214338267290D-03 0.100000000000D+01
-.542541914800D-06 0.000000000000D+00 -.392055804040D-07 0.468478831651D-06 0.000000000000D+00  7 -2 2 23 -13 13 23 21 2 0.11044964D+00 0.21759874D-01 0.69581849D+05 0.69581849D+05 0.69581849D+05 0.11348809D+01  1  2  3  1  7  1       -2 -.146705600017D-04 0.100000000000D+01
0.659502881507D-06 0.000000000000D+00 0.000000000000D+00 0.468478831651D-06 0.000000000000D+00  7 -2 2 23 -13 13 23 21 2 0.11044964D+00 0.21759874D-01 0.69581849D+05 0.69581849D+05 0.69581849D+05 0.11348809D+01  1  2 15  1  7  1       -2 0.178332333973D-04 0.100000000000D+01
  </mgrwgt>
  </event>
  <event>
  8     66 0.53686478E-06 0.11115243E+04 0.75467711E-02 0.83128641E-01
       -2 -1    0    0    0  501 0.00000000E+00 0.00000000E+00 0.14774463E+04 0.14774463E+04 0.32000000E+00 0.0000E+00 0.9000E+01
        2 -1    0    0  501    0 0.00000000E+00 0.00000000E+00 -.18454021E+04 0.18454021E+04 0.32000000E+00 0.0000E+00 0.9000E+01
       25  2    1    2    0    0 0.35564022E+03 0.10346667E+04 -.14091060E+04 0.18088526E+04 0.29891949E+03 0.0000E+00 0.0000E+00
       23  2    1    2    0    0 -.35564022E+03 -.10346667E+04 0.10411502E+04 0.15139958E+04 0.10570951E+03 0.0000E+00 0.0000E+00
       23  1    3    3    0    0 0.37356182E+02 0.11823374E+03 -.13410942E+03 0.20414526E+03 0.91188000E+02 0.0000E+00 0.9000E+01
      -13  1    4    4    0    0 -.34100074E+03 -.96334363E+03 0.93392986E+03 0.13843906E+04 0.10565837E+00 0.0000E+00 0.9000E+01
       13  1    4    4    0    0 -.14639483E+02 -.71323087E+02 0.10722033E+03 0.12960520E+03 0.10565837E+00 0.0000E+00 0.9000E+01
       23  1    3    3    0    0 0.31828404E+03 0.91643298E+03 -.12749965E+04 0.16047073E+04 0.91188000E+02 0.0000E+00 0.9000E+01
#aMCatNLO 1  0  0  2  1 0.85783195D+03 0.00000000D+00  -5  7  0 0.00000000D+00 0.00000000D+00 0.00000000D+00 0.00000000D+00 0.00000000D+00
  <mgrwgt>
 0.3619886400D-03    3    2    0
 0.165120638728758D+04 0.000000000000000D+00 0.000000000000000D+00 0.165120638728758D+04
 0.165120638728758D+04 0.000000000000000D+00 0.000000000000000D+00 -.165120638728758D+04
 0.190466022399178D+03 0.373561823982842D+02 0.118233737787909D+03 -.112193374269119D+03
 0.149701746481240D+04 -.341001064310118D+03 -.963344518404188D+03 0.109395927847124D+04
 0.142352370247821D+03 -.146391569996883D+02 -.713221961346269D+02 0.122323492167469D+03
 0.147257691711575D+04 0.318284038911522D+03 0.916432976750906D+03 -.110408939636959D+04
 0.000000000000000D+00 -.000000000000000D+00 0.000000000000000D+00 0.000000000000000D+00
 0.356220052460273D+04 0.000000000000000D+00 0.000000000000000D+00 0.356220052460273D+04
 0.180511524368700D+04 0.000000000000000D+00 0.000000000000000D+00 -.180511524368700D+04
 0.167427232902370D+03 0.427275540403488D+02 0.728260246696400D+02 -.112193374269119D+03
 0.178479796969006D+04 -.291746572647447D+03 -.137972490990230D+04 0.109395927847124D+04
 0.165028187250544D+03 -.100258954044745D+02 -.110321109822618D+03 0.122323492167469D+03
 0.129475566524090D+04 0.359817014280134D+03 0.565327606249825D+03 -.110408939636959D+04
 0.195530671320586D+04 -.100772100268562D+03 0.851892388805456D+03 0.175708528091572D+04
0.459450939862D-02 0.000000000000D+00 0.000000000000D+00 0.565815712325D-07 0.000000000000D+00  7 -2 2 23 -13 13 23 21 0 0.22729943D+00 0.28390801D+00 0.12354864D+07 0.12354864D+07 0.12354864D+07 0.10418048D+01  1  2  2  2  7  2        2 0.357290901093D-03 0.100000000000D+01
-.206638661861D-03 0.000000000000D+00 -.176441258528D-04 0.565815712325D-07 0.000000000000D+00  7 -2 2 23 -13 13 23 21 2 0.22729943D+00 0.28390801D+00 0.12354864D+07 0.12354864D+07 0.12354864D+07 0.10418048D+01  1  2  3  2  7  2        2 -.174408273292D-04 0.100000000000D+01
0.262297402339D-03 0.000000000000D+00 0.000000000000D+00 0.565815712325D-07 0.000000000000D+00  7 -2 2 23 -13 13 23 21 2 0.22729943D+00 0.28390801D+00 0.12354864D+07 0.12354864D+07 0.12354864D+07 0.10418048D+01  1  2 15  2  7  2        2 0.221385662388D-04 0.100000000000D+01
  </mgrwgt>
  </event>
  <event>
  9     66 0.53686478E-06 0.42191550E+03 0.75467711E-02 0.93517463E-01
       -2 -1    0    0    0  501 0.00000000E+00 0.00000000E+00 0.78723428E+03 0.78723435E+03 0.32000000E+00 0.0000E+00 0.9000E+01
        2 -1    0    0  502    0 0.00000000E+00 0.00000000E+00 -.40656443E+03 0.40656455E+03 0.32000000E+00 0.0000E+00 0.9000E+01
       25  2    1    2    0    0 0.18931514E+03 0.43302090E+03 0.10576091E+03 0.56843298E+03 0.29762957E+03 0.0000E+00 0.0000E+00
       23  2    1    2    0    0 -.23780167E+03 -.20705628E+03 0.19156370E+03 0.37968738E+03 0.89687889E+02 0.0000E+00 0.0000E+00
       23  1    3    3    0    0 0.10461339E+02 0.30212687E+03 0.30490324E+02 0.31723019E+03 0.91188000E+02 0.0000E+00 0.9000E+01
      -11  1    4    4    0    0 -.35383427E+02 -.49845303E+02 0.78672189E+02 0.99628583E+02 0.51099893E-03 0.0000E+00 0.9000E+01
       11  1    4    4    0    0 -.20241824E+03 -.15721097E+03 0.11289151E+03 0.28005879E+03 0.51099893E-03 0.0000E+00 0.9000E+01
       23  1    3    3    0    0 0.17885380E+03 0.13089403E+03 0.75270583E+02 0.25120279E+03 0.91188000E+02 0.0000E+00 0.9000E+01
       21  1    1    2  502  501 0.48486527E+02 -.22596462E+03 0.83345249E+02 0.24567854E+03 0.75000000E+00 0.0000E+00 0.9000E+01
#aMCatNLO 2  0  0  2  1 0.23110810D+03 0.00000000D+00  -5  7  0 0.00000000D+00 0.00000000D+00 0.00000000D+00 0.00000000D+00 0.00000000D+00
  <mgrwgt>
 0.3259934180D-04    1    2    0
 0.435063022723450D+03 0.000000000000000D+00 0.000000000000000D+00 0.435063022723450D+03
 0.435063022723450D+03 0.000000000000000D+00 0.000000000000000D+00 -.435063022723450D+03
 0.257369757283535D+03 0.263836662580553D+02 0.227923104112764D+03 -.726560485202100D+02
 0.926490655726073D+02 -.306841320107750D+02 -.717457042018446D+02 0.499488470618094D+02
 0.296133624113946D+03 -.187251666475883D+03 -.227892648587916D+03 0.263984365531255D+02
 0.223973598476811D+03 0.191552132228603D+03 0.717152486769960D+02 -.369123509472495D+01
 0.000000000000000D+00 0.000000000000000D+00 -.000000000000000D+00 0.000000000000000D+00
 0.569067348138548D+03 0.000000000000000D+00 0.000000000000000D+00 0.569067348138548D+03
 0.562430581598908D+03 0.000000000000000D+00 0.000000000000000D+00 -.562430581598908D+03
 0.324012708695664D+03 0.104613386432707D+02 0.302126865835399D+03 -.726560485202100D+02
 0.789393972329087D+02 -.353834270180731D+02 -.498453027390507D+02 0.499488470618094D+02
 0.257653472195347D+03 -.202418239415825D+03 -.157210974914815D+03 0.263984365531255D+02
 0.239688978211611D+03 0.178853800440570D+03 0.130894032650714D+03 -.369123509472495D+01
 0.231203373401926D+03 0.484865273500570D+02 -.225964620832247D+03 0.663676653963998D+01
0.563456521020D-05 0.000000000000D+00 0.000000000000D+00 0.217634026492D-07 0.270787470308D-11  7 -2 2 23 -11 11 23 21 2 0.12111285D+00 0.62548321D-01 0.30467914D+06 0.30467914D+06 0.30467914D+06 0.10840549D+01  1  2  1  2  7  2        2 0.325993417969D-04 0.100000000000D+01
  </mgrwgt>
  </event>
  <event>
  8     66 0.53686478E-06 0.23487896E+03 0.75467711E-02 0.96230127E-01
       -2 -1    0    0    0  501 0.00000000E+00 0.00000000E+00 0.59968760E+03 0.59968769E+03 0.32000000E+00 0.0000E+00 0.9000E+01
        2 -1    0    0  501    0 0.00000000E+00 0.00000000E+00 -.43460696E+03 0.43460708E+03 0.32000000E+00 0.0000E+00 0.9000E+01
       25  2    1    2    0    0 -.25672581E+02 0.13743062E+03 0.53451413E+03 0.62870607E+03 0.30003286E+03 0.0000E+00 0.0000E+00
       23  2    1    2    0    0 0.25672581E+02 -.13743062E+03 -.36943349E+03 0.40558870E+03 0.92058880E+02 0.0000E+00 0.0000E+00
       23  1    3    3    0    0 -.93194484E+02 0.14102305E+03 0.20843544E+03 0.28343129E+03 0.91188000E+02 0.0000E+00 0.9000E+01
      -11  1    4    4    0    0 -.25351864E+02 -.10628090E+02 -.36530191E+02 0.45717920E+02 0.51099893E-03 0.0000E+00 0.9000E+01
       11  1    4    4    0    0 0.51024445E+02 -.12680253E+03 -.33290330E+03 0.35987078E+03 0.51099893E-03 0.0000E+00 0.9000E+01
       23  1    3    3    0    0 0.67521903E+02 -.35924298E+01 0.32607869E+03 0.34527478E+03 0.91188000E+02 0.0000E+00 0.9000E+01
#aMCatNLO 1  0  0  1  1 0.28373231D+03 0.00000000D+00  -5  7  0 0.00000000D+00 0.00000000D+00 0.00000000D+00 0.00000000D+00 0.00000000D+00
  <mgrwgt>
 0.3987247438D-03    5    2    0
 0.510517888440632D+03 0.000000000000000D+00 0.000000000000000D+00 0.510517888440632D+03
 0.510517888440632D+03 0.000000000000000D+00 0.000000000000000D+00 -.510517888440632D+03
 0.253412122769563D+03 -.931944835659958D+02 0.141023047297433D+03 0.165317092239095D+03
 0.522177910084804D+02 -.253518644718106D+02 -.106280897189089D+02 -.443962202730717D+02
 0.418367668309133D+03 0.510244454471443D+02 -.126802527750230D+03 -.395410079296652D+03
 0.297038194794088D+03 0.675219025906622D+02 -.359242982829443D+01 0.274489207330628D+03
 0.000000000000000D+00 -.000000000000000D+00 0.000000000000000D+00 0.000000000000000D+00
 0.289149592454027D+04 0.000000000000000D+00 0.000000000000000D+00 0.289149592454027D+04
 0.538384807828931D+03 0.000000000000000D+00 0.000000000000000D+00 -.538384807828931D+03
 0.219783381742197D+03 -.393998734630167D+02 0.105391615087468D+03 0.165317092239095D+03
 0.499539687066743D+02 -.137366020168491D+02 -.183215823564174D+02 -.443962202730717D+02
 0.465499966052186D+03 0.151505777834629D+03 -.193357407067653D+03 -.395410079296652D+03
 0.324488157296559D+03 0.138179310492162D+03 -.503931155281189D+02 0.274489207330628D+03
 0.237015525857159D+04 -.236548612846925D+03 0.156680489864721D+03 0.235311111671134D+04
0.412714788692D-04 0.000000000000D+00 0.000000000000D+00 0.236316869434D-05 0.000000000000D+00  7 -2 2 23 -11 11 23 21 0 0.92259647D-01 0.66862626D-01 0.55168126D+05 0.55168126D+05 0.55168126D+05 0.11435568D+01  1  2  2  1  7  1       -2 0.385101612766D-03 0.100000000000D+01
-.612585805471D-06 0.000000000000D+00 -.158493345888D-06 0.236316869434D-05 0.000000000000D+00  7 -2 2 23 -11 11 23 21 2 0.92259647D-01 0.66862626D-01 0.55168126D+05 0.55168126D+05 0.55168126D+05 0.11435568D+01  1  2  3  1  7  1       -2 -.747493963257D-05 0.100000000000D+01
0.242119492020D-05 0.000000000000D+00 0.000000000000D+00 0.236316869434D-05 0.000000000000D+00  7 -2 2 23 -11 11 23 21 2 0.92259647D-01 0.66862626D-01 0.55168126D+05 0.55168126D+05 0.55168126D+05 0.11435568D+01  1  2 15  1  7  1       -2 0.295440829767D-04 0.100000000000D+01
-.378947794305D-03 0.000000000000D+00 -.171923339742D-04 0.236316869434D-05 0.000000000000D+00  7 -2 2 23 -11 11 23 21 2 0.52512362D+00 0.66862626D-01 0.55168126D+05 0.55168126D+05 0.55168126D+05 0.11435568D+01  1  2  5  1  7  1       -2 -.244945312185D-05 0.100000000000D+01
-.816388014210D-04 0.000000000000D+00 -.366207261491D-05 0.236316869434D-05 0.000000000000D+00  7 21 2 23 -11 11 23 2 2 0.52512362D+00 0.66862626D-01 0.55168126D+05 0.55168126D+05 0.55168126D+05 0.11435568D+01  1  2  5  3  7  1       -2 -.599655917809D-05 0.100000000000D+01
  </mgrwgt>
  </event>
  <event>
  9     66 -.53686478E-06 0.26345428E+03 0.75467711E-02 0.10220144E+00
       -2 -1    0    0    0  501 0.00000000E+00 0.00000000E+00 0.25928684E+03 0.25928704E+03 0.32000000E+00 0.0000E+00 0.9000E+01
        2 -1    0    0  502    0 0.00000000E+00 0.00000000E+00 -.13150722E+04 0.13150722E+04 0.32000000E+00 0.0000E+00 0.9000E+01
       25  2    1    2    0    0 -.18305277E+03 -.48580873E+02 0.12247082E+03 0.37537849E+03 0.30006914E+03 0.0000E+00 0.0000E+00
       23  2    1    2    0    0 0.16753500E+03 0.49753419E+02 -.11561686E+04 0.11719511E+04 0.78742301E+02 0.0000E+00 0.0000E+00
       23  1    3    3    0    0 -.21845461E+03 -.18114542E+02 0.33657232E+02 0.23978869E+03 0.91188000E+02 0.0000E+00 0.9000E+01
      -11  1    4    4    0    0 0.47297000E+02 0.42082337E+02 -.57163382E+03 0.57512882E+03 0.51099893E-03 0.0000E+00 0.9000E+01
       11  1    4    4    0    0 0.12023800E+03 0.76710824E+01 -.58453473E+03 0.59682232E+03 0.51099893E-03 0.0000E+00 0.9000E+01
       23  1    3    3    0    0 0.35401845E+02 -.30466331E+02 0.88813592E+02 0.13558980E+03 0.91188000E+02 0.0000E+00 0.9000E+01
       21  1    1    2  502  501 0.15517767E+02 -.11725466E+01 -.22087611E+02 0.27029632E+02 0.75000000E+00 0.0000E+00 0.9000E+01
#aMCatNLO 2  0  0  2  1 0.15562004D+02 0.00000000D+00  -5  7  0 0.00000000D+00 0.00000000D+00 0.00000000D+00 0.00000000D+00 0.00000000D+00
  <mgrwgt>
 -.6337425248D-03    3    2    0
 0.575642203300941D+03 0.000000000000000D+00 0.000000000000000D+00 0.575642203300941D+03
 0.575642203300941D+03 0.000000000000000D+00 0.000000000000000D+00 -.575642203300941D+03
 0.349570322242411D+03 -.213723589906285D+03 -.184720251182771D+02 0.260509443694971D+03
 0.260319577826680D+03 0.508014304521166D+02 0.418175366795314D+02 -.251866613289526D+03
 0.278910623990498D+03 0.123986132032463D+03 0.738786788854495D+01 -.249727841152041D+03
 0.262483882542292D+03 0.389360274217054D+02 -.307333794497992D+02 0.241085010746596D+03
 0.000000000000000D+00 0.000000000000000D+00 -.000000000000000D+00 -.000000000000000D+00
 0.581225459098482D+03 0.000000000000000D+00 0.000000000000000D+00 0.581225459098482D+03
 0.586641743754497D+03 0.000000000000000D+00 0.000000000000000D+00 -.586641743754497D+03
 0.352464149803669D+03 -.218454614699596D+03 -.181145415346560D+02 0.260509443694971D+03
 0.259701213209813D+03 0.472969996109067D+02 0.420823369184647D+02 -.251866613289526D+03
 0.277272460687890D+03 0.120238002748206D+03 0.767108236045086D+01 -.249727841152041D+03
 0.261951754529368D+03 0.354018448419660D+02 -.304663311232796D+02 0.241085010746596D+03
 0.164776246222382D+02 0.155177674985170D+02 -.117254662097993D+01 -.541628465601546D+01
-.934516803607D-04 0.000000000000D+00 0.000000000000D+00 0.200286324244D-07 0.000000000000D+00  7 -2 2 23 -11 11 23 21 2 0.39506536D-01 0.20326466D+00 0.72689851D+05 0.72689851D+05 0.72689851D+05 0.11332701D+01  1  2 13  2  7  2        2 -.154276925095D-02 0.100000000000D+01
-.561726628514D-03 0.000000000000D+00 0.000000000000D+00 0.200286324244D-07 0.000000000000D+00  7 -2 2 23 -11 11 23 21 2 0.39506536D-01 0.19852243D+00 0.69408158D+05 0.69408158D+05 0.69408158D+05 0.11349732D+01  1  2  8  2  7  2        2 -.968691266330D-02 0.100000000000D+01
0.648328436664D-03 0.000000000000D+00 0.000000000000D+00 0.200286324244D-07 0.566618603904D-09  7 -2 2 23 -11 11 23 21 2 0.39889717D-01 0.20231586D+00 0.72689851D+05 0.72689851D+05 0.72689851D+05 0.11332701D+01  1  2  1  2  7  2        2 0.105959393895D-01 0.100000000000D+01
  </mgrwgt>
  </event>
  <event>
  8     66 0.53686478E-06 0.10770369E+03 0.75467711E-02 0.10703716E+00
       -2 -1    0    0    0  501 0.00000000E+00 0.00000000E+00 0.42819658E+02 0.42820854E+02 0.32000000E+00 0.0000E+00 0.9000E+01
        2 -1    0    0  501    0 0.00000000E+00 0.00000000E+00 -.18885286E+04 0.18885286E+04 0.32000000E+00 0.0000E+00 0.9000E+01
       25  2    1    2    0    0 0.95249770E+02 0.29981183E+02 -.17160428E+04 0.17444617E+04 0.29727469E+03 0.0000E+00 0.0000E+00
       23  2    1    2    0    0 -.95249770E+02 -.29981183E+02 -.12966611E+03 0.18688778E+03 0.90234979E+02 0.0000E+00 0.0000E+00
       23  1    3    3    0    0 0.12317035E+03 0.28001074E+01 -.14869303E+04 0.14948096E+04 0.91188000E+02 0.0000E+00 0.9000E+01
      -11  1    4    4    0    0 -.90459033E+01 -.24175918E+02 0.55714046E+01 0.26407271E+02 0.51099893E-03 0.0000E+00 0.9000E+01
       11  1    4    4    0    0 -.86203866E+02 -.58052645E+01 -.13523752E+03 0.16048051E+03 0.51099893E-03 0.0000E+00 0.9000E+01
       23  1    3    3    0    0 -.27920575E+02 0.27181075E+02 -.22911255E+03 0.24965212E+03 0.91188000E+02 0.0000E+00 0.9000E+01
#aMCatNLO 1  0  0  2  1 0.16749956D+02 0.00000000D+00  -5  7  0 0.00000000D+00 0.00000000D+00 0.00000000D+00 0.00000000D+00 0.00000000D+00
  <mgrwgt>
 0.3615223319D-03    9    2    0
 0.284371815189045D+03 0.000000000000000D+00 0.000000000000000D+00 0.284371815189045D+03
 0.284371815189045D+03 0.000000000000000D+00 0.000000000000000D+00 -.284371815189045D+03
 0.250656334291807D+03 0.123170345166715D+03 0.280010744911718D+01 -.198329453300290D+03
 0.107754806102781D+03 -.904590325836266D+01 -.241759184145211D+02 0.104617373515600D+03
 0.106084446207145D+03 -.862038665019924D+02 -.580526446071855D+01 0.615556823674671D+02
 0.104248043776356D+03 -.279205754063598D+02 0.271810754261224D+02 0.321563974172220D+02
 0.000000000000000D+00 0.000000000000000D+00 -.000000000000000D+00 -.000000000000000D+00
 0.291362303804920D+03 0.000000000000000D+00 0.000000000000000D+00 0.291362303804920D+03
 0.294708935296674D+03 0.000000000000000D+00 0.000000000000000D+00 -.294708935296674D+03
 0.247141488107975D+03 0.115844768970829D+03 0.301351222457831D+01 -.198329453300290D+03
 0.108047089854355D+03 -.122216367809192D+02 -.240834046406986D+02 0.104617373515600D+03
 0.108663160403230D+03 -.893640851375916D+02 -.571320265830131D+01 0.615556823674671D+02
 0.105138488383798D+03 -.310019006486781D+02 0.272708389483187D+02 0.321563974172220D+02
 0.170810123522369D+02 0.167428535963600D+02 -.487743873897110D+00 -.334663149175439D+01
0.103000781263D-05 0.000000000000D+00 0.000000000000D+00 0.943720920134D-08 0.000000000000D+00  7 -2 2 23 -11 11 23 21 0 0.65877337D-02 0.29054295D+00 0.33243171D+05 0.33243171D+05 0.33243171D+05 0.11632221D+01  1  2  2  2  7  2        2 0.122354102376D-03 0.100000000000D+01
-.434773476468D-07 0.000000000000D+00 -.395550120779D-08 0.943720920134D-08 0.000000000000D+00  7 -2 2 23 -11 11 23 21 2 0.65877337D-02 0.29054295D+00 0.33243171D+05 0.33243171D+05 0.33243171D+05 0.11632221D+01  1  2  3  2  7  2        2 -.698821603366D-05 0.100000000000D+01
0.625987531347D-07 0.000000000000D+00 0.000000000000D+00 0.943720920134D-08 0.000000000000D+00  7 -2 2 23 -11 11 23 21 2 0.65877337D-02 0.29054295D+00 0.33243171D+05 0.33243171D+05 0.33243171D+05 0.11632221D+01  1  2 15  2  7  2        2 0.100616443739D-04 0.100000000000D+01
0.224065096355D-05 0.000000000000D+00 0.000000000000D+00 0.943720920134D-08 0.000000000000D+00  7 -2 2 23 -11 11 23 21 2 0.65877337D-02 0.30456665D+00 0.36264236D+05 0.36264236D+05 0.36264236D+05 0.11597709D+01  1  2 12  2  7  2        2 0.320324457403D-03 0.100000000000D+01
-.195060672598D-05 0.000000000000D+00 0.000000000000D+00 0.943720920134D-08 0.000000000000D+00  7 -2 2 23 -11 11 23 21 2 0.65877337D-02 0.29054295D+00 0.33243171D+05 0.33243171D+05 0.33243171D+05 0.11632221D+01  1  2  4  2  7  2        2 -.313525592881D-03 0.100000000000D+01
-.127572153297D-04 0.000000000000D+00 -.222471882795D-05 0.943720920134D-08 0.000000000000D+00  7 -2 2 23 -11 11 23 21 2 0.65877337D-02 0.30476046D+00 0.33243171D+05 0.33243171D+05 0.33243171D+05 0.11632221D+01  1  2  5  2  7  2        2 -.183379342202D-02 0.100000000000D+01
0.128513681047D-04 0.000000000000D+00 0.222218236967D-05 0.943720920134D-08 0.000000000000D+00  7 -2 2 23 -11 11 23 21 2 0.65877337D-02 0.29054295D+00 0.33243171D+05 0.33243171D+05 0.33243171D+05 0.11632221D+01  1  2  6  2  7  2        2 0.206563052956D-02 0.100000000000D+01
0.279859263374D-07 0.000000000000D+00 0.000000000000D+00 0.943720920134D-08 0.000000000000D+00  7 -2 21 23 -11 11 23 -2 2 0.65877337D-02 0.30456665D+00 0.36264236D+05 0.36264236D+05 0.36264236D+05 0.11597709D+01  1  2 12  4  7  2        2 0.914903074156D-06 0.100000000000D+01
-.104724115166D-06 0.000000000000D+00 -.185753184989D-07 0.943720920134D-08 0.000000000000D+00  7 -2 21 23 -11 11 23 -2 2 0.65877337D-02 0.30476046D+00 0.33243171D+05 0.33243171D+05 0.33243171D+05 0.11632221D+01  1  2  5  4  7  2        2 -.345607397868D-05 0.100000000000D+01
  </mgrwgt>
  </event>
  <event>
  8     66 0.53686478E-06 0.35291148E+03 0.75467711E-02 0.92465993E-01
       -2 -1    0    0    0  501 0.00000000E+00 0.00000000E+00 0.23373012E+04 0.23373012E+04 0.32000000E+00 0.0000E+00 0.9000E+01
        2 -1    0    0  501    0 0.00000000E+00 0.00000000E+00 -.41069284E+03 0.41069296E+03 0.32000000E+00 0.0000E+00 0.9000E+01
       25  2    1    2    0    0 0.49784336E+03 -.75176485E+02 -.15393579E+03 0.60541490E+03 0.29888369E+03 0.0000E+00 0.0000E+00
       23  2    1    2    0    0 -.49784336E+03 0.75176485E+02 0.20805442E+04 0.21425793E+04 0.92100642E+02 0.0000E+00 0.0000E+00
       23  1    3    3    0    0 0.82129969E+02 0.37675185E+02 -.98136790E+02 0.16158847E+03 0.91188000E+02 0.0000E+00 0.9000E+01
      -13  1    4    4    0    0 -.12269933E+03 0.36564156E+02 0.69137574E+03 0.70313049E+03 0.10565837E+00 0.0000E+00 0.9000E+01
       13  1    4    4    0    0 -.37514402E+03 0.38612329E+02 0.13891684E+04 0.14394488E+04 0.10565837E+00 0.0000E+00 0.9000E+01
       23  1    3    3    0    0 0.41571339E+03 -.11285167E+03 -.55798998E+02 0.44382643E+03 0.91188000E+02 0.0000E+00 0.9000E+01
#aMCatNLO 1  0  0  1  2 0.13041705D+03 0.00000000D+00  -5  7  0 0.00000000D+00 0.00000000D+00 0.00000000D+00 0.00000000D+00 0.00000000D+00
  <mgrwgt>
 0.7480855088D-04    6    2    0
 0.979751532168137D+03 0.000000000000000D+00 0.000000000000000D+00 0.979751532168137D+03
 0.979751532168137D+03 0.000000000000000D+00 0.000000000000000D+00 -.979751532168137D+03
 0.323099941305773D+03 0.821299686323538D+02 0.376751852950203D+02 -.296502224938074D+03
 0.306295681494994D+03 -.122699002060633D+03 0.365641532177505D+02 0.278253593139921D+03
 0.652825893320075D+03 -.375144355340110D+03 0.386123318611355D+02 0.532876578087133D+03
 0.677281548215432D+03 0.415713388768389D+03 -.112851670373906D+03 -.514627946288980D+03
 0.000000000000000D+00 -.000000000000000D+00 -.000000000000000D+00 -.000000000000000D+00
 0.103899789022302D+04 0.000000000000000D+00 0.000000000000000D+00 0.103899789022302D+04
 0.105641539025381D+04 0.000000000000000D+00 0.000000000000000D+00 -.105641539025381D+04
 0.327632930391623D+03 0.876443154766986D+02 0.585917255625303D+02 -.296502224938074D+03
 0.307244685116566D+03 -.117499826589940D+03 0.562852128754548D+02 0.278253593139921D+03
 0.650390175782799D+03 -.364100829293221D+03 0.805016732056930D+02 0.532876578087133D+03
 0.678570507939835D+03 0.427202955121102D+03 -.692704477819335D+02 -.514627946288980D+03
 0.131574981246006D+03 -.332466147146387D+02 -.126108163861745D+03 -.174175000307936D+02
0.778928969158D-03 0.000000000000D+00 0.000000000000D+00 0.929508049897D-06 0.000000000000D+00  7 -2 2 23 -13 13 23 21 0 0.35958481D+00 0.63183525D-01 0.28828134D+06 0.28828134D+06 0.28828134D+06 0.10858345D+01  1  2  2  1  7  1       -2 0.838638163262D-04 0.100000000000D+01
-.242407049403D-04 0.000000000000D+00 -.299129233827D-05 0.929508049897D-06 0.000000000000D+00  7 -2 2 23 -13 13 23 21 2 0.35958481D+00 0.63183525D-01 0.28828134D+06 0.28828134D+06 0.28828134D+06 0.10858345D+01  1  2  3  1  7  1       -2 -.307715420634D-05 0.100000000000D+01
0.468498046556D-04 0.000000000000D+00 0.000000000000D+00 0.929508049897D-06 0.000000000000D+00  7 -2 2 23 -13 13 23 21 2 0.35958481D+00 0.63183525D-01 0.28828134D+06 0.28828134D+06 0.28828134D+06 0.10858345D+01  1  2 15  1  7  1       -2 0.594718981222D-05 0.100000000000D+01
0.816107074390D-03 0.000000000000D+00 0.000000000000D+00 0.929508049897D-06 0.000000000000D+00  7 -2 2 23 -13 13 23 21 2 0.39447083D+00 0.63183525D-01 0.36922147D+06 0.36922147D+06 0.36922147D+06 0.10779434D+01  1  2 12  1  7  1       -2 0.569826659584D-04 0.100000000000D+01
-.592569472094D-03 0.000000000000D+00 0.000000000000D+00 0.929508049897D-06 0.000000000000D+00  7 -2 2 23 -13 13 23 21 2 0.35958481D+00 0.63183525D-01 0.28828134D+06 0.28828134D+06 0.28828134D+06 0.10858345D+01  1  2  4  1  7  1       -2 -.752217251145D-04 0.100000000000D+01
0.123988348500D-04 0.000000000000D+00 0.000000000000D+00 0.929508049897D-06 0.000000000000D+00  7 21 2 23 -13 13 23 2 2 0.39447083D+00 0.63183525D-01 0.36922147D+06 0.36922147D+06 0.36922147D+06 0.10779434D+01  1  2 12  3  7  1       -2 0.631375810691D-05 0.100000000000D+01
  </mgrwgt>
  </event>
  <event>
  8     66 0.53686478E-06 0.37749834E+03 0.75467711E-02 0.94429700E-01
       -2 -1    0    0    0  501 0.00000000E+00 0.00000000E+00 0.79665571E+03 0.79665577E+03 0.32000000E+00 0.0000E+00 0.9000E+01
        2 -1    0    0  501    0 0.00000000E+00 0.00000000E+00 -.56323688E+03 0.56323697E+03 0.32000000E+00 0.0000E+00 0.9000E+01
       25  2    1    2    0    0 0.33599456E+03 -.76000349E+02 -.41634733E+03 0.61867891E+03 0.30124757E+03 0.0000E+00 0.0000E+00
       23  2    1    2    0    0 -.33599456E+03 0.76000349E+02 0.64976616E+03 0.74121384E+03 0.92376928E+02 0.0000E+00 0.0000E+00
       23  1    3    3    0    0 0.27164161E+03 -.53474826E+02 -.41206497E+03 0.50473906E+03 0.91188000E+02 0.0000E+00 0.9000E+01
      -11  1    4    4    0    0 -.12220099E+03 0.57517440E+02 0.32509646E+03 0.35203558E+03 0.51099893E-03 0.0000E+00 0.9000E+01
       11  1    4    4    0    0 -.21379356E+03 0.18482909E+02 0.32466970E+03 0.38917826E+03 0.51099893E-03 0.0000E+00 0.9000E+01
       23  1    3    3    0    0 0.64352946E+02 -.22525523E+02 -.42823602E+01 0.11393986E+03 0.91188000E+02 0.0000E+00 0.9000E+01
#aMCatNLO 1  0  0  2  1 0.23614343D+03 0.00000000D+00  -5  7  0 0.00000000D+00 0.00000000D+00 0.00000000D+00 0.00000000D+00 0.00000000D+00
  <mgrwgt>
 0.2903168784D-03    4    2    0
 0.669855196577198D+03 0.000000000000000D+00 0.000000000000000D+00 0.669855196577198D+03
 0.669855196577198D+03 0.000000000000000D+00 0.000000000000000D+00 -.669855196577198D+03
 0.584137218730742D+03 0.271641609667062D+03 -.534748259923264D+02 -.506213707681909D+03
 0.300697073727905D+03 -.122200992487813D+03 0.575174395736719D+02 0.268658503919767D+03
 0.338473654412506D+03 -.213793562846004D+03 0.184829089906148D+02 0.261753909793556D+03
 0.116402446283243D+03 0.643529456667562D+02 -.225255225719603D+02 -.241987060314144D+02
 0.000000000000000D+00 0.000000000000000D+00 0.000000000000000D+00 0.000000000000000D+00
 0.117994314144011D+04 0.000000000000000D+00 0.000000000000000D+00 0.117994314144011D+04
 0.708076690523716D+03 0.000000000000000D+00 0.000000000000000D+00 -.708076690523716D+03
 0.561264102878670D+03 0.192785593332794D+03 -.115254236340603D+03 -.506213707681909D+03
 0.316035831925166D+03 -.164660433702465D+03 0.242527710816804D+02 0.268658503919767D+03
 0.371346755256522D+03 -.262661683358218D+03 -.198026120186568D+02 0.261753909793556D+03
 0.111716371002182D+03 0.486479339449804D+02 -.348295471573672D+02 -.241987060314144D+02
 0.527656770901284D+03 0.185888589782909D+03 0.145633624434946D+03 0.471866450916393D+03
0.883077728522D-04 0.000000000000D+00 0.000000000000D+00 0.268426402753D-06 0.000000000000D+00  7 -2 2 23 -11 11 23 21 0 0.12256243D+00 0.86651840D-01 0.14250499D+06 0.14250499D+06 0.14250499D+06 0.11093129D+01  1  2  2  2  7  2        2 0.299978643755D-03 0.100000000000D+01
-.294412829220D-05 0.000000000000D+00 -.339125099723D-06 0.268426402753D-06 0.000000000000D+00  7 -2 2 23 -11 11 23 21 2 0.12256243D+00 0.86651840D-01 0.14250499D+06 0.14250499D+06 0.14250499D+06 0.11093129D+01  1  2  3  2  7  2        2 -.123071154424D-04 0.100000000000D+01
0.501914396461D-05 0.000000000000D+00 0.000000000000D+00 0.268426402753D-06 0.000000000000D+00  7 -2 2 23 -11 11 23 21 2 0.12256243D+00 0.86651840D-01 0.14250499D+06 0.14250499D+06 0.14250499D+06 0.11093129D+01  1  2 15  2  7  2        2 0.209811455426D-04 0.100000000000D+01
-.438631898252D-05 0.000000000000D+00 0.000000000000D+00 0.268426402753D-06 0.000000000000D+00  7 -2 2 23 -11 11 23 21 2 0.12256243D+00 0.86651840D-01 0.14250499D+06 0.14250499D+06 0.14250499D+06 0.11093129D+01  1  2  4  2  7  2        2 -.183357954300D-04 0.100000000000D+01
  </mgrwgt>
  </event>
  <event>
  8     66 0.53686478E-06 0.19526071E+03 0.75467711E-02 0.10317413E+00
       -2 -1    0    0    0  501 0.00000000E+00 0.00000000E+00 0.14561906E+02 0.14565422E+02 0.32000000E+00 0.0000E+00 0.9000E+01
        2 -1    0    0  501    0 0.00000000E+00 0.00000000E+00 -.31578803E+04 0.31578803E+04 0.32000000E+00 0.0000E+00 0.9000E+01
       25  2    1    2    0    0 -.25700960E+02 0.31935977E+02 -.27420349E+04 0.27586563E+04 0.29958083E+03 0.0000E+00 0.0000E+00
       23  2    1    2    0    0 0.25700960E+02 -.31935977E+02 -.40128353E+03 0.41378949E+03 0.92264955E+02 0.0000E+00 0.0000E+00
       23  1    3    3    0    0 -.71038449E+02 0.11905716E+03 -.16875683E+04 0.16957073E+04 0.91188000E+02 0.0000E+00 0.9000E+01
      -13  1    4    4    0    0 0.54082120E+02 -.30624731E+02 -.17459058E+03 0.18532305E+03 0.10565837E+00 0.0000E+00 0.9000E+01
       13  1    4    4    0    0 -.28381160E+02 -.13112458E+01 -.22669295E+03 0.22846644E+03 0.10565837E+00 0.0000E+00 0.9000E+01
       23  1    3    3    0    0 0.45337489E+02 -.87121181E+02 -.10544666E+04 0.10629490E+04 0.91188000E+02 0.0000E+00 0.9000E+01
#aMCatNLO 1  0  0  1  2 0.96904116D+02 0.00000000D+00  -5  7  0 0.00000000D+00 0.00000000D+00 0.00000000D+00 0.00000000D+00 0.00000000D+00
  <mgrwgt>
 0.3365815767D-03    4    2    0
 0.214453628329655D+03 0.000000000000000D+00 0.000000000000000D+00 0.214453628329655D+03
 0.214453628329655D+03 0.000000000000000D+00 0.000000000000000D+00 -.214453628329655D+03
 0.174804151444546D+03 -.710384489425494D+02 0.119057154847070D+03 -.549560976580873D+02
 0.912401691649195D+02 0.540822314093198D+02 -.306247790736081D+02 0.667982306780996D+02
 0.285125194335771D+02 -.283812603752498D+02 -.131121164555316D+01 -.239761297605688D+01
 0.134350416616267D+03 0.453374779084794D+02 -.871211641279092D+02 -.944452004395542D+01
 0.000000000000000D+00 -.000000000000000D+00 0.000000000000000D+00 -.000000000000000D+00
 0.236178200720881D+03 0.000000000000000D+00 0.000000000000000D+00 0.236178200720881D+03
 0.363713771755269D+03 0.000000000000000D+00 0.000000000000000D+00 -.363713771755269D+03
 0.148473739388869D+03 -.588725958771832D+02 0.851060792716380D+02 -.549560976580873D+02
 0.104175295316578D+03 0.614362630180179D+02 -.511475719751443D+02 0.667982306780996D+02
 0.273470084925700D+02 -.262791097849379D+02 -.717765382426024D+01 -.239761297605688D+01
 0.159721869178489D+03 0.564042422032853D+02 -.118005028081361D+03 -.944452004395542D+01
 0.160174060099644D+03 -.326887995591821D+02 0.912241746091273D+02 -.127535571034388D+03
0.321905791666D-05 0.000000000000D+00 0.000000000000D+00 0.683186679499D-07 0.000000000000D+00  7 -2 2 23 -13 13 23 21 0 0.22405649D-02 0.48582801D+00 0.38126747D+05 0.38126747D+05 0.38126747D+05 0.11577981D+01  1  2  2  1  7  1       -2 0.354265659359D-03 0.100000000000D+01
-.176925143632D-06 0.000000000000D+00 -.123620299974D-07 0.683186679499D-07 0.000000000000D+00  7 -2 2 23 -13 13 23 21 2 0.22405649D-02 0.48582801D+00 0.38126747D+05 0.38126747D+05 0.38126747D+05 0.11577981D+01  1  2  3  1  7  1       -2 -.261008981968D-04 0.100000000000D+01
0.195433412311D-06 0.000000000000D+00 0.000000000000D+00 0.683186679499D-07 0.000000000000D+00  7 -2 2 23 -13 13 23 21 2 0.22405649D-02 0.48582801D+00 0.38126747D+05 0.38126747D+05 0.38126747D+05 0.11577981D+01  1  2 15  1  7  1       -2 0.288313322475D-04 0.100000000000D+01
-.138379962308D-06 0.000000000000D+00 0.000000000000D+00 0.683186679499D-07 0.000000000000D+00  7 -2 2 23 -13 13 23 21 2 0.22405649D-02 0.48582801D+00 0.38126747D+05 0.38126747D+05 0.38126747D+05 0.11577981D+01  1  2  4  1  7  1       -2 -.204145167528D-04 0.100000000000D+01
  </mgrwgt>
  </event>
  <event>
  8     66 0.53686478E-06 0.27414772E+03 0.75467711E-02 0.93196763E-01
       -2 -1    0    0    0  501 0.00000000E+00 0.00000000E+00 0.17272090E+03 0.17272120E+03 0.32000000E+00 0.0000E+00 0.9000E+01
        2 -1    0    0  501    0 0.00000000E+00 0.00000000E+00 -.16001107E+04 0.16001107E+04 0.32000000E+00 0.0000E+00 0.9000E+01
       25  2    1    2    0    0 -.19670634E+03 -.80546124E+02 -.44247294E+02 0.37058571E+03 0.30032463E+03 0.0000E+00 0.0000E+00
       23  2    1    2    0    0 0.19670634E+03 0.80546124E+02 -.13831425E+04 0.14022462E+04 0.89611602E+02 0.0000E+00 0.0000E+00
       23  1    3    3    0    0 0.36654107E+01 -.32280141E+02 -.99203563E+02 0.13860751E+03 0.91188000E+02 0.0000E+00 0.9000E+01
      -13  1    4    4    0    0 -.56562617E+01 0.10588283E+02 -.16445780E+03 0.16489537E+03 0.10565837E+00 0.0000E+00 0.9000E+01
       13  1    4    4    0    0 0.20236260E+03 0.69957841E+02 -.12186847E+04 0.12373508E+04 0.10565837E+00 0.0000E+00 0.9000E+01
       23  1    3    3    0    0 -.20037175E+03 -.48265983E+02 0.54956268E+02 0.23197820E+03 0.91188000E+02 0.0000E+00 0.9000E+01
#aMCatNLO 1  0  0  2  2 0.45789177D+03 0.00000000D+00  -5  7  0 0.00000000D+00 0.00000000D+00 0.00000000D+00 0.00000000D+00 0.00000000D+00
  <mgrwgt>
 0.5181979670D-03    3    2    0
 0.525711755899127D+03 0.000000000000000D+00 0.000000000000000D+00 0.525711755899127D+03
 0.525711755899127D+03 0.000000000000000D+00 0.000000000000000D+00 -.525711755899127D+03
 0.990330329356536D+02 0.366541074456719D+01 -.322801410596456D+02 0.209008977241947D+02
 0.547694103559762D+02 -.565655080762085D+01 0.105882006038027D+02 -.534376435827381D+02
 0.431869297749634D+03 0.202362886363078D+03 0.699579232064482D+02 -.375054984691854D+03
 0.465751770756989D+03 -.200371746300024D+03 -.482659827506053D+02 0.407591730550398D+03
 0.000000000000000D+00 -.000000000000000D+00 0.000000000000000D+00 0.000000000000000D+00
 0.119559270722651D+04 0.000000000000000D+00 0.000000000000000D+00 0.119559270722651D+04
 0.657645841136031D+03 0.000000000000000D+00 0.000000000000000D+00 -.657645841136031D+03
 0.116231725149922D+03 0.428766638629546D+02 -.540306094508753D+02 0.209008977241947D+02
 0.553468621752725D+02 0.144015259211284D+02 -.538007542627033D+00 -.534376435827381D+02
 0.533333703974403D+03 0.378178098977597D+03 -.275667137421275D+02 -.375054984691854D+03
 0.441890340050313D+03 -.350414578483295D+02 -.139974635933005D+03 0.407591730550398D+03
 0.706435917012633D+03 -.400414830913350D+03 0.222109966668635D+03 0.537946866090482D+03
0.270471989075D-04 0.000000000000D+00 0.000000000000D+00 0.942213992272D-06 0.000000000000D+00  7 -2 2 23 -13 13 23 21 0 0.26572472D-01 0.24617090D+00 0.75156975D+05 0.75156975D+05 0.75156975D+05 0.11320446D+01  1  2  2  2  7  2        2 0.496952032044D-03 0.100000000000D+01
-.728146163912D-06 0.000000000000D+00 -.103868365496D-06 0.942213992272D-06 0.000000000000D+00  7 -2 2 23 -13 13 23 21 2 0.26572472D-01 0.24617090D+00 0.75156975D+05 0.75156975D+05 0.75156975D+05 0.11320446D+01  1  2  3  2  7  2        2 -.171450118433D-04 0.100000000000D+01
0.163045793518D-05 0.000000000000D+00 0.000000000000D+00 0.942213992272D-06 0.000000000000D+00  7 -2 2 23 -13 13 23 21 2 0.26572472D-01 0.24617090D+00 0.75156975D+05 0.75156975D+05 0.75156975D+05 0.11320446D+01  1  2 15  2  7  2        2 0.383909467553D-04 0.100000000000D+01
  </mgrwgt>
  </event>
  <event>
  9     66 -.53686478E-06 0.14090086E+03 0.75467711E-02 0.11120096E+00
       -2 -1    0    0    0  502 0.00000000E+00 0.00000000E+00 0.64146852E+03 0.64146860E+03 0.32000000E+00 0.0000E+00 0.9000E+01
        2 -1    0    0  501    0 0.00000000E+00 0.00000000E+00 -.18315094E+03 0.18315122E+03 0.32000000E+00 0.0000E+00 0.9000E+01
       25  2    1    2    0    0 -.48694986E+02 0.23144208E+02 0.56678558E+03 0.64451980E+03 0.30208117E+03 0.0000E+00 0.0000E+00
       23  2    1    2    0    0 0.54727928E+02 -.24776939E+02 -.12277316E+03 0.16447112E+03 0.91479278E+02 0.0000E+00 0.0000E+00
       23  1    3    3    0    0 0.96930099E+01 0.58937968E+02 0.58731481E+02 0.12382357E+03 0.91188000E+02 0.0000E+00 0.9000E+01
      -13  1    4    4    0    0 0.51942469E+02 -.23208858E+02 -.13781337E+03 0.14909462E+03 0.10565837E+00 0.0000E+00 0.9000E+01
       13  1    4    4    0    0 0.27854596E+01 -.15680809E+01 0.15040209E+02 0.15376498E+02 0.10565837E+00 0.0000E+00 0.9000E+01
       23  1    3    3    0    0 -.58387996E+02 -.35793761E+02 0.50805410E+03 0.52069623E+03 0.91188000E+02 0.0000E+00 0.9000E+01
       21  1    1    2  501  502 -.60329420E+01 0.16327309E+01 0.14305163E+02 0.15628896E+02 0.75000000E+00 0.0000E+00 0.9000E+01
#aMCatNLO 2  0  0  1  2 0.62499759D+01 0.00000000D+00  -5  7  0 0.00000000D+00 0.00000000D+00 0.00000000D+00 0.00000000D+00 0.00000000D+00
  <mgrwgt>
 -.1349389403D-03    3    2    0
 0.338112489759247D+03 0.000000000000000D+00 0.000000000000000D+00 0.338112489759247D+03
 0.338112489759247D+03 0.000000000000000D+00 0.000000000000000D+00 -.338112489759247D+03
 0.109626814780312D+03 0.871526489394543D+01 0.592025812342450D+02 -.110401860449860D+02
 0.268336753616860D+03 0.495463529284606D+02 -.225603937777148D+02 -.262756162412451D+03
 0.849097421702312D+01 0.270951724172313D+01 -.154751703547959D+01 0.789685700110223D+01
 0.289770436904298D+03 -.609711350641292D+02 -.350946704210506D+02 0.265899491456335D+03
 0.000000000000000D+00 -.000000000000000D+00 0.000000000000000D+00 0.000000000000000D+00
 0.346189327580202D+03 0.000000000000000D+00 0.000000000000000D+00 0.346189327580202D+03
 0.339338177205912D+03 0.000000000000000D+00 0.000000000000000D+00 -.339338177205912D+03
 0.109566306866672D+03 0.969300986707513D+01 0.589379683074550D+02 -.110401860449860D+02
 0.268844713865480D+03 0.519425343211194D+02 -.232088865737468D+02 -.262756162412451D+03
 0.851924627964081D+01 0.278539397297032D+01 -.156805200572475D+01 0.789685700110223D+01
 0.289323594436767D+03 -.583879961688083D+02 -.357937606359642D+02 0.265899491456335D+03
 0.927364333755345D+01 -.603294199235656D+01 0.163273090798081D+01 0.685115037429004D+01
-.979921800070D-05 0.000000000000D+00 0.000000000000D+00 0.667670421617D-07 0.000000000000D+00  7 -2 2 23 -13 13 23 21 2 0.98855331D-01 0.28074070D-01 0.20936500D+05 0.20936500D+05 0.20936500D+05 0.11821136D+01  1  2 13  1  7  1       -2 -.284626204180D-03 0.100000000000D+01
-.739286760001D-04 0.000000000000D+00 0.000000000000D+00 0.667670421617D-07 0.000000000000D+00  7 -2 2 23 -13 13 23 21 2 0.96380756D-01 0.28074070D-01 0.19853054D+05 0.19853054D+05 0.19853054D+05 0.11843459D+01  1  2  8  1  7  1       -2 -.228797201933D-02 0.100000000000D+01
0.839209961848D-04 0.000000000000D+00 0.000000000000D+00 0.667670421617D-07 0.127421890257D-07  7 -2 2 23 -13 13 23 21 2 0.98683102D-01 0.28175841D-01 0.20936500D+05 0.20936500D+05 0.20936500D+05 0.11821136D+01  1  2  1  1  7  1       -2 0.243765928322D-02 0.100000000000D+01
  </mgrwgt>
  </event>
  <event>
  8     66 0.53686478E-06 0.27036716E+03 0.75467711E-02 0.94651380E-01
       -2 -1    0    0    0  501 0.00000000E+00 0.00000000E+00 0.19843805E+03 0.19843831E+03 0.32000000E+00 0.0000E+00 0.9000E+01
        2 -1    0    0  501    0 0.00000000E+00 0.00000000E+00 -.44940760E+03 0.44940771E+03 0.32000000E+00 0.0000E+00 0.9000E+01
       25  2    1    2    0    0 -.12622403E+03 -.12817807E+03 -.27545876E+03 0.44534926E+03 0.30016047E+03 0.0000E+00 0.0000E+00
       23  2    1    2    0    0 0.12622403E+03 0.12817807E+03 0.24489215E+02 0.20249676E+03 0.89683305E+02 0.0000E+00 0.0000E+00
       23  1    3    3    0    0 0.56757409E+02 -.66100409E+02 -.15585033E+03 0.20048752E+03 0.91188000E+02 0.0000E+00 0.9000E+01
      -13  1    4    4    0    0 0.13617124E+03 0.94272747E+02 0.18358808E+02 0.16663438E+03 0.10565837E+00 0.0000E+00 0.9000E+01
       13  1    4    4    0    0 -.99472141E+01 0.33905318E+02 0.61304072E+01 0.35862386E+02 0.10565837E+00 0.0000E+00 0.9000E+01
       23  1    3    3    0    0 -.18298144E+03 -.62077656E+02 -.11960843E+03 0.24486174E+03 0.91188000E+02 0.0000E+00 0.9000E+01
#aMCatNLO 1  0  0  2  2 0.34744610D+03 0.00000000D+00  -5  7  0 0.00000000D+00 0.00000000D+00 0.00000000D+00 0.00000000D+00 0.00000000D+00
  <mgrwgt>
 0.3153693182D-03    3    2    0
 0.298629682481008D+03 0.000000000000000D+00 0.000000000000000D+00 0.298629682481008D+03
 0.298629682481008D+03 0.000000000000000D+00 0.000000000000000D+00 -.298629682481008D+03
 0.151979789856571D+03 0.567574078550503D+02 -.661004092065341D+02 -.848052930963144D+02
 0.188462580519795D+03 0.136171446729630D+03 0.942728308006348D+02 0.899339464527966D+02
 0.414756622914865D+02 -.994741649019306D+01 0.339052346278327D+02 0.217189901358162D+02
 0.215341332294162D+03 -.182981438094488D+03 -.620776562219333D+02 -.268476434922984D+02
 0.000000000000000D+00 -.000000000000000D+00 -.000000000000000D+00 0.000000000000000D+00
 0.548820763596404D+03 0.000000000000000D+00 0.000000000000000D+00 0.548820763596404D+03
 0.493906724591020D+03 0.000000000000000D+00 0.000000000000000D+00 -.493906724591020D+03
 0.190451669188731D+03 0.141209318243650D+03 -.287154602398331D+02 -.848052930963144D+02
 0.312666938094050D+03 0.259762151033057D+03 0.148983637837226D+03 0.899339464527966D+02
 0.506756571261066D+02 0.127793358687841D+02 0.439658534250826D+02 0.217189901358162D+02
 0.137174290798890D+03 -.960425280567349D+02 -.235917688094831D+02 -.268476434922984D+02
 0.351758932979646D+03 -.317708277088756D+03 -.140642262212993D+03 0.549140390053838D+02
0.382138241211D-05 0.000000000000D+00 0.000000000000D+00 0.152519865742D-06 0.000000000000D+00  7 -2 2 23 -13 13 23 21 0 0.30528959D-01 0.69139659D-01 0.73098400D+05 0.73098400D+05 0.73098400D+05 0.11330641D+01  1  2  2  2  7  2        2 0.311631577623D-03 0.100000000000D+01
-.209747457211D-06 0.000000000000D+00 -.146751146556D-07 0.152519865742D-06 0.000000000000D+00  7 -2 2 23 -13 13 23 21 2 0.30528959D-01 0.69139659D-01 0.73098400D+05 0.73098400D+05 0.73098400D+05 0.11330641D+01  1  2  3  2  7  2        2 -.219597094490D-04 0.100000000000D+01
0.245448366175D-06 0.000000000000D+00 0.000000000000D+00 0.152519865742D-06 0.000000000000D+00  7 -2 2 23 -13 13 23 21 2 0.30528959D-01 0.69139659D-01 0.73098400D+05 0.73098400D+05 0.73098400D+05 0.11330641D+01  1  2 15  2  7  2        2 0.256974500554D-04 0.100000000000D+01
  </mgrwgt>
  </event>
  <event>
  8     66 0.53686478E-06 0.24965177E+03 0.75467711E-02 0.83595891E-01
       -2 -1    0    0    0  501 0.00000000E+00 0.00000000E+00 0.13570259E+03 0.13570297E+03 0.32000000E+00 0.0000E+00 0.9000E+01
        2 -1    0    0  501    0 0.00000000E+00 0.00000000E+00 -.10057268E+04 0.10057269E+04 0.32000000E+00 0.0000E+00 0.9000E+01
       25  2    1    2    0    0 0.12367710E+02 0.15461983E+03 -.10156483E+03 0.35232043E+03 0.29958975E+03 0.0000E+00 0.0000E+00
       23  2    1    2    0    0 -.12367710E+02 -.15461983E+03 -.76845939E+03 0.78910939E+03 0.90019724E+02 0.0000E+00 0.0000E+00
       23  1    3    3    0    0 -.85879070E+02 0.14031369E+03 -.10885321E+03 0.21731870E+03 0.91188000E+02 0.0000E+00 0.9000E+01
      -13  1    4    4    0    0 -.14910907E+02 -.16502399E+03 -.67506825E+03 0.69510604E+03 0.10565837E+00 0.0000E+00 0.9000E+01
       13  1    4    4    0    0 0.25431970E+01 0.10404164E+02 -.93391141E+02 0.94003356E+02 0.10565837E+00 0.0000E+00 0.9000E+01
       23  1    3    3    0    0 0.98246779E+02 0.14306142E+02 0.72883831E+01 0.13500173E+03 0.91188000E+02 0.0000E+00 0.9000E+01
#aMCatNLO 1  0  0  1  1 0.14740863D+04 0.00000000D+00  -5  7  0 0.00000000D+00 0.00000000D+00 0.00000000D+00 0.00000000D+00 0.00000000D+00
  <mgrwgt>
 0.4577715127D-03    3    2    0
 0.369431965923135D+03 0.000000000000000D+00 0.000000000000000D+00 0.369431965923135D+03
 0.369431965923135D+03 0.000000000000000D+00 0.000000000000000D+00 -.369431965923135D+03
 0.207547170747285D+03 -.858790697012375D+02 0.140313685961958D+03 0.877350081792974D+02
 0.278927255115877D+03 -.149109306755128D+02 -.165024233293662D+03 -.224377093792362D+03
 0.352506467110125D+02 0.254322097169169D+01 0.104044055526420D+02 -.335840507641635D+02
 0.217138859272097D+03 0.982467794050586D+02 0.143061417790616D+02 0.170226136377228D+03
 0.000000000000000D+00 0.000000000000000D+00 0.000000000000000D+00 -.000000000000000D+00
 0.127788967723792D+04 0.000000000000000D+00 0.000000000000000D+00 0.127788967723792D+04
 0.202246477101751D+04 0.000000000000000D+00 0.000000000000000D+00 -.202246477101751D+04
 0.608250547183751D+03 -.587412016306892D+03 0.943566014827910D+02 0.877350081792974D+02
 0.682138304481261D+03 -.605751075715869D+03 -.219164824939884D+03 -.224377093792362D+03
 0.717206047518698D+02 -.632201487571865D+02 0.437829548605624D+01 -.335840507641635D+02
 0.286784244891331D+03 -.211553105711950D+03 -.140818227371626D+02 0.170226136377228D+03
 0.165146074694721D+04 0.146793634649190D+04 0.134511750708199D+03 -.744575093779587D+03
0.760244791979D-05 0.000000000000D+00 0.000000000000D+00 0.339430361462D-06 0.000000000000D+00  7 -2 2 23 -13 13 23 21 0 0.20877355D-01 0.15472723D+00 0.62326006D+05 0.62326006D+05 0.62326006D+05 0.11389717D+01  1  2  2  1  7  1       -2 0.450445809165D-03 0.100000000000D+01
-.343488183269D-06 0.000000000000D+00 -.291954017825D-07 0.339430361462D-06 0.000000000000D+00  7 -2 2 23 -13 13 23 21 2 0.20877355D-01 0.15472723D+00 0.62326006D+05 0.62326006D+05 0.62326006D+05 0.11389717D+01  1  2  3  1  7  1       -2 -.264013866394D-04 0.100000000000D+01
0.438797290957D-06 0.000000000000D+00 0.000000000000D+00 0.339430361462D-06 0.000000000000D+00  7 -2 2 23 -13 13 23 21 2 0.20877355D-01 0.15472723D+00 0.62326006D+05 0.62326006D+05 0.62326006D+05 0.11389717D+01  1  2 15  1  7  1       -2 0.337270901858D-04 0.100000000000D+01
  </mgrwgt>
  </event>
  <event>
  8     66 0.53686478E-06 0.15569215E+03 0.75467711E-02 0.10112097E+00
       -2 -1    0    0    0  501 0.00000000E+00 0.00000000E+00 0.62030439E+02 0.62031264E+02 0.32000000E+00 0.0000E+00 0.9000E+01
        2 -1    0    0  501    0 0.00000000E+00 0.00000000E+00 -.14953670E+04 0.14953670E+04 0.32000000E+00 0.0000E+00 0.9000E+01
       25  2    1    2    0    0 0.63746568E+02 0.18428997E+03 -.11046076E+04 0.11611235E+04 0.30003930E+03 0.0000E+00 0.0000E+00
       23  2    1    2    0    0 -.63746568E+02 -.18428997E+03 -.32872899E+03 0.39627475E+03 0.10461604E+03 0.0000E+00 0.0000E+00
       23  1    3    3    0    0 -.16769256E+02 0.78974155E+02 -.15080310E+03 0.19384260E+03 0.91188000E+02 0.0000E+00 0.9000E+01
      -11  1    4    4    0    0 -.88323459E+02 -.16422110E+03 -.30130286E+03 0.35433461E+03 0.51099893E-03 0.0000E+00 0.9000E+01
       11  1    4    4    0    0 0.24576891E+02 -.20068868E+02 -.27426126E+02 0.41940141E+02 0.51099893E-03 0.0000E+00 0.9000E+01
       23  1    3    3    0    0 0.80515824E+02 0.10531581E+03 -.95380446E+03 0.96728094E+03 0.91188000E+02 0.0000E+00 0.9000E+01
#aMCatNLO 1  0  0  1  2 0.76171877D+02 0.00000000D+00  -5  7  0 0.00000000D+00 0.00000000D+00 0.00000000D+00 0.00000000D+00 0.00000000D+00
  <mgrwgt>
 0.1819256083D-03    9    2    0
 0.304563524330365D+03 0.000000000000000D+00 0.000000000000000D+00 0.304563524330365D+03
 0.304563524330365D+03 0.000000000000000D+00 0.000000000000000D+00 -.304563524330365D+03
 0.140756397864779D+03 -.167692556838569D+02 0.789741553965596D+02 0.705619376085830D+02
 0.196956795911682D+03 -.883234582077052D+02 -.164221096967420D+03 0.634222161142674D+02
 0.426949264310950D+02 0.245768896550466D+02 -.200688687614858D+02 0.285670044714971D+02
 0.228718928453174D+03 0.805158242365155D+02 0.105315810332346D+03 -.162551158194347D+03
 0.000000000000000D+00 -.000000000000000D+00 0.000000000000000D+00 0.000000000000000D+00
 0.528577866532155D+03 0.000000000000000D+00 0.000000000000000D+00 0.528577866532155D+03
 0.313480131780446D+03 0.000000000000000D+00 0.000000000000000D+00 -.313480131780446D+03
 0.137353563171326D+03 0.232768232775626D-02 0.746442424260819D+02 0.705619376085830D+02
 0.192929972415063D+03 -.648111093008086D+02 -.170291270681825D+03 0.634222161142674D+02
 0.466305888276053D+02 0.299637169384253D+02 -.214595838069747D+02 0.285670044714971D+02
 0.236957129412186D+03 0.108598690441769D+03 0.980656679948324D+02 -.162551158194347D+03
 0.228186744486422D+03 -.737536257617133D+02 0.190409440678853D+02 0.215097734751709D+03
0.175238920368D-05 0.000000000000D+00 0.000000000000D+00 0.417408779518D-08 0.000000000000D+00  7 -2 2 23 -11 11 23 21 0 0.95432106D-02 0.23005653D+00 0.62722781D+05 0.62722781D+05 0.62722781D+05 0.11387347D+01  1  2  2  1  7  1       -2 0.190908999367D-03 0.100000000000D+01
-.928243790164D-07 0.000000000000D+00 -.672963595680D-08 0.417408779518D-08 0.000000000000D+00  7 -2 2 23 -11 11 23 21 2 0.95432106D-02 0.23005653D+00 0.62722781D+05 0.62722781D+05 0.62722781D+05 0.11387347D+01  1  2  3  1  7  1       -2 -.131130281769D-04 0.100000000000D+01
0.110843952441D-06 0.000000000000D+00 0.000000000000D+00 0.417408779518D-08 0.000000000000D+00  7 -2 2 23 -11 11 23 21 2 0.95432106D-02 0.23005653D+00 0.62722781D+05 0.62722781D+05 0.62722781D+05 0.11387347D+01  1  2 15  1  7  1       -2 0.156586005422D-04 0.100000000000D+01
0.582587400165D-05 0.000000000000D+00 0.000000000000D+00 0.417408779518D-08 0.000000000000D+00  7 -2 2 23 -11 11 23 21 2 0.16610550D-01 0.23005653D+00 0.85699629D+05 0.85699629D+05 0.85699629D+05 0.11272637D+01  1  2 12  1  7  1       -2 0.336573856139D-03 0.100000000000D+01
-.560296436826D-05 0.000000000000D+00 0.000000000000D+00 0.417408779518D-08 0.000000000000D+00  7 -2 2 23 -11 11 23 21 2 0.95432106D-02 0.23005653D+00 0.62722781D+05 0.62722781D+05 0.62722781D+05 0.11387347D+01  1  2  4  1  7  1       -2 -.791514367385D-03 0.100000000000D+01
-.622331844340D-05 0.000000000000D+00 -.598807820456D-06 0.417408779518D-08 0.000000000000D+00  7 -2 2 23 -11 11 23 21 2 0.16956977D-01 0.23005653D+00 0.62722781D+05 0.62722781D+05 0.62722781D+05 0.11387347D+01  1  2  5  1  7  1       -2 -.357106113137D-03 0.100000000000D+01
0.568842839522D-05 0.000000000000D+00 0.511877558043D-06 0.417408779518D-08 0.000000000000D+00  7 -2 2 23 -11 11 23 21 2 0.95432106D-02 0.23005653D+00 0.62722781D+05 0.62722781D+05 0.62722781D+05 0.11387347D+01  1  2  6  1  7  1       -2 0.803587620182D-03 0.100000000000D+01
0.357189979306D-06 0.000000000000D+00 0.000000000000D+00 0.417408779518D-08 0.000000000000D+00  7 21 2 23 -11 11 23 2 2 0.16610550D-01 0.23005653D+00 0.85699629D+05 0.85699629D+05 0.85699629D+05 0.11272637D+01  1  2 12  3  7  1       -2 0.275301954900D-03 0.100000000000D+01
-.362365610129D-06 0.000000000000D+00 -.378684232171D-07 0.417408779518D-08 0.000000000000D+00  7 21 2 23 -11 11 23 2 2 0.16956977D-01 0.23005653D+00 0.62722781D+05 0.62722781D+05 0.62722781D+05 0.11387347D+01  1  2  5  3  7  1       -2 -.278371914176D-03 0.100000000000D+01
  </mgrwgt>
  </event>
  <event>
  8     66 0.53686478E-06 0.19205113E+03 0.75467711E-02 0.98712204E-01
       -2 -1    0    0    0  501 0.00000000E+00 0.00000000E+00 0.47793185E+02 0.47794256E+02 0.32000000E+00 0.0000E+00 0.9000E+01
        2 -1    0    0  501    0 0.00000000E+00 0.00000000E+00 -.25618380E+04 0.25618380E+04 0.32000000E+00 0.0000E+00 0.9000E+01
       25  2    1    2    0    0 -.26308923E+03 -.77012757E+02 -.15768548E+04 0.16284844E+04 0.30057231E+03 0.0000E+00 0.0000E+00
       23  2    1    2    0    0 0.26308923E+03 0.77012757E+02 -.93719006E+03 0.98114784E+03 0.95806968E+02 0.0000E+00 0.0000E+00
       23  1    3    3    0    0 -.85417860E+02 -.87153254E+02 -.30416559E+03 0.34018209E+03 0.91188000E+02 0.0000E+00 0.9000E+01
      -11  1    4    4    0    0 0.12242954E+03 0.51278732E+01 -.28739212E+03 0.31242522E+03 0.51099893E-03 0.0000E+00 0.9000E+01
       11  1    4    4    0    0 0.14065969E+03 0.71884884E+02 -.64979794E+03 0.66872262E+03 0.51099893E-03 0.0000E+00 0.9000E+01
       23  1    3    3    0    0 -.17767137E+03 0.10140496E+02 -.12726892E+04 0.12883023E+04 0.91188000E+02 0.0000E+00 0.9000E+01
#aMCatNLO 1  0  0  1  2 0.68979636D+02 0.00000000D+00  -5  7  0 0.00000000D+00 0.00000000D+00 0.00000000D+00 0.00000000D+00 0.00000000D+00
  <mgrwgt>
 0.2089527136D-03    9    2    0
 0.349914018839349D+03 0.000000000000000D+00 0.000000000000000D+00 0.349914018839349D+03
 0.349914018839349D+03 0.000000000000000D+00 0.000000000000000D+00 -.349914018839349D+03
 0.175849273374369D+03 -.854178603456575D+02 -.871532537057087D+02 0.878397125722279D+02
 0.132601530744550D+03 0.122429540742548D+03 0.512787323040320D+01 0.506742382823821D+02
 0.159323427145078D+03 0.140659690732796D+03 0.718848841826645D+02 -.207694310526768D+02
 0.232053806414702D+03 -.177671371129687D+03 0.101404962926410D+02 -.117744519801933D+03
 0.000000000000000D+00 0.000000000000000D+00 0.000000000000000D+00 0.000000000000000D+00
 0.428273438421120D+03 0.000000000000000D+00 0.000000000000000D+00 0.428273438421120D+03
 0.367126108135591D+03 0.000000000000000D+00 0.000000000000000D+00 -.367126108135591D+03
 0.185429286154345D+03 -.103167933878573D+03 -.878027968470522D+02 0.878397125722279D+02
 0.121166240510312D+03 0.109961608502302D+03 0.467162386003468D+01 0.506742382823821D+02
 0.145981321891070D+03 0.125659681453505D+03 0.713359764201481D+02 -.207694310526768D+02
 0.250642514483621D+03 -.201386853169887D+03 0.927265601725835D+01 -.117744519801933D+03
 0.921801835173643D+02 0.689334970926535D+02 0.252254054961098D+01 0.611473302855297D+02
0.422090109155D-05 0.000000000000D+00 0.000000000000D+00 0.195066994063D-07 0.000000000000D+00  7 -2 2 23 -11 11 23 21 0 0.73528816D-02 0.39412901D+00 0.10010981D+06 0.10010981D+06 0.10010981D+06 0.11216829D+01  1  2  2  1  7  1       -2 0.178648613744D-03 0.100000000000D+01
-.231604717077D-06 0.000000000000D+00 -.162093715803D-07 0.195066994063D-07 0.000000000000D+00  7 -2 2 23 -11 11 23 21 2 0.73528816D-02 0.39412901D+00 0.10010981D+06 0.10010981D+06 0.10010981D+06 0.11216829D+01  1  2  3  1  7  1       -2 -.123333796263D-04 0.100000000000D+01
0.265214018172D-06 0.000000000000D+00 0.000000000000D+00 0.195066994063D-07 0.000000000000D+00  7 -2 2 23 -11 11 23 21 2 0.73528816D-02 0.39412901D+00 0.10010981D+06 0.10010981D+06 0.10010981D+06 0.11216829D+01  1  2 15  1  7  1       -2 0.141231370829D-04 0.100000000000D+01
0.665651433023D-05 0.000000000000D+00 0.000000000000D+00 0.195066994063D-07 0.000000000000D+00  7 -2 2 23 -11 11 23 21 2 0.91513550D-02 0.39412901D+00 0.12535320D+06 0.12535320D+06 0.12535320D+06 0.11137568D+01  1  2 12  1  7  1       -2 0.248650961297D-03 0.100000000000D+01
-.683331269972D-05 0.000000000000D+00 0.000000000000D+00 0.195066994063D-07 0.000000000000D+00  7 -2 2 23 -11 11 23 21 2 0.73528816D-02 0.39412901D+00 0.10010981D+06 0.10010981D+06 0.10010981D+06 0.11216829D+01  1  2  4  1  7  1       -2 -.363886542098D-03 0.100000000000D+01
-.106468622052D-04 0.000000000000D+00 -.243455584811D-05 0.195066994063D-07 0.000000000000D+00  7 -2 2 23 -11 11 23 21 2 0.95428862D-02 0.39412901D+00 0.10010981D+06 0.10010981D+06 0.10010981D+06 0.11216829D+01  1  2  5  1  7  1       -2 -.381092114878D-03 0.100000000000D+01
0.109865367652D-04 0.000000000000D+00 0.235410178085D-05 0.195066994063D-07 0.000000000000D+00  7 -2 2 23 -11 11 23 21 2 0.73528816D-02 0.39412901D+00 0.10010981D+06 0.10010981D+06 0.10010981D+06 0.11216829D+01  1  2  6  1  7  1       -2 0.585053406569D-03 0.100000000000D+01
0.203966612491D-06 0.000000000000D+00 0.000000000000D+00 0.195066994063D-07 0.000000000000D+00  7 21 2 23 -11 11 23 2 2 0.91513550D-02 0.39412901D+00 0.12535320D+06 0.12535320D+06 0.12535320D+06 0.11137568D+01  1  2 12  3  7  1       -2 0.112307664137D-03 0.100000000000D+01
-.327922167578D-06 0.000000000000D+00 -.849732111968D-07 0.195066994063D-07 0.000000000000D+00  7 21 2 23 -11 11 23 2 2 0.95428862D-02 0.39412901D+00 0.10010981D+06 0.10010981D+06 0.10010981D+06 0.11216829D+01  1  2  5  3  7  1       -2 -.172519032631D-03 0.100000000000D+01
  </mgrwgt>
  </event>
  <event>
  8     66 0.53686478E-06 0.18547435E+03 0.75467711E-02 0.95402217E-01
       -2 -1    0    0    0  501 0.00000000E+00 0.00000000E+00 0.33582558E+03 0.33582573E+03 0.32000000E+00 0.0000E+00 0.9000E+01
        2 -1    0    0  501    0 0.00000000E+00 0.00000000E+00 -.15258447E+04 0.15258448E+04 0.32000000E+00 0.0000E+00 0.9000E+01
       25  2    1    2    0    0 0.74899458E+02 -.32634143E+03 -.13901185E+04 0.14609964E+04 0.29995425E+03 0.0000E+00 0.0000E+00
       23  2    1    2    0    0 -.74899458E+02 0.32634143E+03 0.20009932E+03 0.40067406E+03 0.91604066E+02 0.0000E+00 0.0000E+00
       23  1    3    3    0    0 -.68030874E+02 -.18328576E+03 -.51837571E+03 0.56147173E+03 0.91188000E+02 0.0000E+00 0.9000E+01
      -11  1    4    4    0    0 -.97189244E+01 0.84962365E+01 -.80254157E+01 0.15200356E+02 0.51099893E-03 0.0000E+00 0.9000E+01
       11  1    4    4    0    0 -.65180533E+02 0.31784519E+03 0.20812474E+03 0.38547370E+03 0.51099893E-03 0.0000E+00 0.9000E+01
       23  1    3    3    0    0 0.14293033E+03 -.14305567E+03 -.87174276E+03 0.89952471E+03 0.91188000E+02 0.0000E+00 0.9000E+01
#aMCatNLO 1  0  0  1  2 0.16445820D+03 0.00000000D+00  -5  7  0 0.00000000D+00 0.00000000D+00 0.00000000D+00 0.00000000D+00 0.00000000D+00
  <mgrwgt>
 0.2600594063D-03    9    2    0
 0.715833682621401D+03 0.000000000000000D+00 0.000000000000000D+00 0.715833682621401D+03
 0.715833682621401D+03 0.000000000000000D+00 0.000000000000000D+00 -.715833682621401D+03
 0.299230347026058D+03 -.680308741811972D+02 -.183285764224262D+03 -.207368459579092D+03
 0.130949802608599D+02 -.971892441344401D+01 0.849623645571610D+01 0.219885933307048D+01
 0.674247011605292D+03 -.651805333881989D+02 0.317845194243898D+03 0.591045652400858D+03
 0.445095026350592D+03 0.142930331982840D+03 -.143055666475353D+03 -.385876052154836D+03
 0.000000000000000D+00 0.000000000000000D+00 0.000000000000000D+00 0.000000000000000D+00
 0.881684890417133D+03 0.000000000000000D+00 0.000000000000000D+00 0.881684890417133D+03
 0.762501305357874D+03 0.000000000000000D+00 0.000000000000000D+00 -.762501305357874D+03
 0.323617427427887D+03 -.784577841458730D+02 -.217383730002404D+03 -.207368459579092D+03
 0.125742517601495D+02 -.101486454177136D+02 0.709096757477498D+01 0.219885933307048D+01
 0.645955001063567D+03 -.872816439418174D+02 0.245570386667227D+03 0.591045652400858D+03
 0.458935533036618D+03 0.127796224365116D+03 -.192547058017057D+03 -.385876052154836D+03
 0.203103982486786D+03 0.480918491402880D+02 0.157269433777459D+03 0.119183585059259D+03
0.442617101043D-04 0.000000000000D+00 0.000000000000D+00 0.558606488869D-05 0.000000000000D+00  7 -2 2 23 -11 11 23 21 0 0.51665488D-01 0.23474536D+00 0.15012717D+06 0.15012717D+06 0.15012717D+06 0.11075229D+01  1  2  2  1  7  1       -2 0.255921626211D-03 0.100000000000D+01
-.133248235725D-05 0.000000000000D+00 -.169976621176D-06 0.558606488869D-05 0.000000000000D+00  7 -2 2 23 -11 11 23 21 2 0.51665488D-01 0.23474536D+00 0.15012717D+06 0.15012717D+06 0.15012717D+06 0.11075229D+01  1  2  3  1  7  1       -2 -.945030140398D-05 0.100000000000D+01
0.260845110999D-05 0.000000000000D+00 0.000000000000D+00 0.558606488869D-05 0.000000000000D+00  7 -2 2 23 -11 11 23 21 2 0.51665488D-01 0.23474536D+00 0.15012717D+06 0.15012717D+06 0.15012717D+06 0.11075229D+01  1  2 15  1  7  1       -2 0.184997940519D-04 0.100000000000D+01
0.434270170424D-04 0.000000000000D+00 0.000000000000D+00 0.558606488869D-05 0.000000000000D+00  7 -2 2 23 -11 11 23 21 2 0.65033181D-01 0.23474536D+00 0.21825031D+06 0.21825031D+06 0.21825031D+06 0.10949245D+01  1  2 12  1  7  1       -2 0.184659372631D-03 0.100000000000D+01
-.568909250835D-04 0.000000000000D+00 0.000000000000D+00 0.558606488869D-05 0.000000000000D+00  7 -2 2 23 -11 11 23 21 2 0.51665488D-01 0.23474536D+00 0.15012717D+06 0.15012717D+06 0.15012717D+06 0.11075229D+01  1  2  4  1  7  1       -2 -.403484808834D-03 0.100000000000D+01
-.704678642789D-04 0.000000000000D+00 -.243870347599D-04 0.558606488869D-05 0.000000000000D+00  7 -2 2 23 -11 11 23 21 2 0.67056204D-01 0.23474536D+00 0.15012717D+06 0.15012717D+06 0.15012717D+06 0.11075229D+01  1  2  5  1  7  1       -2 -.292669184498D-03 0.100000000000D+01
0.750664814553D-04 0.000000000000D+00 0.235808983891D-04 0.558606488869D-05 0.000000000000D+00  7 -2 2 23 -11 11 23 21 2 0.51665488D-01 0.23474536D+00 0.15012717D+06 0.15012717D+06 0.15012717D+06 0.11075229D+01  1  2  6  1  7  1       -2 0.532390444968D-03 0.100000000000D+01
0.138194935272D-05 0.000000000000D+00 0.000000000000D+00 0.558606488869D-05 0.000000000000D+00  7 21 2 23 -11 11 23 2 2 0.65033181D-01 0.23474536D+00 0.21825031D+06 0.21825031D+06 0.21825031D+06 0.10949245D+01  1  2 12  3  7  1       -2 0.589699268849D-04 0.100000000000D+01
-.202210146974D-05 0.000000000000D+00 -.851269362447D-06 0.558606488869D-05 0.000000000000D+00  7 21 2 23 -11 11 23 2 2 0.67056204D-01 0.23474536D+00 0.15012717D+06 0.15012717D+06 0.15012717D+06 0.11075229D+01  1  2  5  3  7  1       -2 -.847774637310D-04 0.100000000000D+01
  </mgrwgt>
  </event>
  <event>
  8     66 0.53686478E-06 0.32056703E+03 0.75467711E-02 0.91261048E-01
       -2 -1    0    0    0  501 0.00000000E+00 0.00000000E+00 0.33772406E+03 0.33772421E+03 0.32000000E+00 0.0000E+00 0.9000E+01
        2 -1    0    0  501    0 0.00000000E+00 0.00000000E+00 -.11604491E+04 0.11604491E+04 0.32000000E+00 0.0000E+00 0.9000E+01
       25  2    1    2    0    0 0.49571240E+03 0.20191235E+03 -.14542526E+03 0.62990921E+03 0.29855941E+03 0.0000E+00 0.0000E+00
       23  2    1    2    0    0 -.49571240E+03 -.20191235E+03 -.67729973E+03 0.86826410E+03 0.92995877E+02 0.0000E+00 0.0000E+00
       23  1    3    3    0    0 0.11647035E+03 0.15626882E+03 -.90265441E+02 0.23334178E+03 0.91188000E+02 0.0000E+00 0.9000E+01
      -13  1    4    4    0    0 -.48321666E+03 -.17577861E+03 -.63708469E+03 0.81870225E+03 0.10565837E+00 0.0000E+00 0.9000E+01
       13  1    4    4    0    0 -.12495741E+02 -.26133740E+02 -.40215042E+02 0.49561847E+02 0.10565837E+00 0.0000E+00 0.9000E+01
       23  1    3    3    0    0 0.37924205E+03 0.45643528E+02 -.55159819E+02 0.39656742E+03 0.91188000E+02 0.0000E+00 0.9000E+01
#aMCatNLO 1  0  0  2  1 0.19325791D+03 0.00000000D+00  -5  7  0 0.00000000D+00 0.00000000D+00 0.00000000D+00 0.00000000D+00 0.00000000D+00
  <mgrwgt>
 0.3340055968D-03    9    2    0
 0.626028521222974D+03 0.000000000000000D+00 0.000000000000000D+00 0.626028521222974D+03
 0.626028521222974D+03 0.000000000000000D+00 0.000000000000000D+00 -.626028521222974D+03
 0.219896369715083D+03 0.116470352170186D+03 0.156268820840587D+03 0.453196951481145D+02
 0.561007356742245D+03 -.483217268438721D+03 -.175778802187568D+03 -.224348252730092D+03
 0.328782645342444D+02 -.124951335288628D+02 -.261335469611432D+02 -.155528016803844D+02
 0.438275051454375D+03 0.379242049797398D+03 0.456435283081241D+02 0.194581359262362D+03
 0.000000000000000D+00 0.000000000000000D+00 0.000000000000000D+00 -.000000000000000D+00
 0.669171863290863D+03 0.000000000000000D+00 0.000000000000000D+00 0.669171863290863D+03
 0.894768990494743D+03 0.000000000000000D+00 0.000000000000000D+00 -.894768990494743D+03
 0.192504687356473D+03 0.995477963294164D+02 0.129534415457253D+03 0.453196951481145D+02
 0.630467715064785D+03 -.532108519054602D+03 -.253017638091663D+03 -.224348252730092D+03
 0.377074844287641D+02 -.153915647040666D+02 -.307093548905973D+02 -.155528016803844D+02
 0.406204266180335D+03 0.344589499412279D+03 -.910088135901654D+01 0.194581359262362D+03
 0.297056700755249D+03 0.103362788016973D+03 0.163293458884023D+03 -.225597127203880D+03
0.313849350110D-04 0.000000000000D+00 0.000000000000D+00 0.104797588724D-06 0.000000000000D+00  7 -2 2 23 -13 13 23 21 0 0.51957562D-01 0.17853064D+00 0.33122947D+06 0.33122947D+06 0.33122947D+06 0.10813842D+01  1  2  2  2  7  2        2 0.278737252706D-03 0.100000000000D+01
-.172860884701D-05 0.000000000000D+00 -.120526414285D-06 0.104797588724D-06 0.000000000000D+00  7 -2 2 23 -13 13 23 21 2 0.51957562D-01 0.17853064D+00 0.33122947D+06 0.33122947D+06 0.33122947D+06 0.10813842D+01  1  2  3  2  7  2        2 -.179527334194D-04 0.100000000000D+01
0.192159394146D-05 0.000000000000D+00 0.000000000000D+00 0.104797588724D-06 0.000000000000D+00  7 -2 2 23 -13 13 23 21 2 0.51957562D-01 0.17853064D+00 0.33122947D+06 0.33122947D+06 0.33122947D+06 0.10813842D+01  1  2 15  2  7  2        2 0.199570098412D-04 0.100000000000D+01
0.370196628144D-04 0.000000000000D+00 0.000000000000D+00 0.104797588724D-06 0.000000000000D+00  7 -2 2 23 -13 13 23 21 2 0.51957562D-01 0.25926639D+00 0.46271977D+06 0.46271977D+06 0.46271977D+06 0.10708969D+01  1  2 12  2  7  2        2 0.188694886682D-03 0.100000000000D+01
-.406747316320D-04 0.000000000000D+00 0.000000000000D+00 0.104797588724D-06 0.000000000000D+00  7 -2 2 23 -13 13 23 21 2 0.51957562D-01 0.17853064D+00 0.33122947D+06 0.33122947D+06 0.33122947D+06 0.10813842D+01  1  2  4  2  7  2        2 -.422433690050D-03 0.100000000000D+01
-.517850300826D-04 0.000000000000D+00 -.123182157208D-04 0.104797588724D-06 0.000000000000D+00  7 -2 2 23 -13 13 23 21 2 0.51957562D-01 0.26220909D+00 0.33122947D+06 0.33122947D+06 0.33122947D+06 0.10813842D+01  1  2  5  2  7  2        2 -.266963630118D-03 0.100000000000D+01
0.533845233168D-04 0.000000000000D+00 0.114610566396D-04 0.104797588724D-06 0.000000000000D+00  7 -2 2 23 -13 13 23 21 2 0.51957562D-01 0.17853064D+00 0.33122947D+06 0.33122947D+06 0.33122947D+06 0.10813842D+01  1  2  6  2  7  2        2 0.554433189143D-03 0.100000000000D+01
0.167485886120D-05 0.000000000000D+00 0.000000000000D+00 0.104797588724D-06 0.000000000000D+00  7 -2 21 23 -13 13 23 -2 2 0.51957562D-01 0.25926639D+00 0.46271977D+06 0.46271977D+06 0.46271977D+06 0.10708969D+01  1  2 12  4  7  2        2 0.234927762569D-05 0.100000000000D+01
-.199612244184D-05 0.000000000000D+00 -.569514469706D-06 0.104797588724D-06 0.000000000000D+00  7 -2 21 23 -13 13 23 -2 2 0.51957562D-01 0.26220909D+00 0.33122947D+06 0.33122947D+06 0.33122947D+06 0.10813842D+01  1  2  5  4  7  2        2 -.281596556202D-05 0.100000000000D+01
  </mgrwgt>
  </event>
  <event>
  8     66 0.53686478E-06 0.30579242E+03 0.75467711E-02 0.97190238E-01
       -2 -1    0    0    0  501 0.00000000E+00 0.00000000E+00 0.53075376E+02 0.53076341E+02 0.32000000E+00 0.0000E+00 0.9000E+01
        2 -1    0    0  501    0 0.00000000E+00 0.00000000E+00 -.18197627E+04 0.18197627E+04 0.32000000E+00 0.0000E+00 0.9000E+01
       25  2    1    2    0    0 0.22217241E+03 0.15759019E+02 -.11718414E+04 0.12310836E+04 0.30454166E+03 0.0000E+00 0.0000E+00
       23  2    1    2    0    0 -.22217241E+03 -.15759019E+02 -.59484586E+03 0.64175541E+03 0.91648690E+02 0.0000E+00 0.0000E+00
       23  1    3    3    0    0 0.17053555E+03 0.12151143E+03 -.71669244E+03 0.75220390E+03 0.91188000E+02 0.0000E+00 0.9000E+01
      -11  1    4    4    0    0 -.15257652E+03 -.44625526E+02 -.32826142E+03 0.36472810E+03 0.51099893E-03 0.0000E+00 0.9000E+01
       11  1    4    4    0    0 -.69595894E+02 0.28866506E+02 -.26658445E+03 0.27702731E+03 0.51099893E-03 0.0000E+00 0.9000E+01
       23  1    3    3    0    0 0.51636864E+02 -.10575241E+03 -.45514899E+03 0.47887972E+03 0.91188000E+02 0.0000E+00 0.9000E+01
#aMCatNLO 1  0  0  2  2 0.16844427D+03 0.00000000D+00  -5  7  0 0.00000000D+00 0.00000000D+00 0.00000000D+00 0.00000000D+00 0.00000000D+00
  <mgrwgt>
 0.1333981608D-03    4    2    0
 0.310782106713629D+03 0.000000000000000D+00 0.000000000000000D+00 0.310782106713629D+03
 0.310782106713629D+03 0.000000000000000D+00 0.000000000000000D+00 -.310782106713629D+03
 0.229397697460243D+03 0.170535549949619D+03 0.121511425537820D+03 -.214628032467562D+02
 0.165939020670718D+03 -.152576519493053D+03 -.446255255718278D+02 0.475891452747496D+02
 0.769931837383746D+02 -.695958942640482D+02 0.288665061322802D+02 -.158457144828995D+02
 0.149234311557923D+03 0.516368638074823D+02 -.105752406098272D+03 -.102806275450938D+02
 0.000000000000000D+00 -.000000000000000D+00 0.000000000000000D+00 0.000000000000000D+00
 0.435291208887066D+03 0.000000000000000D+00 0.000000000000000D+00 0.435291208887066D+03
 0.384599485371251D+03 0.000000000000000D+00 0.000000000000000D+00 -.384599485371251D+03
 0.219219710025948D+03 0.187489440886305D+03 0.642579765693912D+02 -.214628032467562D+02
 0.171780135770429D+03 -.139813631450843D+03 -.877259183927622D+02 0.475891452747496D+02
 0.669143284737263D+02 -.641574243645293D+02 0.105007421892868D+02 -.158457144828995D+02
 0.186069943678139D+03 0.643084892928443D+02 -.148544604407354D+03 -.102806275450938D+02
 0.175906576310075D+03 -.478268743637775D+02 0.161511804041438D+03 0.506917235158153D+02
0.198440759891D-05 0.000000000000D+00 0.000000000000D+00 0.477891135071D-08 0.000000000000D+00  7 -2 2 23 -11 11 23 21 0 0.81655189D-02 0.27996356D+00 0.93509003D+05 0.93509003D+05 0.93509003D+05 0.11241217D+01  1  2  2  2  7  2        2 0.183371135734D-03 0.100000000000D+01
-.110209751462D-06 0.000000000000D+00 -.762064768635D-08 0.477891135071D-08 0.000000000000D+00  7 -2 2 23 -11 11 23 21 2 0.81655189D-02 0.27996356D+00 0.93509003D+05 0.93509003D+05 0.93509003D+05 0.11241217D+01  1  2  3  2  7  2        2 -.128690593680D-04 0.100000000000D+01
0.123450851915D-06 0.000000000000D+00 0.000000000000D+00 0.477891135071D-08 0.000000000000D+00  7 -2 2 23 -11 11 23 21 2 0.81655189D-02 0.27996356D+00 0.93509003D+05 0.93509003D+05 0.93509003D+05 0.11241217D+01  1  2 15  2  7  2        2 0.144152066514D-04 0.100000000000D+01
-.441206268249D-06 0.000000000000D+00 0.000000000000D+00 0.477891135071D-08 0.000000000000D+00  7 -2 2 23 -11 11 23 21 2 0.81655189D-02 0.27996356D+00 0.93509003D+05 0.93509003D+05 0.93509003D+05 0.11241217D+01  1  2  4  2  7  2        2 -.515191222584D-04 0.100000000000D+01
  </mgrwgt>
  </event>
  <event>
  8     66 0.53686478E-06 0.11742588E+03 0.75467711E-02 0.10403343E+00
       -2 -1    0    0    0  501 0.00000000E+00 0.00000000E+00 0.81113725E+02 0.81114356E+02 0.32000000E+00 0.0000E+00 0.9000E+01
        2 -1    0    0  501    0 0.00000000E+00 0.00000000E+00 -.12800203E+04 0.12800203E+04 0.32000000E+00 0.0000E+00 0.9000E+01
       25  2    1    2    0    0 0.30036187E+02 -.11775416E+03 -.27624056E+03 0.42558344E+03 0.30007366E+03 0.0000E+00 0.0000E+00
       23  2    1    2    0    0 -.30036187E+02 0.11775416E+03 -.92266599E+03 0.93555123E+03 0.95788149E+02 0.0000E+00 0.0000E+00
       23  1    3    3    0    0 0.56681575E+01 0.58880854E+02 -.39866237E+02 0.11577414E+03 0.91188000E+02 0.0000E+00 0.9000E+01
      -13  1    4    4    0    0 -.19978516E+02 -.77446656E+01 -.59276337E+02 0.63030280E+02 0.10565837E+00 0.0000E+00 0.9000E+01
       13  1    4    4    0    0 -.10057671E+02 0.12549883E+03 -.86338965E+03 0.87252095E+03 0.10565837E+00 0.0000E+00 0.9000E+01
       23  1    3    3    0    0 0.24368030E+02 -.17663501E+03 -.23637433E+03 0.30980930E+03 0.91188000E+02 0.0000E+00 0.9000E+01
#aMCatNLO 1  0  0  1  2 0.17127814D+02 0.00000000D+00  -5  7  0 0.00000000D+00 0.00000000D+00 0.00000000D+00 0.00000000D+00 0.00000000D+00
  <mgrwgt>
 0.1873385563D-03    9    2    0
 0.322223011568394D+03 0.000000000000000D+00 0.000000000000000D+00 0.322223011568394D+03
 0.322223011568394D+03 0.000000000000000D+00 0.000000000000000D+00 -.322223011568394D+03
 0.170360741856350D+03 0.566815771522262D+01 0.588808528454539D+02 0.131180974909295D+03
 0.228502328279961D+02 -.199785253711797D+02 -.774482421775506D+01 -.793784366958899D+01
 0.236629871673800D+03 -.100576625304730D+02 0.125498986213494D+03 -.200356043213494D+03
 0.214605176778643D+03 0.243680301864301D+02 -.176635014841193D+03 0.771129119737878D+02
 0.000000000000000D+00 0.000000000000000D+00 0.000000000000000D+00 0.000000000000000D+00
 0.465803152300569D+03 0.000000000000000D+00 0.000000000000000D+00 0.465803152300569D+03
 0.322847998889600D+03 0.000000000000000D+00 0.000000000000000D+00 -.322847998889600D+03
 0.169027633170154D+03 0.320586787852469D+01 0.551032091996150D+02 0.131180974909295D+03
 0.233206862064312D+02 -.203134990858233D+02 -.825874069736143D+01 -.793784366958899D+01
 0.234065108455778D+03 -.134725923013211D+02 0.120259802930697D+03 -.200356043213494D+03
 0.218260163012655D+03 0.212275574853728D+02 -.181453126245978D+03 0.771129119737878D+02
 0.143977560345150D+03 0.935266602324689D+01 0.143488548130275D+02 0.142955153410969D+03
0.206423664101D-05 0.000000000000D+00 0.000000000000D+00 0.725737637044D-07 0.000000000000D+00  7 -2 2 23 -13 13 23 21 0 0.12479086D-01 0.19692625D+00 0.52051182D+05 0.52051182D+05 0.52051182D+05 0.11457627D+01  1  2  2  1  7  1       -2 0.194666434163D-03 0.100000000000D+01
-.980593879161D-07 0.000000000000D+00 -.792721222746D-08 0.725737637044D-07 0.000000000000D+00  7 -2 2 23 -13 13 23 21 2 0.12479086D-01 0.19692625D+00 0.52051182D+05 0.52051182D+05 0.52051182D+05 0.11457627D+01  1  2  3  1  7  1       -2 -.121397612680D-04 0.100000000000D+01
0.127270078258D-06 0.000000000000D+00 0.000000000000D+00 0.725737637044D-07 0.000000000000D+00  7 -2 2 23 -13 13 23 21 2 0.12479086D-01 0.19692625D+00 0.52051182D+05 0.52051182D+05 0.52051182D+05 0.11457627D+01  1  2 15  1  7  1       -2 0.157560474264D-04 0.100000000000D+01
0.890766799144D-04 0.000000000000D+00 0.000000000000D+00 0.725737637044D-07 0.000000000000D+00  7 -2 2 23 -13 13 23 21 2 0.18047603D-01 0.19692625D+00 0.55423580D+05 0.55423580D+05 0.55423580D+05 0.11433821D+01  1  2 12  1  7  1       -2 0.610824806955D-02 0.100000000000D+01
-.835894401015D-04 0.000000000000D+00 0.000000000000D+00 0.725737637044D-07 0.000000000000D+00  7 -2 2 23 -13 13 23 21 2 0.12479086D-01 0.19692625D+00 0.52051182D+05 0.52051182D+05 0.52051182D+05 0.11457627D+01  1  2  4  1  7  1       -2 -.103483803940D-01 0.100000000000D+01
-.894179386412D-04 0.000000000000D+00 -.909741775333D-06 0.725737637044D-07 0.000000000000D+00  7 -2 2 23 -13 13 23 21 2 0.18055783D-01 0.19692625D+00 0.52051182D+05 0.52051182D+05 0.52051182D+05 0.11457627D+01  1  2  5  1  7  1       -2 -.615869519214D-02 0.100000000000D+01
0.840147099331D-04 0.000000000000D+00 0.851011704422D-06 0.725737637044D-07 0.000000000000D+00  7 -2 2 23 -13 13 23 21 2 0.12479086D-01 0.19692625D+00 0.52051182D+05 0.52051182D+05 0.52051182D+05 0.11457627D+01  1  2  6  1  7  1       -2 0.104010288384D-01 0.100000000000D+01
0.399758687314D-05 0.000000000000D+00 0.000000000000D+00 0.725737637044D-07 0.000000000000D+00  7 21 2 23 -13 13 23 2 2 0.18047603D-01 0.19692625D+00 0.55423580D+05 0.55423580D+05 0.55423580D+05 0.11433821D+01  1  2 12  3  7  1       -2 0.363838787386D-02 0.100000000000D+01
-.398866837767D-05 0.000000000000D+00 -.408637650818D-07 0.725737637044D-07 0.000000000000D+00  7 21 2 23 -13 13 23 2 2 0.18055783D-01 0.19692625D+00 0.52051182D+05 0.52051182D+05 0.52051182D+05 0.11457627D+01  1  2  5  3  7  1       -2 -.365153335964D-02 0.100000000000D+01
  </mgrwgt>
  </event>
  <event>
  8     66 0.53686478E-06 0.25678338E+03 0.75467711E-02 0.88620120E-01
       -2 -1    0    0    0  501 0.00000000E+00 0.00000000E+00 0.33161426E+03 0.33161442E+03 0.32000000E+00 0.0000E+00 0.9000E+01
        2 -1    0    0  501    0 0.00000000E+00 0.00000000E+00 -.11403866E+04 0.11403866E+04 0.32000000E+00 0.0000E+00 0.9000E+01
       25  2    1    2    0    0 -.47161725E+03 -.32151977E+03 -.34859119E+03 0.73305469E+03 0.30009259E+03 0.0000E+00 0.0000E+00
       23  2    1    2    0    0 0.47161725E+03 0.32151977E+03 -.46018115E+03 0.73894638E+03 0.92072022E+02 0.0000E+00 0.0000E+00
       23  1    3    3    0    0 -.24760742E+03 -.33656783E+02 -.17882483E+03 0.32052424E+03 0.91188000E+02 0.0000E+00 0.9000E+01
      -13  1    4    4    0    0 0.29592983E+01 0.21478298E+02 -.16519575E+02 0.27257701E+02 0.10565837E+00 0.0000E+00 0.9000E+01
       13  1    4    4    0    0 0.46865796E+03 0.30004148E+03 -.44366158E+03 0.71168868E+03 0.10565837E+00 0.0000E+00 0.9000E+01
       23  1    3    3    0    0 -.22400983E+03 -.28786299E+03 -.16976636E+03 0.41253045E+03 0.91188000E+02 0.0000E+00 0.9000E+01
#aMCatNLO 1  0  0  2  1 0.45805965D+03 0.00000000D+00  -5  7  0 0.00000000D+00 0.00000000D+00 0.00000000D+00 0.00000000D+00 0.00000000D+00
  <mgrwgt>
 0.4990004107D-03    8    2    0
 0.614954152822535D+03 0.000000000000000D+00 0.000000000000000D+00 0.614954152822535D+03
 0.614954152822535D+03 0.000000000000000D+00 0.000000000000000D+00 -.614954152822535D+03
 0.266022630651776D+03 -.247607424305473D+03 -.336567831411217D+02 -.325162302431110D+01
 0.217592788510815D+02 0.295868499089509D+01 0.214779313861270D+02 -.184685208303150D+01
 0.560030490108852D+03 0.468658569160279D+03 0.300041842574483D+03 -.629935560887774D+02
 0.382095906033360D+03 -.224009829845701D+03 -.287862990819488D+03 0.680920311961200D+02
 0.000000000000000D+00 0.000000000000000D+00 0.000000000000000D+00 -.000000000000000D+00
 0.795268655471221D+03 0.000000000000000D+00 0.000000000000000D+00 0.795268655471221D+03
 0.103345560500598D+04 0.000000000000000D+00 0.000000000000000D+00 -.103345560500598D+04
 0.327282266948407D+03 -.284277782081249D+03 -.134067149136401D+03 -.325162302431110D+01
 0.153276485967195D+02 0.666455643360540D+00 0.152013744695456D+02 -.184685208303150D+01
 0.432768383879358D+03 0.407296712793017D+03 0.132021489632724D+03 -.629935560887774D+02
 0.537059540977804D+03 -.280820011642257D+03 -.443419999052951D+03 0.680920311961200D+02
 0.516286420074912D+03 0.157134625287129D+03 0.430264284087081D+03 -.238186949534758D+03
0.340084806286D-04 0.000000000000D+00 0.000000000000D+00 0.183046290978D-05 0.000000000000D+00  7 -2 2 23 -13 13 23 21 0 0.51017594D-01 0.17544411D+00 0.37218518D+06 0.37218518D+06 0.37218518D+06 0.10776914D+01  1  2  2  2  7  2        2 0.320610142483D-03 0.100000000000D+01
-.188921395742D-05 0.000000000000D+00 -.130601520252D-06 0.183046290978D-05 0.000000000000D+00  7 -2 2 23 -13 13 23 21 2 0.51017594D-01 0.17544411D+00 0.37218518D+06 0.37218518D+06 0.37218518D+06 0.10776914D+01  1  2  3  2  7  2        2 -.206852123477D-04 0.100000000000D+01
0.213120947312D-05 0.000000000000D+00 0.000000000000D+00 0.183046290978D-05 0.000000000000D+00  7 -2 2 23 -13 13 23 21 2 0.51017594D-01 0.17544411D+00 0.37218518D+06 0.37218518D+06 0.37218518D+06 0.10776914D+01  1  2 15  2  7  2        2 0.233348479857D-04 0.100000000000D+01
0.199688307571D-05 0.000000000000D+00 0.000000000000D+00 0.183046290978D-05 0.000000000000D+00  7 -2 2 23 -13 13 23 21 2 0.51017594D-01 0.30636348D+00 0.77565574D+06 0.77565574D+06 0.77565574D+06 0.10552882D+01  1  2 12  2  7  2        2 0.677185824302D-05 0.100000000000D+01
-.154623623540D-04 0.000000000000D+00 -.101959762477D-04 0.183046290978D-05 0.000000000000D+00  7 -2 2 23 -13 13 23 21 2 0.51017594D-01 0.33290189D+00 0.37218518D+06 0.37218518D+06 0.37218518D+06 0.10776914D+01  1  2  5  2  7  2        2 -.456379540125D-04 0.100000000000D+01
0.196150800423D-04 0.000000000000D+00 0.841080198555D-05 0.183046290978D-05 0.000000000000D+00  7 -2 2 23 -13 13 23 21 2 0.51017594D-01 0.17544411D+00 0.37218518D+06 0.37218518D+06 0.37218518D+06 0.10776914D+01  1  2  6  2  7  2        2 0.214767678536D-03 0.100000000000D+01
0.123031862143D-06 0.000000000000D+00 0.000000000000D+00 0.183046290978D-05 0.000000000000D+00  7 -2 21 23 -13 13 23 -2 2 0.51017594D-01 0.30636348D+00 0.77565574D+06 0.77565574D+06 0.77565574D+06 0.10552882D+01  1  2 12  4  7  2        2 0.796480960792D-07 0.100000000000D+01
-.494990119497D-06 0.000000000000D+00 -.709741066653D-06 0.183046290978D-05 0.000000000000D+00  7 -2 21 23 -13 13 23 -2 2 0.51017594D-01 0.33290189D+00 0.37218518D+06 0.37218518D+06 0.37218518D+06 0.10776914D+01  1  2  5  4  7  2        2 -.240598253563D-06 0.100000000000D+01
  </mgrwgt>
  </event>
  <event>
  9     66 0.53686478E-06 0.28292397E+03 0.75467711E-02 0.10108157E+00
       21 -1    0    0  502  501 0.00000000E+00 0.00000000E+00 0.19687837E+03 0.19687980E+03 0.75000000E+00 0.0000E+00 0.9000E+01
        2 -1    0    0  501    0 0.00000000E+00 0.00000000E+00 -.11996255E+04 0.11996255E+04 0.32000000E+00 0.0000E+00 0.9000E+01
       25  2    1    2    0    0 0.20324117E+03 0.12567276E+03 -.34798713E+02 0.38479378E+03 0.29959087E+03 0.0000E+00 0.0000E+00
       23  2    1    2    0    0 -.22059944E+03 -.13692151E+03 -.90534433E+03 0.94577812E+03 0.86233871E+02 0.0000E+00 0.0000E+00
       23  1    3    3    0    0 0.11063079E+03 0.92705251E+02 -.13479459E+03 0.21752763E+03 0.91188000E+02 0.0000E+00 0.9000E+01
      -13  1    4    4    0    0 -.10370223E+03 -.44925899E+02 -.53236774E+03 0.54423149E+03 0.10565837E+00 0.0000E+00 0.9000E+01
       13  1    4    4    0    0 -.11689721E+03 -.91995608E+02 -.37297659E+03 0.40154663E+03 0.10565837E+00 0.0000E+00 0.9000E+01
       23  1    3    3    0    0 0.92610378E+02 0.32967507E+02 0.99995881E+02 0.16726615E+03 0.91188000E+02 0.0000E+00 0.9000E+01
        2  1    1    2  502    0 0.17358276E+02 0.11248749E+02 -.62604074E+02 0.65933425E+02 0.32000000E+00 0.0000E+00 0.9000E+01
#aMCatNLO 2  0  0  1  2 0.20684393D+02 0.00000000D+00  -5  7  0 0.00000000D+00 0.00000000D+00 0.00000000D+00 0.00000000D+00 0.00000000D+00
  <mgrwgt>
 0.4568742917D-04    1    2    0
 0.470671009191898D+03 0.000000000000000D+00 0.000000000000000D+00 0.470671009191898D+03
 0.470671009191898D+03 0.000000000000000D+00 0.000000000000000D+00 -.470671009191898D+03
 0.175996740492588D+03 0.113846359425667D+03 0.947890495471524D+02 0.267141133389233D+02
 0.235123792938515D+03 -.993450210711849D+02 -.421022216379387D+02 -.208904685747615D+03
 0.191823252317617D+03 -.113330877948661D+03 -.896845621844216D+02 -.126130692295263D+03
 0.338398232635075D+03 0.988295395941791D+02 0.369977342752079D+02 0.308321264703954D+03
 0.000000000000000D+00 0.000000000000000D+00 0.000000000000000D+00 -.000000000000000D+00
 0.474798370838995D+03 0.000000000000000D+00 0.000000000000000D+00 0.474798370838995D+03
 0.497433278612487D+03 0.000000000000000D+00 0.000000000000000D+00 -.497433278612487D+03
 0.172807204793562D+03 0.110630788266622D+03 0.927052507713843D+02 0.267141133389233D+02
 0.237515571426157D+03 -.103702212350755D+03 -.449258288308991D+02 -.208904685747615D+03
 0.195031071329042D+03 -.116897229828224D+03 -.919956787211173D+02 -.126130692295263D+03
 0.336215395621345D+03 0.926103779251774D+02 0.329675073478033D+02 0.308321264703954D+03
 0.306624062813753D+02 0.173582759871796D+02 0.112487494328289D+02 -.226349077734914D+02
0.125446934483D-06 0.000000000000D+00 0.000000000000D+00 0.511985213050D-07 0.134830035799D-11  7 21 2 23 -13 13 23 2 2 0.30289040D-01 0.18455756D+00 0.86221529D+05 0.86221529D+05 0.86221529D+05 0.11270441D+01  1  2  1  3  7  1       -2 0.456874291661D-04 0.100000000000D+01
  </mgrwgt>
  </event>
  <event>
  8     66 0.53686478E-06 0.12866998E+03 0.75467711E-02 0.98809952E-01
       -2 -1    0    0    0  501 0.00000000E+00 0.00000000E+00 0.10562943E+03 0.10562991E+03 0.32000000E+00 0.0000E+00 0.9000E+01
        2 -1    0    0  501    0 0.00000000E+00 0.00000000E+00 -.10581956E+04 0.10581956E+04 0.32000000E+00 0.0000E+00 0.9000E+01
       25  2    1    2    0    0 -.83095262E+02 0.24158184E+03 -.61741316E+03 0.73231157E+03 0.29969086E+03 0.0000E+00 0.0000E+00
       23  2    1    2    0    0 0.83095262E+02 -.24158184E+03 -.33515300E+03 0.43151398E+03 0.92791014E+02 0.0000E+00 0.0000E+00
       23  1    3    3    0    0 -.14731472E+03 0.19082017E+03 -.50040296E+03 0.56287862E+03 0.91188000E+02 0.0000E+00 0.9000E+01
      -13  1    4    4    0    0 0.77847890E+02 -.14009255E+03 -.14604912E+03 0.21683305E+03 0.10565837E+00 0.0000E+00 0.9000E+01
       13  1    4    4    0    0 0.52473715E+01 -.10148930E+03 -.18910389E+03 0.21468093E+03 0.10565837E+00 0.0000E+00 0.9000E+01
       23  1    3    3    0    0 0.64219459E+02 0.50761671E+02 -.11701021E+03 0.16943295E+03 0.91188000E+02 0.0000E+00 0.9000E+01
#aMCatNLO 1  0  0  1  2 0.58094092D+02 0.00000000D+00  -5  7  0 0.00000000D+00 0.00000000D+00 0.00000000D+00 0.00000000D+00 0.00000000D+00
  <mgrwgt>
 0.2002681948D-03    9    2    0
 0.334330531603411D+03 0.000000000000000D+00 0.000000000000000D+00 0.334330531603411D+03
 0.334330531603411D+03 0.000000000000000D+00 0.000000000000000D+00 -.334330531603411D+03
 0.266840108462900D+03 -.147314721138946D+03 0.190820174078483D+03 -.690972231055950D+02
 0.169345067764734D+03 0.778479839874561D+02 -.140092597965388D+03 0.546946739695875D+02
 0.104263788856760D+03 0.524727807211616D+01 -.101489247084416D+03 -.233095788430271D+02
 0.128212098122428D+03 0.642194590793739D+02 0.507616709713209D+02 0.377121279790346D+02
 0.000000000000000D+00 0.000000000000000D+00 -.000000000000000D+00 0.000000000000000D+00
 0.364883199449672D+03 0.000000000000000D+00 0.000000000000000D+00 0.364883199449672D+03
 0.364392923032417D+03 0.000000000000000D+00 0.000000000000000D+00 -.364392923032417D+03
 0.287732876899680D+03 -.167236991300214D+03 0.204284898132276D+03 -.690972231055950D+02
 0.157563751706807D+03 0.661042352086455D+02 -.132155433406141D+03 0.546946739695875D+02
 0.993413585705617D+02 -.206695623127283D+01 -.965458271948800D+02 -.233095788430271D+02
 0.126541974514667D+03 0.550677701336147D+02 0.569469583549027D+02 0.377121279790346D+02
 0.580961607903727D+02 0.481319421892264D+02 -.325305958861576D+02 0.490276417254396D+00
0.162898290252D-05 0.000000000000D+00 0.000000000000D+00 0.156263016965D-06 0.000000000000D+00  7 -2 2 23 -13 13 23 21 0 0.16250722D-01 0.16279936D+00 0.10309657D+06 0.10309657D+06 0.10309657D+06 0.11206368D+01  1  2  2  1  7  1       -2 0.134472294354D-03 0.100000000000D+01
-.903192851108D-07 0.000000000000D+00 -.625572326672D-08 0.156263016965D-06 0.000000000000D+00  7 -2 2 23 -13 13 23 21 2 0.16250722D-01 0.16279936D+00 0.10309657D+06 0.10309657D+06 0.10309657D+06 0.11206368D+01  1  2  3  1  7  1       -2 -.936324862147D-05 0.100000000000D+01
0.103799314609D-06 0.000000000000D+00 0.000000000000D+00 0.156263016965D-06 0.000000000000D+00  7 -2 2 23 -13 13 23 21 2 0.16250722D-01 0.16279936D+00 0.10309657D+06 0.10309657D+06 0.10309657D+06 0.11206368D+01  1  2 15  1  7  1       -2 0.107607006436D-04 0.100000000000D+01
0.162452063319D-05 0.000000000000D+00 0.000000000000D+00 0.156263016965D-06 0.000000000000D+00  7 -2 2 23 -13 13 23 21 2 0.18402754D-01 0.16279936D+00 0.12338817D+06 0.12338817D+06 0.12338817D+06 0.11143081D+01  1  2 12  1  7  1       -2 0.135774374767D-03 0.100000000000D+01
-.129893561499D-05 0.000000000000D+00 0.000000000000D+00 0.156263016965D-06 0.000000000000D+00  7 -2 2 23 -13 13 23 21 2 0.16250722D-01 0.16279936D+00 0.10309657D+06 0.10309657D+06 0.10309657D+06 0.11206368D+01  1  2  4  1  7  1       -2 -.134658474007D-03 0.100000000000D+01
-.481936355200D-05 0.000000000000D+00 -.130371645808D-05 0.156263016965D-06 0.000000000000D+00  7 -2 2 23 -13 13 23 21 2 0.19367739D-01 0.16279936D+00 0.10309657D+06 0.10309657D+06 0.10309657D+06 0.11206368D+01  1  2  5  1  7  1       -2 -.375368968195D-03 0.100000000000D+01
0.499091208004D-05 0.000000000000D+00 0.128389991293D-05 0.156263016965D-06 0.000000000000D+00  7 -2 2 23 -13 13 23 21 2 0.16250722D-01 0.16279936D+00 0.10309657D+06 0.10309657D+06 0.10309657D+06 0.11206368D+01  1  2  6  1  7  1       -2 0.517399474498D-03 0.100000000000D+01
0.317601482873D-07 0.000000000000D+00 0.000000000000D+00 0.156263016965D-06 0.000000000000D+00  7 21 2 23 -13 13 23 2 2 0.18402754D-01 0.16279936D+00 0.12338817D+06 0.12338817D+06 0.12338817D+06 0.11143081D+01  1  2 12  3  7  1       -2 0.344389647155D-04 0.100000000000D+01
-.112632024503D-06 0.000000000000D+00 -.337036816557D-07 0.156263016965D-06 0.000000000000D+00  7 21 2 23 -13 13 23 2 2 0.19367739D-01 0.16279936D+00 0.10309657D+06 0.10309657D+06 0.10309657D+06 0.11206368D+01  1  2  5  3  7  1       -2 -.113186923371D-03 0.100000000000D+01
  </mgrwgt>
  </event>
  <event>
  9     66 0.53686478E-06 0.24238254E+03 0.75467711E-02 0.99797867E-01
       -2 -1    0    0    0  501 0.00000000E+00 0.00000000E+00 0.30408897E+03 0.30408914E+03 0.32000000E+00 0.0000E+00 0.9000E+01
        2 -1    0    0  502    0 0.00000000E+00 0.00000000E+00 -.13333373E+04 0.13333373E+04 0.32000000E+00 0.0000E+00 0.9000E+01
       25  2    1    2    0    0 -.12310228E+02 0.23778775E+03 -.31746249E+03 0.49749290E+03 0.30003700E+03 0.0000E+00 0.0000E+00
       23  2    1    2    0    0 -.81656008E+02 -.11109214E+03 0.17429060E+03 0.23992610E+03 0.90433140E+02 0.0000E+00 0.0000E+00
       23  1    3    3    0    0 0.86342917E+02 0.13540143E+03 -.26033490E+03 0.31918358E+03 0.91188000E+02 0.0000E+00 0.9000E+01
      -11  1    4    4    0    0 -.57194550E+01 -.79803621E+01 -.10965705E+02 0.14718867E+02 0.51099893E-03 0.0000E+00 0.9000E+01
       11  1    4    4    0    0 -.75936553E+02 -.10311178E+03 0.18525631E+03 0.22520724E+03 0.51099893E-03 0.0000E+00 0.9000E+01
       23  1    3    3    0    0 -.98653145E+02 0.10238632E+03 -.57127589E+02 0.17830932E+03 0.91188000E+02 0.0000E+00 0.9000E+01
       21  1    1    2  502  501 0.93966236E+02 -.12669561E+03 -.88607643E+03 0.90000746E+03 0.75000000E+00 0.0000E+00 0.9000E+01
#aMCatNLO 2  0  0  2  1 0.15773849D+03 0.00000000D+00  -5  7  0 0.00000000D+00 0.00000000D+00 0.00000000D+00 0.00000000D+00 0.00000000D+00
  <mgrwgt>
 0.2051902961D-03    2    2    0
 0.352989790919772D+03 0.000000000000000D+00 0.000000000000000D+00 0.352989790919772D+03
 0.352989790919772D+03 0.000000000000000D+00 0.000000000000000D+00 -.352989790919772D+03
 0.267795212893959D+03 0.121950544485282D+03 0.873913116194196D+02 -.202212383542902D+03
 0.138214089313445D+02 -.396713028073298D+01 -.103430388063357D+02 -.826527497629552D+01
 0.281203498832414D+03 -.399476418517249D+02 -.151635984439667D+03 0.233422625058264D+03
 0.143159461181827D+03 -.780357723528244D+02 0.745877116265835D+02 -.229449665390661D+02
 0.000000000000000D+00 0.000000000000000D+00 -.000000000000000D+00 -.000000000000000D+00
 0.370172500914106D+03 0.000000000000000D+00 0.000000000000000D+00 0.370172500914106D+03
 0.109530807155597D+04 0.000000000000000D+00 0.000000000000000D+00 -.109530807155597D+04
 0.273849859369343D+03 0.863429173870920D+02 0.135401427952563D+03 -.202212383542902D+03
 0.128340607186999D+02 -.571945495242226D+01 -.798036209358398D+01 -.826527497629552D+01
 0.266241471142020D+03 -.759365529410029D+02 -.103111779124475D+03 0.233422625058264D+03
 0.170461503922637D+03 -.986531451444773D+02 0.102386319590026D+03 -.229449665390661D+02
 0.742093677317377D+03 0.939662356508105D+02 -.126695606324530D+03 -.725135570641865D+03
-.790245625542D-05 0.000000000000D+00 0.000000000000D+00 0.794783408570D-06 0.000000000000D+00  7 -2 2 23 -11 11 23 21 2 0.44611337D-01 0.20262666D+00 0.10536373D+06 0.10536373D+06 0.10536373D+06 0.11198647D+01  1  2 13  2  7  2        2 -.100612903010D-03 0.100000000000D+01
0.268628988219D-04 0.000000000000D+00 0.000000000000D+00 0.794783408570D-06 0.344870293916D-09  7 -2 2 23 -11 11 23 21 2 0.46782911D-01 0.20512873D+00 0.10536373D+06 0.10536373D+06 0.10536373D+06 0.11198647D+01  1  2  1  2  7  2        2 0.305803199085D-03 0.100000000000D+01
  </mgrwgt>
  </event>
  <event>
  8     66 0.53686478E-06 0.30288215E+03 0.75467711E-02 0.91568049E-01
       -2 -1    0    0    0  501 0.00000000E+00 0.00000000E+00 0.40883824E+03 0.40883837E+03 0.32000000E+00 0.0000E+00 0.9000E+01
        2 -1    0    0  501    0 0.00000000E+00 0.00000000E+00 -.32930835E+03 0.32930850E+03 0.32000000E+00 0.0000E+00 0.9000E+01
       25  2    1    2    0    0 -.22010832E+02 0.24438144E+03 -.12377593E+03 0.40676352E+03 0.29988216E+03 0.0000E+00 0.0000E+00
       23  2    1    2    0    0 0.22010832E+02 -.24438144E+03 0.20330583E+03 0.33138335E+03 0.90966486E+02 0.0000E+00 0.0000E+00
       23  1    3    3    0    0 -.87631181E+02 0.56720309E+02 -.12704295E+03 0.18802016E+03 0.91188000E+02 0.0000E+00 0.9000E+01
      -11  1    4    4    0    0 -.84477813E+01 -.12317218E+03 0.15314947E+03 0.19671683E+03 0.51099893E-03 0.0000E+00 0.9000E+01
       11  1    4    4    0    0 0.30458613E+02 -.12120926E+03 0.50156355E+02 0.13466652E+03 0.51099893E-03 0.0000E+00 0.9000E+01
       23  1    3    3    0    0 0.65620350E+02 0.18766113E+03 0.32670191E+01 0.21874336E+03 0.91188000E+02 0.0000E+00 0.9000E+01
#aMCatNLO 1  0  0  1  1 0.53535061D+03 0.00000000D+00  -5  7  0 0.00000000D+00 0.00000000D+00 0.00000000D+00 0.00000000D+00 0.00000000D+00
  <mgrwgt>
 0.2203977115D-03    3    2    0
 0.366924991009360D+03 0.000000000000000D+00 0.000000000000000D+00 0.366924991009360D+03
 0.366924991009360D+03 0.000000000000000D+00 0.000000000000000D+00 -.366924991009360D+03
 0.202889156863048D+03 -.876311813878040D+02 0.567203093058348D+02 -.148163224821231D+03
 0.181271315531385D+03 -.844778130011463D+01 -.123172181016949D+03 0.132727309356862D+03
 0.130019410670350D+03 0.304586129592998D+02 -.121209261823352D+03 0.358557512248583D+02
 0.219670098953937D+03 0.656203497286189D+02 0.187661133534466D+03 -.204198357604896D+02
 0.000000000000000D+00 -.000000000000000D+00 0.000000000000000D+00 -.000000000000000D+00
 0.717797905975565D+03 0.000000000000000D+00 0.000000000000000D+00 0.717797905975565D+03
 0.725985312211720D+03 0.000000000000000D+00 0.000000000000000D+00 -.725985312211720D+03
 0.176230601498980D+03 0.265088786357444D+02 0.932264580154026D+01 -.148163224821231D+03
 0.253148858497336D+03 0.122341352332243D+03 -.177483518724725D+03 0.132727309356862D+03
 0.215371742385106D+03 0.134444137511430D+03 -.164390165189117D+03 0.358557512248583D+02
 0.263618804474755D+03 0.211122195067395D+03 0.127240212928691D+03 -.204198357604896D+02
 0.535413211331108D+03 -.494416563546813D+03 0.205310825183610D+03 -.818740623615461D+01
0.751705070345D-05 0.000000000000D+00 0.000000000000D+00 0.855238865467D-06 0.000000000000D+00  7 -2 2 23 -11 11 23 21 0 0.62898213D-01 0.50662844D-01 0.91737599D+05 0.91737599D+05 0.91737599D+05 0.11248085D+01  1  2  2  1  7  1       -2 0.217284399408D-03 0.100000000000D+01
-.398932267477D-06 0.000000000000D+00 -.288674539861D-07 0.855238865467D-06 0.000000000000D+00  7 -2 2 23 -11 11 23 21 2 0.62898213D-01 0.50662844D-01 0.91737599D+05 0.91737599D+05 0.91737599D+05 0.11248085D+01  1  2  3  1  7  1       -2 -.145893988554D-04 0.100000000000D+01
0.484062619753D-06 0.000000000000D+00 0.000000000000D+00 0.855238865467D-06 0.000000000000D+00  7 -2 2 23 -11 11 23 21 2 0.62898213D-01 0.50662844D-01 0.91737599D+05 0.91737599D+05 0.91737599D+05 0.11248085D+01  1  2 15  1  7  1       -2 0.177027109771D-04 0.100000000000D+01
  </mgrwgt>
  </event>
  <event>
  8     66 0.53686478E-06 0.24426148E+03 0.75467711E-02 0.98636287E-01
       -2 -1    0    0    0  501 0.00000000E+00 0.00000000E+00 0.51542528E+03 0.51542538E+03 0.32000000E+00 0.0000E+00 0.9000E+01
        2 -1    0    0  501    0 0.00000000E+00 0.00000000E+00 -.15705610E+03 0.15705643E+03 0.32000000E+00 0.0000E+00 0.9000E+01
       25  2    1    2    0    0 0.86306535E+02 0.16006610E+03 0.18711175E+03 0.39849772E+03 0.30119702E+03 0.0000E+00 0.0000E+00
       23  2    1    2    0    0 -.86306535E+02 -.16006610E+03 0.17125743E+03 0.27398410E+03 0.11255312E+03 0.0000E+00 0.0000E+00
       23  1    3    3    0    0 0.79801495E+02 0.16823396E+03 0.20583250E+02 0.20835034E+03 0.91188000E+02 0.0000E+00 0.9000E+01
      -13  1    4    4    0    0 -.77431645E+02 -.89761967E+02 0.16455125E+03 0.20280531E+03 0.10565837E+00 0.0000E+00 0.9000E+01
       13  1    4    4    0    0 -.88748895E+01 -.70304136E+02 0.67061765E+01 0.71178783E+02 0.10565837E+00 0.0000E+00 0.9000E+01
       23  1    3    3    0    0 0.65050402E+01 -.81678591E+01 0.16652850E+03 0.19014737E+03 0.91188000E+02 0.0000E+00 0.9000E+01
#aMCatNLO 1  0  0  1  1 0.19304521D+03 0.00000000D+00  -5  7  0 0.00000000D+00 0.00000000D+00 0.00000000D+00 0.00000000D+00 0.00000000D+00
  <mgrwgt>
 0.1737330515D-03    3    2    0
 0.284518593960717D+03 0.000000000000000D+00 0.000000000000000D+00 0.284518593960717D+03
 0.284518593960717D+03 0.000000000000000D+00 0.000000000000000D+00 -.284518593960717D+03
 0.233263667820666D+03 0.798017685628129D+02 0.168234469692147D+03 -.106890262993405D+03
 0.136041658234100D+03 -.774314885893921D+02 -.897626980112078D+02 0.667409574074512D+02
 0.798944514418714D+02 -.887546078225852D+01 -.703041734090332D+02 -.369008505101539D+02
 0.119837410424798D+03 0.650518080883770D+01 -.816759827190599D+01 0.770501560961073D+02
 0.000000000000000D+00 -.000000000000000D+00 -.000000000000000D+00 -.000000000000000D+00
 0.364550973633808D+03 0.000000000000000D+00 0.000000000000000D+00 0.364550973633808D+03
 0.445777781107464D+03 0.000000000000000D+00 0.000000000000000D+00 -.445777781107464D+03
 0.307701315516231D+03 0.979175174222254D+02 0.255639354727492D+03 -.106890262993405D+03
 0.108507668949062D+03 -.692420598251472D+02 -.502503330960770D+02 0.667409574074512D+02
 0.604014527181014D+02 -.417725397765384D+01 -.476362600472631D+02 -.369008505101539D+02
 0.124280381541561D+03 0.146801583907466D+02 0.312750425627849D+02 0.770501560961073D+02
 0.209437936016317D+03 -.391783620101710D+02 -.189027804146936D+03 -.812268074736556D+02
0.426720525590D-05 0.000000000000D+00 0.000000000000D+00 0.335602064515D-09 0.000000000000D+00  7 -2 2 23 -13 13 23 21 0 0.79296230D-01 0.24162510D-01 0.59663671D+05 0.59663671D+05 0.59663671D+05 0.11406059D+01  1  2  2  1  7  1       -2 0.172018032072D-03 0.100000000000D+01
-.230358388008D-06 0.000000000000D+00 -.163871917636D-07 0.335602064515D-09 0.000000000000D+00  7 -2 2 23 -13 13 23 21 2 0.79296230D-01 0.24162510D-01 0.59663671D+05 0.59663671D+05 0.59663671D+05 0.11406059D+01  1  2  3  1  7  1       -2 -.120810790552D-04 0.100000000000D+01
0.263059863659D-06 0.000000000000D+00 0.000000000000D+00 0.335602064515D-09 0.000000000000D+00  7 -2 2 23 -13 13 23 21 2 0.79296230D-01 0.24162510D-01 0.59663671D+05 0.59663671D+05 0.59663671D+05 0.11406059D+01  1  2 15  1  7  1       -2 0.137960984906D-04 0.100000000000D+01
  </mgrwgt>
  </event>
  <event>
  8     66 0.53686478E-06 0.25590963E+03 0.75467711E-02 0.10279535E+00
       -2 -1    0    0    0  501 0.00000000E+00 0.00000000E+00 0.14244431E+03 0.14244467E+03 0.32000000E+00 0.0000E+00 0.9000E+01
        2 -1    0    0  501    0 0.00000000E+00 0.00000000E+00 -.51362094E+03 0.51362104E+03 0.32000000E+00 0.0000E+00 0.9000E+01
       25  2    1    2    0    0 -.16192712E+03 -.50833142E+02 -.27685583E+03 0.44192622E+03 0.29974194E+03 0.0000E+00 0.0000E+00
       23  2    1    2    0    0 0.16192712E+03 0.50833142E+02 -.94320799E+02 0.21413950E+03 0.90304531E+02 0.0000E+00 0.0000E+00
       23  1    3    3    0    0 -.14829866E+03 -.11426992E+03 -.96146066E+02 0.22936745E+03 0.91188000E+02 0.0000E+00 0.9000E+01
      -11  1    4    4    0    0 -.72011122E+01 -.96509750E+01 -.10280263E+02 0.15832913E+02 0.51099893E-03 0.0000E+00 0.9000E+01
       11  1    4    4    0    0 0.16912824E+03 0.60484117E+02 -.84040537E+02 0.19830658E+03 0.51099893E-03 0.0000E+00 0.9000E+01
       23  1    3    3    0    0 -.13628461E+02 0.63436781E+02 -.18070977E+03 0.21255877E+03 0.91188000E+02 0.0000E+00 0.9000E+01
#aMCatNLO 1  0  0  1  1 0.39984694D+01 0.00000000D+00  -5  7  0 0.00000000D+00 0.00000000D+00 0.00000000D+00 0.00000000D+00 0.00000000D+00
  <mgrwgt>
 0.3001080390D-03    6    2    0
 0.270485734107593D+03 0.000000000000000D+00 0.000000000000000D+00 0.270485734107593D+03
 0.270485734107593D+03 0.000000000000000D+00 0.000000000000000D+00 -.270485734107593D+03
 0.212197781818428D+03 -.148298662891201D+03 -.114269923324386D+03 0.407742378565475D+02
 0.121478461197958D+02 -.720111222622234D+01 -.965097498962070D+01 -.160400430339360D+01
 0.182834533705406D+03 0.169128236436412D+03 0.604841168731355D+02 0.341434907597209D+02
 0.133791306571556D+03 -.136284613189886D+02 0.634367814408708D+02 -.733137243128747D+02
 0.000000000000000D+00 -.000000000000000D+00 0.000000000000000D+00 -.000000000000000D+00
 0.271524191075135D+03 0.000000000000000D+00 0.000000000000000D+00 0.271524191075135D+03
 0.274369624203631D+03 0.000000000000000D+00 0.000000000000000D+00 -.274369624203631D+03
 0.212363165012863D+03 -.147490728195780D+03 -.115614917436189D+03 0.407742378565475D+02
 0.121819190266051D+02 -.715481295743673D+01 -.972805082786653D+01 -.160400430339360D+01
 0.183100006562259D+03 0.169824605741082D+03 0.593248491504709D+02 0.341434907597209D+02
 0.133341154306722D+03 -.131201112575251D+02 0.625905152224766D+02 -.733137243128747D+02
 0.490757037031584D+01 -.205895333034035D+01 0.342760389110793D+01 -.284543312849628D+01
0.211075236561D-05 0.000000000000D+00 0.000000000000D+00 0.173312931233D-06 0.000000000000D+00  7 -2 2 23 -11 11 23 21 0 0.21914545D-01 0.79018642D-01 0.65489739D+05 0.65489739D+05 0.65489739D+05 0.11371267D+01  1  2  2  1  7  1       -2 0.261613524203D-03 0.100000000000D+01
-.116826511207D-06 0.000000000000D+00 -.810584485782D-08 0.173312931233D-06 0.000000000000D+00  7 -2 2 23 -11 11 23 21 2 0.21914545D-01 0.79018642D-01 0.65489739D+05 0.65489739D+05 0.65489739D+05 0.11371267D+01  1  2  3  1  7  1       -2 -.187232857306D-04 0.100000000000D+01
0.136913522731D-06 0.000000000000D+00 0.000000000000D+00 0.173312931233D-06 0.000000000000D+00  7 -2 2 23 -11 11 23 21 2 0.21914545D-01 0.79018642D-01 0.65489739D+05 0.65489739D+05 0.65489739D+05 0.11371267D+01  1  2 15  1  7  1       -2 0.219425452321D-04 0.100000000000D+01
-.490270639117D-05 0.000000000000D+00 0.000000000000D+00 0.173312931233D-06 0.000000000000D+00  7 -2 2 23 -11 11 23 21 2 0.21914545D-01 0.79018642D-01 0.65489739D+05 0.65489739D+05 0.65489739D+05 0.11371267D+01  1  2  4  1  7  1       -2 -.785735803172D-03 0.100000000000D+01
0.487761523162D-05 0.000000000000D+00 0.000000000000D+00 0.173312931233D-06 0.746920681198D-07  7 -2 2 23 -11 11 23 21 2 0.21998680D-01 0.80153266D-01 0.66500113D+05 0.66500113D+05 0.66500113D+05 0.11365582D+01  1  2 11  1  7  1       -2 0.763783255547D-03 0.100000000000D+01
0.287088926636D-07 0.000000000000D+00 0.000000000000D+00 0.173312931233D-06 0.537643355621D-10  7 21 2 23 -11 11 23 2 2 0.21998680D-01 0.80153266D-01 0.66500113D+05 0.66500113D+05 0.66500113D+05 0.11365582D+01  1  2 11  3  7  1       -2 0.572278029470D-04 0.100000000000D+01
  </mgrwgt>
  </event>
  <event>
  8     66 0.53686478E-06 0.26246033E+03 0.75467711E-02 0.99458988E-01
       -2 -1    0    0    0  501 0.00000000E+00 0.00000000E+00 0.13978408E+03 0.13978445E+03 0.32000000E+00 0.0000E+00 0.9000E+01
        2 -1    0    0  501    0 0.00000000E+00 0.00000000E+00 -.81625125E+03 0.81625131E+03 0.32000000E+00 0.0000E+00 0.9000E+01
       25  2    1    2    0    0 0.11976046E+03 0.22596524E+03 -.31691747E+03 0.50595723E+03 0.30025519E+03 0.0000E+00 0.0000E+00
       23  2    1    2    0    0 -.11976046E+03 -.22596524E+03 -.35954969E+03 0.45007853E+03 0.88836044E+02 0.0000E+00 0.0000E+00
       23  1    3    3    0    0 0.40315861E+02 -.48184144E+01 -.55750333E+01 0.99974587E+02 0.91188000E+02 0.0000E+00 0.9000E+01
      -11  1    4    4    0    0 -.26593867E+02 -.55144761E+02 -.31964608E+02 0.69064568E+02 0.51099893E-03 0.0000E+00 0.9000E+01
       11  1    4    4    0    0 -.93166591E+02 -.17082048E+03 -.32758508E+03 0.38101396E+03 0.51099893E-03 0.0000E+00 0.9000E+01
       23  1    3    3    0    0 0.79444597E+02 0.23078366E+03 -.31134244E+03 0.40598265E+03 0.91188000E+02 0.0000E+00 0.9000E+01
#aMCatNLO 1  0  0  2  1 0.47649156D+02 0.00000000D+00  -5  7  0 0.00000000D+00 0.00000000D+00 0.00000000D+00 0.00000000D+00 0.00000000D+00
  <mgrwgt>
 0.2824233366D-03    9    2    0
 0.337785637774173D+03 0.000000000000000D+00 0.000000000000000D+00 0.337785637774173D+03
 0.337785637774173D+03 0.000000000000000D+00 0.000000000000000D+00 -.337785637774173D+03
 0.135896768756663D+03 0.403158605703699D+02 -.481841434841670D+01 0.922176484418217D+02
 0.657298364789217D+02 -.265938673534641D+02 -.551447610494903D+02 0.239213910867815D+02
 0.211173007264561D+03 -.931665905202121D+02 -.170820482447297D+03 -.820633181419701D+02
 0.262771663048199D+03 0.794445973033062D+02 0.230783657845204D+03 -.340757213866331D+02
 0.000000000000000D+00 -.000000000000000D+00 0.000000000000000D+00 -.000000000000000D+00
 0.352609851809554D+03 0.000000000000000D+00 0.000000000000000D+00 0.352609851809554D+03
 0.379211700979339D+03 0.000000000000000D+00 0.000000000000000D+00 -.379211700979339D+03
 0.138211278320861D+03 0.461045435633684D+02 -.125452178044275D+02 0.922176484418217D+02
 0.678813016607460D+02 -.237722335806857D+02 -.589111116362250D+02 0.239213910867815D+02
 0.217400143470700D+03 -.841158744417624D+02 -.182901486772275D+03 -.820633181419701D+02
 0.253756854204677D+03 0.903527770342529D+02 0.216223288768886D+03 -.340757213866331D+02
 0.545719751319096D+02 -.285692125751731D+02 0.381345274440413D+02 -.266018491697850D+02
0.226385130298D-05 0.000000000000D+00 0.000000000000D+00 0.145968830222D-06 0.000000000000D+00  7 -2 2 23 -11 11 23 21 0 0.21505276D-01 0.12557715D+00 0.94916310D+05 0.94916310D+05 0.94916310D+05 0.11235862D+01  1  2  2  2  7  2        2 0.167786572900D-03 0.100000000000D+01
-.124474208957D-06 0.000000000000D+00 -.869378508917D-08 0.145968830222D-06 0.000000000000D+00  7 -2 2 23 -11 11 23 21 2 0.21505276D-01 0.12557715D+00 0.94916310D+05 0.94916310D+05 0.94916310D+05 0.11235862D+01  1  2  3  2  7  2        2 -.116466629866D-04 0.100000000000D+01
0.135034824494D-06 0.000000000000D+00 0.000000000000D+00 0.145968830222D-06 0.000000000000D+00  7 -2 2 23 -11 11 23 21 2 0.21505276D-01 0.12557715D+00 0.94916310D+05 0.94916310D+05 0.94916310D+05 0.11235862D+01  1  2 15  2  7  2        2 0.126347868006D-04 0.100000000000D+01
0.441399275284D-05 0.000000000000D+00 0.000000000000D+00 0.145968830222D-06 0.000000000000D+00  7 -2 2 23 -11 11 23 21 2 0.21505276D-01 0.14348881D+00 0.11118856D+06 0.11118856D+06 0.11118856D+06 0.11179618D+01  1  2 12  2  7  2        2 0.342877776936D-03 0.100000000000D+01
-.435093905779D-05 0.000000000000D+00 0.000000000000D+00 0.145968830222D-06 0.000000000000D+00  7 -2 2 23 -11 11 23 21 2 0.21505276D-01 0.12557715D+00 0.94916310D+05 0.94916310D+05 0.94916310D+05 0.11235862D+01  1  2  4  2  7  2        2 -.407103779216D-03 0.100000000000D+01
-.103005691030D-04 0.000000000000D+00 -.212550592818D-05 0.145968830222D-06 0.000000000000D+00  7 -2 2 23 -11 11 23 21 2 0.21505276D-01 0.14492181D+00 0.94916310D+05 0.94916310D+05 0.94916310D+05 0.11235862D+01  1  2  5  2  7  2        2 -.798791921090D-03 0.100000000000D+01
0.105185848160D-04 0.000000000000D+00 0.210387536609D-05 0.145968830222D-06 0.000000000000D+00  7 -2 2 23 -11 11 23 21 2 0.21505276D-01 0.12557715D+00 0.94916310D+05 0.94916310D+05 0.94916310D+05 0.11235862D+01  1  2  6  2  7  2        2 0.984191130635D-03 0.100000000000D+01
0.914409922015D-07 0.000000000000D+00 0.000000000000D+00 0.145968830222D-06 0.000000000000D+00  7 -2 21 23 -11 11 23 -2 2 0.21505276D-01 0.14348881D+00 0.11118856D+06 0.11118856D+06 0.11118856D+06 0.11179618D+01  1  2 12  4  7  2        2 0.576848053814D-05 0.100000000000D+01
-.212783243535D-06 0.000000000000D+00 -.467101211941D-07 0.145968830222D-06 0.000000000000D+00  7 -2 21 23 -11 11 23 -2 2 0.21505276D-01 0.14492181D+00 0.94916310D+05 0.94916310D+05 0.94916310D+05 0.11235862D+01  1  2  5  4  7  2        2 -.132930479149D-04 0.100000000000D+01
  </mgrwgt>
  </event>
  <event>
  8     66 0.53686478E-06 0.11993659E+03 0.75467711E-02 0.10490493E+00
       -2 -1    0    0    0  501 0.00000000E+00 0.00000000E+00 0.39783687E+02 0.39784973E+02 0.32000000E+00 0.0000E+00 0.9000E+01
        2 -1    0    0  501    0 0.00000000E+00 0.00000000E+00 -.21382950E+04 0.21382950E+04 0.32000000E+00 0.0000E+00 0.9000E+01
       25  2    1    2    0    0 -.94849161E+02 -.67040538E+02 -.19168097E+04 0.19436618E+04 0.30028434E+03 0.0000E+00 0.0000E+00
       23  2    1    2    0    0 0.94849161E+02 0.67040538E+02 -.18170153E+03 0.23441819E+03 0.91900186E+02 0.0000E+00 0.0000E+00
       23  1    3    3    0    0 -.97168095E+02 -.14011398E+03 -.92534288E+03 0.94532971E+03 0.91188000E+02 0.0000E+00 0.9000E+01
      -13  1    4    4    0    0 0.85628503E+02 0.56564691E+02 -.19156917E+03 0.21732593E+03 0.10565837E+00 0.0000E+00 0.9000E+01
       13  1    4    4    0    0 0.92206580E+01 0.10475847E+02 0.98676335E+01 0.17092257E+02 0.10565837E+00 0.0000E+00 0.9000E+01
       23  1    3    3    0    0 0.23189333E+01 0.73073442E+02 -.99146686E+03 0.99833205E+03 0.91188000E+02 0.0000E+00 0.9000E+01
#aMCatNLO 1  0  0  2  1 0.12792191D+02 0.00000000D+00  -5  7  0 0.00000000D+00 0.00000000D+00 0.00000000D+00 0.00000000D+00 0.00000000D+00
  <mgrwgt>
 0.3933233997D-03    9    2    0
 0.291668791678108D+03 0.000000000000000D+00 0.000000000000000D+00 0.291668791678108D+03
 0.291668791678108D+03 0.000000000000000D+00 0.000000000000000D+00 -.291668791678108D+03
 0.200846362304400D+03 -.971680946224805D+02 -.140113979445251D+03 -.543179901907517D+02
 0.122301777025899D+03 0.856286039323634D+02 0.565647517325753D+02 0.665274057341740D+02
 0.993174920088112D+02 0.922055792319902D+01 0.104757867643701D+02 0.983321077887211D+02
 0.160871952017105D+03 0.231893276691810D+01 0.730734409483059D+02 -.110541523332143D+03
 0.000000000000000D+00 -.000000000000000D+00 -.000000000000000D+00 -.000000000000000D+00
 0.293873226739358D+03 0.000000000000000D+00 0.000000000000000D+00 0.293873226739358D+03
 0.310906697633496D+03 0.000000000000000D+00 0.000000000000000D+00 -.310906697633496D+03
 0.197432157209893D+03 -.962184164494695D+02 -.135852043172511D+03 -.543179901907517D+02
 0.123950317601121D+03 0.862157815677797D+02 0.591998693271898D+02 0.665274057341740D+02
 0.996095746281723D+02 0.969489104424363D+01 0.126044842446255D+02 0.983321077887211D+02
 0.162485779029950D+03 0.308996550959334D+01 0.765336577953028D+02 -.110541523332143D+03
 0.213020959037172D+02 -.278222167214712D+01 -.124859681946069D+02 -.170334708941386D+02
0.166305374154D-05 0.000000000000D+00 0.000000000000D+00 0.258734394141D-06 0.000000000000D+00  7 -2 2 23 -13 13 23 21 0 0.61206680D-02 0.32896856D+00 0.45543781D+05 0.45543781D+05 0.45543781D+05 0.11508785D+01  1  2  2  2  7  2        2 0.161882249379D-03 0.100000000000D+01
-.814283801353D-07 0.000000000000D+00 -.638656425964D-08 0.258734394141D-06 0.000000000000D+00  7 -2 2 23 -13 13 23 21 2 0.61206680D-02 0.32896856D+00 0.45543781D+05 0.45543781D+05 0.45543781D+05 0.11508785D+01  1  2  3  2  7  2        2 -.104985109158D-04 0.100000000000D+01
0.101399543184D-06 0.000000000000D+00 0.000000000000D+00 0.258734394141D-06 0.000000000000D+00  7 -2 2 23 -13 13 23 21 2 0.61206680D-02 0.32896856D+00 0.45543781D+05 0.45543781D+05 0.45543781D+05 0.11508785D+01  1  2 15  2  7  2        2 0.130733806715D-04 0.100000000000D+01
0.102329325627D-04 0.000000000000D+00 0.000000000000D+00 0.258734394141D-06 0.000000000000D+00  7 -2 2 23 -13 13 23 21 2 0.61206680D-02 0.35186075D+00 0.48880765D+05 0.48880765D+05 0.48880765D+05 0.11481612D+01  1  2 12  2  7  2        2 0.108967330877D-02 0.100000000000D+01
-.104312071767D-04 0.000000000000D+00 0.000000000000D+00 0.258734394141D-06 0.000000000000D+00  7 -2 2 23 -13 13 23 21 2 0.61206680D-02 0.32896856D+00 0.45543781D+05 0.45543781D+05 0.45543781D+05 0.11508785D+01  1  2  4  2  7  2        2 -.134488911886D-02 0.100000000000D+01
-.218365489100D-04 0.000000000000D+00 -.246831320740D-05 0.258734394141D-06 0.000000000000D+00  7 -2 2 23 -13 13 23 21 2 0.61206680D-02 0.35156779D+00 0.45543781D+05 0.45543781D+05 0.45543781D+05 0.11508785D+01  1  2  5  2  7  2        2 -.234504725183D-02 0.100000000000D+01
0.219575009579D-04 0.000000000000D+00 0.246287524141D-05 0.258734394141D-06 0.000000000000D+00  7 -2 2 23 -13 13 23 21 2 0.61206680D-02 0.32896856D+00 0.45543781D+05 0.45543781D+05 0.45543781D+05 0.11508785D+01  1  2  6  2  7  2        2 0.283096707939D-02 0.100000000000D+01
0.140817187721D-06 0.000000000000D+00 0.000000000000D+00 0.258734394141D-06 0.000000000000D+00  7 -2 21 23 -13 13 23 -2 2 0.61206680D-02 0.35186075D+00 0.48880765D+05 0.48880765D+05 0.48880765D+05 0.11481612D+01  1  2 12  4  7  2        2 0.244075403969D-05 0.100000000000D+01
-.243134419540D-06 0.000000000000D+00 -.279073391076D-07 0.258734394141D-06 0.000000000000D+00  7 -2 21 23 -13 13 23 -2 2 0.61206680D-02 0.35156779D+00 0.45543781D+05 0.45543781D+05 0.45543781D+05 0.11508785D+01  1  2  5  4  7  2        2 -.427849092331D-05 0.100000000000D+01
  </mgrwgt>
  </event>
  <event>
  8     66 0.53686478E-06 0.26153333E+03 0.75467711E-02 0.95179076E-01
       -2 -1    0    0    0  501 0.00000000E+00 0.00000000E+00 0.66027553E+02 0.66028329E+02 0.32000000E+00 0.0000E+00 0.9000E+01
        2 -1    0    0  501    0 0.00000000E+00 0.00000000E+00 -.12484694E+04 0.12484695E+04 0.32000000E+00 0.0000E+00 0.9000E+01
       25  2    1    2    0    0 -.15433239E+03 -.46073559E+02 -.47856936E+03 0.58665115E+03 0.29864641E+03 0.0000E+00 0.0000E+00
       23  2    1    2    0    0 0.15433239E+03 0.46073559E+02 -.70387254E+03 0.72784667E+03 0.91558551E+02 0.0000E+00 0.0000E+00
       23  1    3    3    0    0 -.19711483E+03 -.81222772E+02 -.34550773E+03 0.41610364E+03 0.91188000E+02 0.0000E+00 0.9000E+01
      -11  1    4    4    0    0 -.79457891E+00 0.28362384E+02 -.86392599E+02 0.90932598E+02 0.51099893E-03 0.0000E+00 0.9000E+01
       11  1    4    4    0    0 0.15512697E+03 0.17711175E+02 -.61747994E+03 0.63691408E+03 0.51099893E-03 0.0000E+00 0.9000E+01
       23  1    3    3    0    0 0.42782439E+02 0.35149213E+02 -.13306162E+03 0.17054750E+03 0.91188000E+02 0.0000E+00 0.9000E+01
#aMCatNLO 1  0  0  2  1 0.33154836D+03 0.00000000D+00  -5  7  0 0.00000000D+00 0.00000000D+00 0.00000000D+00 0.00000000D+00 0.00000000D+00
  <mgrwgt>
 0.3651199133D-03    5    2    0
 0.287113078111559D+03 0.000000000000000D+00 0.000000000000000D+00 0.287113078111559D+03
 0.287113078111559D+03 0.000000000000000D+00 0.000000000000000D+00 -.287113078111559D+03
 0.241062703722579D+03 -.197114830677961D+03 -.812227724238479D+02 0.659134322321519D+02
 0.302606785252512D+02 -.794578904809534D+00 0.283623844846469D+02 -.105191470907907D+02
 0.186491002582946D+03 0.155126970810672D+03 0.177111748929789D+02 -.101984465755367D+03
 0.116411771392341D+03 0.427824387720980D+02 0.351492130462220D+02 0.465901806140057D+02
 0.000000000000000D+00 -.000000000000000D+00 0.000000000000000D+00 -.000000000000000D+00
 0.390670426184150D+03 0.000000000000000D+00 0.000000000000000D+00 0.390670426184150D+03
 0.796243210403252D+03 0.000000000000000D+00 0.000000000000000D+00 -.796243210403252D+03
 0.267352607679837D+03 -.134156301793065D+03 -.202038787438934D+03 0.659134322321519D+02
 0.202080874663167D+02 0.545511340422123D+01 0.163693641072493D+02 -.105191470907907D+02
 0.247667356384251D+03 0.208890047906555D+03 -.854589728966666D+02 -.101984465755367D+03
 0.127840569213664D+03 0.730289079408341D+02 -.228930877820625D+02 0.465901806140057D+02
 0.523845015843332D+03 -.153217767458545D+03 0.294021484010414D+03 -.405572784219102D+03
0.271193144684D-05 0.000000000000D+00 0.000000000000D+00 0.578268016043D-07 0.000000000000D+00  7 -2 2 23 -11 11 23 21 0 0.10158148D-01 0.19207229D+00 0.68399683D+05 0.68399683D+05 0.68399683D+05 0.11355144D+01  1  2  2  2  7  2        2 0.365584987447D-03 0.100000000000D+01
-.149067768624D-06 0.000000000000D+00 -.104145308238D-07 0.578268016043D-07 0.000000000000D+00  7 -2 2 23 -11 11 23 21 2 0.10158148D-01 0.19207229D+00 0.68399683D+05 0.68399683D+05 0.68399683D+05 0.11355144D+01  1  2  3  2  7  2        2 -.259106748564D-04 0.100000000000D+01
0.171132197143D-06 0.000000000000D+00 0.000000000000D+00 0.578268016043D-07 0.000000000000D+00  7 -2 2 23 -11 11 23 21 2 0.10158148D-01 0.19207229D+00 0.68399683D+05 0.68399683D+05 0.68399683D+05 0.11355144D+01  1  2 15  2  7  2        2 0.297458716835D-04 0.100000000000D+01
-.687984271545D-06 0.000000000000D+00 -.774531012124D-06 0.578268016043D-07 0.000000000000D+00  7 -2 2 23 -11 11 23 21 2 0.10158148D-01 0.56979205D+00 0.68399683D+05 0.68399683D+05 0.68399683D+05 0.11355144D+01  1  2  5  2  7  2        2 -.429215022330D-05 0.100000000000D+01
-.454028084126D-07 0.000000000000D+00 -.956243660344D-07 0.578268016043D-07 0.000000000000D+00  7 -2 21 23 -11 11 23 -2 2 0.10158148D-01 0.56979205D+00 0.68399683D+05 0.68399683D+05 0.68399683D+05 0.11355144D+01  1  2  5  4  7  2        2 -.812078108489D-08 0.100000000000D+01
  </mgrwgt>
  </event>
  <event>
  8     66 0.53686478E-06 0.94062346E+03 0.75467711E-02 0.82887477E-01
       -2 -1    0    0    0  501 0.00000000E+00 0.00000000E+00 0.99350848E+03 0.99350853E+03 0.32000000E+00 0.0000E+00 0.9000E+01
        2 -1    0    0  501    0 0.00000000E+00 0.00000000E+00 -.34456075E+04 0.34456075E+04 0.32000000E+00 0.0000E+00 0.9000E+01
       25  2    1    2    0    0 0.47718256E+03 0.78885384E+03 -.31393684E+04 0.32856458E+04 0.29973397E+03 0.0000E+00 0.0000E+00
       23  2    1    2    0    0 -.47718256E+03 -.78885384E+03 0.68726937E+03 0.11534703E+04 0.90338210E+02 0.0000E+00 0.0000E+00
       23  1    3    3    0    0 0.18168305E+03 0.17528027E+03 -.65120389E+03 0.70435337E+03 0.91188000E+02 0.0000E+00 0.9000E+01
      -13  1    4    4    0    0 -.41516533E+03 -.73229765E+03 0.61227916E+03 0.10409168E+04 0.10565837E+00 0.0000E+00 0.9000E+01
       13  1    4    4    0    0 -.62017225E+02 -.56556186E+02 0.74990210E+02 0.11255346E+03 0.10565837E+00 0.0000E+00 0.9000E+01
       23  1    3    3    0    0 0.29549950E+03 0.61357357E+03 -.24881645E+04 0.25812924E+04 0.91188000E+02 0.0000E+00 0.9000E+01
#aMCatNLO 1  0  0  1  1 0.10934949D+04 0.00000000D+00  -5  7  0 0.00000000D+00 0.00000000D+00 0.00000000D+00 0.00000000D+00 0.00000000D+00
  <mgrwgt>
 0.8977746086D-04    5    2    0
 0.185020010401311D+04 0.000000000000000D+00 0.000000000000000D+00 0.185020010401311D+04
 0.185020010401311D+04 0.000000000000000D+00 0.000000000000000D+00 -.185020010401311D+04
 0.413439038978862D+03 0.181683053029492D+03 0.175280270099958D+03 -.314459349937848D+03
 0.165445003991936D+04 -.415165815133228D+03 -.732298574463525D+03 0.142428265396045D+04
 0.184713493215675D+03 -.620167421270221D+02 -.565552617107495D+02 0.164543309328324D+03
 0.144779763591232D+04 0.295499504230758D+03 0.613573566074317D+03 -.127436661335093D+04
 0.000000000000000D+00 0.000000000000000D+00 -.000000000000000D+00 0.000000000000000D+00
 0.105374954315218D+05 0.000000000000000D+00 0.000000000000000D+00 0.105374954315218D+05
 0.196401994639945D+04 0.000000000000000D+00 0.000000000000000D+00 -.196401994639945D+04
 0.427739954165726D+03 0.933216771043542D+02 0.258945165749032D+03 -.314459349937848D+03
 0.166547698353023D+04 -.763906478123880D+03 -.402093766398721D+03 0.142428265396045D+04
 0.194426665848271D+03 -.101843397804819D+03 -.188454257507753D+02 0.164543309328324D+03
 0.157094328106472D+04 -.216031613843755D+02 0.913821962514079D+03 -.127436661335093D+04
 0.864292849331231D+04 0.794031360208721D+03 -.751827936113615D+03 0.857347548512236D+04
0.303585503539D-02 0.000000000000D+00 0.000000000000D+00 0.258105754310D-04 0.000000000000D+00  7 -2 2 23 -13 13 23 21 0 0.15284746D+00 0.53009347D+00 0.88477250D+06 0.88477250D+06 0.88477250D+06 0.10514216D+01  1  2  2  1  7  1       -2 0.867314230085D-04 0.100000000000D+01
-.748087720536D-04 0.000000000000D+00 -.116584826949D-04 0.258105754310D-04 0.000000000000D+00  7 -2 2 23 -13 13 23 21 2 0.15284746D+00 0.53009347D+00 0.88477250D+06 0.88477250D+06 0.88477250D+06 0.10514216D+01  1  2  3  1  7  1       -2 -.236266305994D-05 0.100000000000D+01
0.174989581182D-03 0.000000000000D+00 0.000000000000D+00 0.258105754310D-04 0.000000000000D+00  7 -2 2 23 -13 13 23 21 2 0.15284746D+00 0.53009347D+00 0.88477250D+06 0.88477250D+06 0.88477250D+06 0.10514216D+01  1  2 15  1  7  1       -2 0.552664357379D-05 0.100000000000D+01
-.230946851295D-01 0.000000000000D+00 -.118194518736D-02 0.258105754310D-04 0.000000000000D+00  7 -2 2 23 -13 13 23 21 2 0.87171848D+00 0.53009347D+00 0.88477250D+06 0.88477250D+06 0.88477250D+06 0.10514216D+01  1  2  5  1  7  1       -2 -.117432224166D-06 0.100000000000D+01
-.498890087482D-02 0.000000000000D+00 -.252060351079D-03 0.258105754310D-04 0.000000000000D+00  7 21 2 23 -13 13 23 2 2 0.87171848D+00 0.53009347D+00 0.88477250D+06 0.88477250D+06 0.88477250D+06 0.10514216D+01  1  2  5  3  7  1       -2 -.510434606770D-09 0.100000000000D+01
  </mgrwgt>
  </event>
  <event>
  8     66 0.53686478E-06 0.30691017E+03 0.75467711E-02 0.93376879E-01
       -2 -1    0    0    0  501 0.00000000E+00 0.00000000E+00 0.41383466E+03 0.41383479E+03 0.32000000E+00 0.0000E+00 0.9000E+01
        2 -1    0    0  501    0 0.00000000E+00 0.00000000E+00 -.10799398E+04 0.10799399E+04 0.32000000E+00 0.0000E+00 0.9000E+01
       25  2    1    2    0    0 0.50324419E+03 -.14746941E+02 -.77350478E+03 0.97040957E+03 0.29985478E+03 0.0000E+00 0.0000E+00
       23  2    1    2    0    0 -.50324419E+03 0.14746941E+02 0.10739963E+03 0.52336508E+03 0.94361742E+02 0.0000E+00 0.0000E+00
       23  1    3    3    0    0 0.25081810E+03 0.10985355E+03 -.41642236E+03 0.50665605E+03 0.91188000E+02 0.0000E+00 0.9000E+01
      -13  1    4    4    0    0 -.34304268E+03 0.50544468E+02 0.55197831E+02 0.35111229E+03 0.10565837E+00 0.0000E+00 0.9000E+01
       13  1    4    4    0    0 -.16020151E+03 -.35797527E+02 0.52201797E+02 0.17225280E+03 0.10565837E+00 0.0000E+00 0.9000E+01
       23  1    3    3    0    0 0.25242609E+03 -.12460049E+03 -.35708243E+03 0.46375352E+03 0.91188000E+02 0.0000E+00 0.9000E+01
#aMCatNLO 1  0  0  2  1 0.22592654D+02 0.00000000D+00  -5  7  0 0.00000000D+00 0.00000000D+00 0.00000000D+00 0.00000000D+00 0.00000000D+00
  <mgrwgt>
 0.1766880748D-03    6    2    0
 0.668518255177695D+03 0.000000000000000D+00 0.000000000000000D+00 0.668518255177695D+03
 0.668518255177695D+03 0.000000000000000D+00 0.000000000000000D+00 -.668518255177695D+03
 0.358590721794778D+03 0.250818102878517D+03 0.109853552544672D+03 -.212825117584924D+03
 0.419772030301580D+03 -.343042912632503D+03 0.505445762692373D+02 0.236591131122624D+03
 0.218452081098161D+03 -.160201280691593D+03 -.357976349657290D+02 0.144136708481050D+03
 0.340221677160871D+03 0.252426090445578D+03 -.124600493848180D+03 -.167902722018751D+03
 0.000000000000000D+00 -.000000000000000D+00 0.000000000000000D+00 0.000000000000000D+00
 0.680280788261646D+03 0.000000000000000D+00 0.000000000000000D+00 0.680280788261646D+03
 0.679551025468803D+03 0.000000000000000D+00 0.000000000000000D+00 -.679551025468803D+03
 0.357066608608108D+03 0.251213234508371D+03 0.103820478575766D+03 -.212825117584924D+03
 0.418600868666862D+03 -.342580026784875D+03 0.434769958810707D+02 0.236591131122624D+03
 0.218909950798648D+03 -.159959802591449D+03 -.394846474192159D+02 0.144136708481050D+03
 0.342649949011388D+03 0.252803120299347D+03 -.130357180542978D+03 -.167902722018751D+03
 0.226044366454441D+02 -.147652543139446D+01 0.225443535053575D+02 0.729762792843148D+00
0.206775234358D-04 0.000000000000D+00 0.000000000000D+00 0.278020128029D-06 0.000000000000D+00  7 -2 2 23 -13 13 23 21 0 0.63666884D-01 0.16614460D+00 0.29997971D+06 0.29997971D+06 0.29997971D+06 0.10845540D+01  1  2  2  2  7  2        2 0.135526161747D-03 0.100000000000D+01
-.109325718838D-05 0.000000000000D+00 -.794071345106D-07 0.278020128029D-06 0.000000000000D+00  7 -2 2 23 -13 13 23 21 2 0.63666884D-01 0.16614460D+00 0.29997971D+06 0.29997971D+06 0.29997971D+06 0.10845540D+01  1  2  3  2  7  2        2 -.842848174730D-05 0.100000000000D+01
0.127293649138D-05 0.000000000000D+00 0.000000000000D+00 0.278020128029D-06 0.000000000000D+00  7 -2 2 23 -13 13 23 21 2 0.63666884D-01 0.16614460D+00 0.29997971D+06 0.29997971D+06 0.29997971D+06 0.10845540D+01  1  2 15  2  7  2        2 0.981372187363D-05 0.100000000000D+01
0.220565008903D-04 0.000000000000D+00 0.000000000000D+00 0.278020128029D-06 0.000000000000D+00  7 -2 2 23 -13 13 23 21 2 0.63666884D-01 0.17032351D+00 0.31252779D+06 0.31252779D+06 0.31252779D+06 0.10832398D+01  1  2 12  2  7  2        2 0.163138647393D-03 0.100000000000D+01
-.162832492883D-04 0.000000000000D+00 0.000000000000D+00 0.278020128029D-06 0.000000000000D+00  7 -2 2 23 -13 13 23 21 2 0.63666884D-01 0.16614460D+00 0.29997971D+06 0.29997971D+06 0.29997971D+06 0.10845540D+01  1  2  4  2  7  2        2 -.125535940557D-03 0.100000000000D+01
0.498199444874D-06 0.000000000000D+00 0.000000000000D+00 0.278020128029D-06 0.000000000000D+00  7 -2 21 23 -13 13 23 -2 2 0.63666884D-01 0.17032351D+00 0.31252779D+06 0.31252779D+06 0.31252779D+06 0.10832398D+01  1  2 12  4  7  2        2 0.217396607753D-05 0.100000000000D+01
  </mgrwgt>
  </event>
  <event>
  8     66 0.53686478E-06 0.20425702E+03 0.75467711E-02 0.94344228E-01
       -2 -1    0    0    0  501 0.00000000E+00 0.00000000E+00 0.46106376E+03 0.46106387E+03 0.32000000E+00 0.0000E+00 0.9000E+01
        2 -1    0    0  501    0 0.00000000E+00 0.00000000E+00 -.18802465E+03 0.18802492E+03 0.32000000E+00 0.0000E+00 0.9000E+01
       25  2    1    2    0    0 -.92810413E+02 -.24835808E+02 0.37090899E+03 0.48685029E+03 0.30036501E+03 0.0000E+00 0.0000E+00
       23  2    1    2    0    0 0.92810413E+02 0.24835808E+02 -.97869876E+02 0.16223850E+03 0.86673104E+02 0.0000E+00 0.0000E+00
       23  1    3    3    0    0 0.72573647E+02 -.26668551E+02 0.19511888E+03 0.22883351E+03 0.91188000E+02 0.0000E+00 0.9000E+01
      -11  1    4    4    0    0 0.32216411E+02 0.22793246E+02 0.79723811E+01 0.40261496E+02 0.51099893E-03 0.0000E+00 0.9000E+01
       11  1    4    4    0    0 0.60594002E+02 0.20425615E+01 -.10584226E+03 0.12197700E+03 0.51099893E-03 0.0000E+00 0.9000E+01
       23  1    3    3    0    0 -.16538406E+03 0.18327431E+01 0.17579011E+03 0.25801678E+03 0.91188000E+02 0.0000E+00 0.9000E+01
#aMCatNLO 1  0  0  1  1 0.45236522D+03 0.00000000D+00  -5  7  0 0.00000000D+00 0.00000000D+00 0.00000000D+00 0.00000000D+00 0.00000000D+00
  <mgrwgt>
 0.3800173531D-03    3    2    0
 0.294434159761096D+03 0.000000000000000D+00 0.000000000000000D+00 0.294434159761096D+03
 0.294434159761096D+03 0.000000000000000D+00 0.000000000000000D+00 -.294434159761096D+03
 0.161764822582908D+03 0.725736466786958D+02 -.266685508648293D+02 0.108969999008010D+03
 0.406822939879078D+02 0.322164113686877D+02 0.227932462743992D+02 -.988027362559556D+01
 0.183526564288046D+03 0.605940019111898D+02 0.204256147518280D+01 -.173222962318456D+03
 0.202894638663329D+03 -.165384059958573D+03 0.183274311524736D+01 0.741332369360416D+02
 0.000000000000000D+00 0.000000000000000D+00 0.000000000000000D+00 -.000000000000000D+00
 0.452573055025799D+03 0.000000000000000D+00 0.000000000000000D+00 0.452573055025799D+03
 0.100060475728440D+04 0.000000000000000D+00 0.000000000000000D+00 -.100060475728440D+04
 0.158271461490610D+03 -.299242986908791D+02 -.629657036999264D+02 0.108969999008010D+03
 0.221265789164052D+02 0.121006284276760D+02 0.156697313085638D+02 -.988027362559556D+01
 0.187025372398146D+03 -.580825796301914D+02 -.399838616167384D+02 -.173222962318456D+03
 0.375139846475597D+03 -.350511028455338D+03 -.637254672976212D+02 0.741332369360416D+02
 0.710614553029442D+03 0.426417278348733D+03 0.151005301305722D+03 -.548031702258602D+03
0.890699533813D-05 0.000000000000D+00 0.000000000000D+00 0.348999854923D-07 0.000000000000D+00  7 -2 2 23 -11 11 23 21 0 0.70932916D-01 0.28926898D-01 0.41720930D+05 0.41720930D+05 0.41720930D+05 0.11542753D+01  1  2  2  1  7  1       -2 0.373301369667D-03 0.100000000000D+01
-.414381626695D-06 0.000000000000D+00 -.342052073641D-07 0.348999854923D-07 0.000000000000D+00  7 -2 2 23 -11 11 23 21 2 0.70932916D-01 0.28926898D-01 0.41720930D+05 0.41720930D+05 0.41720930D+05 0.11542753D+01  1  2  3  1  7  1       -2 -.231391630853D-04 0.100000000000D+01
0.534653052793D-06 0.000000000000D+00 0.000000000000D+00 0.348999854923D-07 0.000000000000D+00  7 -2 2 23 -11 11 23 21 2 0.70932916D-01 0.28926898D-01 0.41720930D+05 0.41720930D+05 0.41720930D+05 0.11542753D+01  1  2 15  1  7  1       -2 0.298551465259D-04 0.100000000000D+01
  </mgrwgt>
  </event>
  <event>
  8     66 0.53686478E-06 0.18918847E+03 0.75467711E-02 0.98108305E-01
       -2 -1    0    0    0  501 0.00000000E+00 0.00000000E+00 0.41571726E+03 0.41571738E+03 0.32000000E+00 0.0000E+00 0.9000E+01
        2 -1    0    0  501    0 0.00000000E+00 0.00000000E+00 -.41182436E+03 0.41182448E+03 0.32000000E+00 0.0000E+00 0.9000E+01
       25  2    1    2    0    0 -.29781865E+03 -.11826027E+03 -.14820614E+03 0.46358858E+03 0.30044612E+03 0.0000E+00 0.0000E+00
       23  2    1    2    0    0 0.29781865E+03 0.11826027E+03 0.15209904E+03 0.36395328E+03 0.81525663E+02 0.0000E+00 0.0000E+00
       23  1    3    3    0    0 -.43308228E+02 0.28133488E+02 0.28994402E+02 0.10873372E+03 0.91188000E+02 0.0000E+00 0.9000E+01
      -11  1    4    4    0    0 0.14812380E+03 0.76465804E+02 0.11962375E+03 0.20517681E+03 0.51099893E-03 0.0000E+00 0.9000E+01
       11  1    4    4    0    0 0.14969485E+03 0.41794471E+02 0.32475286E+02 0.15877648E+03 0.51099893E-03 0.0000E+00 0.9000E+01
       23  1    3    3    0    0 -.25451042E+03 -.14639376E+03 -.17720054E+03 0.35485486E+03 0.91188000E+02 0.0000E+00 0.9000E+01
#aMCatNLO 1  0  0  1  2 0.93699289D+01 0.00000000D+00  -5  7  0 0.00000000D+00 0.00000000D+00 0.00000000D+00 0.00000000D+00 0.00000000D+00
  <mgrwgt>
 0.9918626368D-03   11    2    0
 0.413766354586744D+03 0.000000000000000D+00 0.000000000000000D+00 0.413766354586744D+03
 0.413766354586744D+03 0.000000000000000D+00 0.000000000000000D+00 -.413766354586744D+03
 0.108598529777147D+03 -.433082277151182D+02 0.281334884677904D+02 0.284832154885322D+02
 0.204616338562984D+03 0.148123802205523D+03 0.764658035022076D+02 0.118659875787322D+03
 0.158625463176497D+03 0.149694848713831D+03 0.417944713441293D+02 0.317287251802851D+02
 0.355692377656861D+03 -.254510423204236D+03 -.146393763314127D+03 -.178871816456139D+03
 0.000000000000000D+00 0.000000000000000D+00 -.000000000000000D+00 0.000000000000000D+00
 0.458131832889605D+03 0.000000000000000D+00 0.000000000000000D+00 0.458131832889605D+03
 0.414287902037518D+03 0.000000000000000D+00 0.000000000000000D+00 -.414287902037518D+03
 0.109161094235809D+03 -.440811159423633D+02 0.290938963267040D+02 0.284832154885322D+02
 0.204252469077087D+03 0.146672615424020D+03 0.782690800182380D+02 0.118659875787322D+03
 0.157941654224396D+03 0.148571265775621D+03 0.431906601408520D+02 0.317287251802851D+02
 0.356230536520866D+03 -.257037231567210D+03 -.143253895834946D+03 -.178871816456139D+03
 0.448339808689657D+02 0.587446630993248D+01 -.729974065084780D+01 0.438439308520872D+02
0.436921204408D-04 0.000000000000D+00 0.000000000000D+00 0.992726406427D-08 0.000000000000D+00  7 -2 2 23 -11 11 23 21 0 0.63956520D-01 0.63357613D-01 0.13482009D+06 0.13482009D+06 0.13482009D+06 0.11112272D+01  1  2  2  1  7  1       -2 0.949891344090D-03 0.100000000000D+01
-.238522784739D-05 0.000000000000D+00 -.167789246892D-06 0.992726406427D-08 0.000000000000D+00  7 -2 2 23 -11 11 23 21 2 0.63956520D-01 0.63357613D-01 0.13482009D+06 0.13482009D+06 0.13482009D+06 0.11112272D+01  1  2  3  1  7  1       -2 -.640333749208D-04 0.100000000000D+01
0.270645489884D-05 0.000000000000D+00 0.000000000000D+00 0.992726406427D-08 0.000000000000D+00  7 -2 2 23 -11 11 23 21 2 0.63956520D-01 0.63357613D-01 0.13482009D+06 0.13482009D+06 0.13482009D+06 0.11112272D+01  1  2 15  1  7  1       -2 0.726569754890D-04 0.100000000000D+01
0.224343343326D-02 0.000000000000D+00 0.000000000000D+00 0.992726406427D-08 0.000000000000D+00  7 -2 2 23 -11 11 23 21 2 0.70851959D-01 0.63357613D-01 0.13830497D+06 0.13830497D+06 0.13830497D+06 0.11103447D+01  1  2 12  1  7  1       -2 0.483492631133D-01 0.100000000000D+01
-.224383243366D-02 0.000000000000D+00 0.000000000000D+00 0.992726406427D-08 0.000000000000D+00  7 -2 2 23 -11 11 23 21 2 0.63956520D-01 0.63357613D-01 0.13482009D+06 0.13482009D+06 0.13482009D+06 0.11112272D+01  1  2  4  1  7  1       -2 -.602375004303D-01 0.100000000000D+01
-.242827444903D-02 0.000000000000D+00 -.544436882243D-04 0.992726406427D-08 0.000000000000D+00  7 -2 2 23 -11 11 23 21 2 0.70855598D-01 0.63357613D-01 0.13482009D+06 0.13482009D+06 0.13482009D+06 0.11112272D+01  1  2  5  1  7  1       -2 -.524360333465D-01 0.100000000000D+01
0.242141974150D-02 0.000000000000D+00 0.541592645046D-04 0.992726406427D-08 0.000000000000D+00  7 -2 2 23 -11 11 23 21 2 0.63956520D-01 0.63357613D-01 0.13482009D+06 0.13482009D+06 0.13482009D+06 0.11112272D+01  1  2  6  1  7  1       -2 0.650049756535D-01 0.100000000000D+01
0.574051115589D-07 0.000000000000D+00 0.000000000000D+00 0.992726406427D-08 0.746757876974D-09  7 -2 2 23 -11 11 23 21 2 0.70814162D-01 0.63437474D-01 0.13830497D+06 0.13830497D+06 0.13830497D+06 0.11103447D+01  1  2 11  1  7  1       -2 0.123687363029D-05 0.100000000000D+01
0.372039608455D-04 0.000000000000D+00 0.000000000000D+00 0.992726406427D-08 0.000000000000D+00  7 21 2 23 -11 11 23 2 2 0.70851959D-01 0.63357613D-01 0.13830497D+06 0.13830497D+06 0.13830497D+06 0.11103447D+01  1  2 12  3  7  1       -2 0.803709868569D-02 0.100000000000D+01
-.400959491292D-04 0.000000000000D+00 -.902871452063D-06 0.992726406427D-08 0.000000000000D+00  7 21 2 23 -11 11 23 2 2 0.70855598D-01 0.63357613D-01 0.13482009D+06 0.13482009D+06 0.13482009D+06 0.11112272D+01  1  2  5  3  7  1       -2 -.868589915939D-02 0.100000000000D+01
0.955114706953D-09 0.000000000000D+00 0.000000000000D+00 0.992726406427D-08 0.124076466522D-10  7 21 2 23 -11 11 23 2 2 0.70814162D-01 0.63437474D-01 0.13830497D+06 0.13830497D+06 0.13830497D+06 0.11103447D+01  1  2 11  3  7  1       -2 0.206302288794D-06 0.100000000000D+01
  </mgrwgt>
  </event>
  <event>
  8     66 0.53686478E-06 0.15754538E+03 0.75467711E-02 0.10338893E+00
       -2 -1    0    0    0  501 0.00000000E+00 0.00000000E+00 0.45492507E+02 0.45493633E+02 0.32000000E+00 0.0000E+00 0.9000E+01
        2 -1    0    0  501    0 0.00000000E+00 0.00000000E+00 -.20574067E+04 0.20574067E+04 0.32000000E+00 0.0000E+00 0.9000E+01
       25  2    1    2    0    0 0.98363565E+02 0.63804738E+02 -.18697384E+04 0.18974052E+04 0.30079629E+03 0.0000E+00 0.0000E+00
       23  2    1    2    0    0 -.98363565E+02 -.63804738E+02 -.14217581E+03 0.20549517E+03 0.90927814E+02 0.0000E+00 0.0000E+00
       23  1    3    3    0    0 -.76422641E+02 0.20640700E+02 -.73793540E+03 0.74775020E+03 0.91188000E+02 0.0000E+00 0.9000E+01
      -11  1    4    4    0    0 -.41983883E+02 0.58837721E+01 -.65112708E+01 0.42891279E+02 0.51099893E-03 0.0000E+00 0.9000E+01
       11  1    4    4    0    0 -.56379682E+02 -.69688510E+02 -.13566454E+03 0.16260389E+03 0.51099893E-03 0.0000E+00 0.9000E+01
       23  1    3    3    0    0 0.17478621E+03 0.43164038E+02 -.11318030E+04 0.11496550E+04 0.91188000E+02 0.0000E+00 0.9000E+01
#aMCatNLO 1  0  0  1  2 0.42835869D+02 0.00000000D+00  -5  7  0 0.00000000D+00 0.00000000D+00 0.00000000D+00 0.00000000D+00 0.00000000D+00
  <mgrwgt>
 0.2476410571D-03    9    2    0
 0.305937574719864D+03 0.000000000000000D+00 0.000000000000000D+00 0.305937574719864D+03
 0.305937574719864D+03 0.000000000000000D+00 0.000000000000000D+00 -.305937574719864D+03
 0.143463029233543D+03 -.764226414808698D+02 0.206406999428614D+02 -.774592201601558D+02
 0.125999510389251D+03 -.419838828806150D+02 0.588377212626421D+01 0.118653324530600D+03
 0.112758886883185D+03 -.563796822932394D+02 -.696885100651478D+02 0.684062099560270D+02
 0.229653722933749D+03 0.174786206654724D+03 0.431640379960222D+02 -.109600314326471D+03
 0.000000000000000D+00 -.000000000000000D+00 -.000000000000000D+00 0.000000000000000D+00
 0.336216505016809D+03 0.000000000000000D+00 0.000000000000000D+00 0.336216505016809D+03
 0.322220594943076D+03 0.000000000000000D+00 0.000000000000000D+00 -.322220594943076D+03
 0.139611422126172D+03 -.674950531747368D+02 0.249115405628050D+02 -.774592201601558D+02
 0.123834244374373D+03 -.341046380501773D+02 0.965309903991647D+01 0.118653324530600D+03
 0.107368914620209D+03 -.494373023747521D+02 -.663673669816806D+02 0.684062099560270D+02
 0.242558152323253D+03 0.189678801854722D+03 0.502884593218613D+02 -.109600314326471D+03
 0.450643665158774D+02 -.386418082550554D+02 -.184857319429022D+02 0.139959100737334D+02
0.243501489908D-05 0.000000000000D+00 0.000000000000D+00 0.155891360761D-06 0.000000000000D+00  7 -2 2 23 -11 11 23 21 0 0.69989357D-02 0.31652420D+00 0.51665572D+05 0.51665572D+05 0.51665572D+05 0.11460457D+01  1  2  2  1  7  1       -2 0.213991849651D-03 0.100000000000D+01
-.120759556172D-06 0.000000000000D+00 -.935109836661D-08 0.155891360761D-06 0.000000000000D+00  7 -2 2 23 -11 11 23 21 2 0.69989357D-02 0.31652420D+00 0.51665572D+05 0.51665572D+05 0.51665572D+05 0.11460457D+01  1  2  3  1  7  1       -2 -.139386592626D-04 0.100000000000D+01
0.149135780492D-06 0.000000000000D+00 0.000000000000D+00 0.155891360761D-06 0.000000000000D+00  7 -2 2 23 -11 11 23 21 2 0.69989357D-02 0.31652420D+00 0.51665572D+05 0.51665572D+05 0.51665572D+05 0.11460457D+01  1  2 15  1  7  1       -2 0.172139820154D-04 0.100000000000D+01
0.359429142151D-05 0.000000000000D+00 0.000000000000D+00 0.155891360761D-06 0.000000000000D+00  7 -2 2 23 -11 11 23 21 2 0.78633900D-02 0.31652420D+00 0.60903834D+05 0.60903834D+05 0.60903834D+05 0.11398349D+01  1  2 12  1  7  1       -2 0.343566877618D-03 0.100000000000D+01
-.337404451416D-05 0.000000000000D+00 0.000000000000D+00 0.155891360761D-06 0.000000000000D+00  7 -2 2 23 -11 11 23 21 2 0.69989357D-02 0.31652420D+00 0.51665572D+05 0.51665572D+05 0.51665572D+05 0.11460457D+01  1  2  4  1  7  1       -2 -.389448738555D-03 0.100000000000D+01
-.843722231753D-05 0.000000000000D+00 -.219791306584D-05 0.155891360761D-06 0.000000000000D+00  7 -2 2 23 -11 11 23 21 2 0.81721007D-02 0.31652420D+00 0.51665572D+05 0.51665572D+05 0.51665572D+05 0.11460457D+01  1  2  5  1  7  1       -2 -.771658691335D-03 0.100000000000D+01
0.869929207114D-05 0.000000000000D+00 0.217178309853D-05 0.155891360761D-06 0.000000000000D+00  7 -2 2 23 -11 11 23 21 2 0.69989357D-02 0.31652420D+00 0.51665572D+05 0.51665572D+05 0.51665572D+05 0.11460457D+01  1  2  6  1  7  1       -2 0.100411488622D-02 0.100000000000D+01
0.664975561452D-07 0.000000000000D+00 0.000000000000D+00 0.155891360761D-06 0.000000000000D+00  7 21 2 23 -11 11 23 2 2 0.78633900D-02 0.31652420D+00 0.60903834D+05 0.60903834D+05 0.60903834D+05 0.11398349D+01  1  2 12  3  7  1       -2 0.975090864018D-04 0.100000000000D+01
-.181417513475D-06 0.000000000000D+00 -.514725055470D-07 0.155891360761D-06 0.000000000000D+00  7 21 2 23 -11 11 23 2 2 0.81721007D-02 0.31652420D+00 0.51665572D+05 0.51665572D+05 0.51665572D+05 0.11460457D+01  1  2  5  3  7  1       -2 -.253709535653D-03 0.100000000000D+01
  </mgrwgt>
  </event>
  <event>
  8     66 0.53686478E-06 0.19752011E+03 0.75467711E-02 0.92875359E-01
       -2 -1    0    0    0  501 0.00000000E+00 0.00000000E+00 0.39742819E+03 0.39742832E+03 0.32000000E+00 0.0000E+00 0.9000E+01
        2 -1    0    0  501    0 0.00000000E+00 0.00000000E+00 -.78772413E+03 0.78772419E+03 0.32000000E+00 0.0000E+00 0.9000E+01
       25  2    1    2    0    0 -.21610552E+03 -.35804602E+03 -.52727694E+03 0.73678615E+03 0.29989050E+03 0.0000E+00 0.0000E+00
       23  2    1    2    0    0 0.21610552E+03 0.35804602E+03 0.13698100E+03 0.44836636E+03 0.85848983E+02 0.0000E+00 0.0000E+00
       23  1    3    3    0    0 -.23532586E+03 -.32838674E+03 -.39538071E+03 0.57258822E+03 0.91188000E+02 0.0000E+00 0.9000E+01
      -13  1    4    4    0    0 0.16025517E+02 0.16238796E+02 -.11297392E+02 0.25458946E+02 0.10565837E+00 0.0000E+00 0.9000E+01
       13  1    4    4    0    0 0.20008001E+03 0.34180722E+03 0.14827839E+03 0.42290741E+03 0.10565837E+00 0.0000E+00 0.9000E+01
       23  1    3    3    0    0 0.19220336E+02 -.29659282E+02 -.13189623E+03 0.16419793E+03 0.91188000E+02 0.0000E+00 0.9000E+01
#aMCatNLO 1  0  0  1  2 0.21346819D+03 0.00000000D+00  -5  7  0 0.00000000D+00 0.00000000D+00 0.00000000D+00 0.00000000D+00 0.00000000D+00
  <mgrwgt>
 0.4236399166D-03    9    2    0
 0.559521123354204D+03 0.000000000000000D+00 0.000000000000000D+00 0.559521123354204D+03
 0.559521123354204D+03 0.000000000000000D+00 0.000000000000000D+00 -.559521123354204D+03
 0.468515716164187D+03 -.235325860233043D+03 -.328386738916158D+03 -.219033363117199D+03
 0.230220080688234D+02 0.160252386540973D+02 0.162383026669062D+02 -.308579132446473D+01
 0.499608523071966D+03 0.200080285328041D+03 0.341807717956745D+03 0.304539061032247D+03
 0.127895999403433D+03 0.192203362509045D+02 -.296592817074939D+02 -.824199065905836D+02
 0.000000000000000D+00 0.000000000000000D+00 -.000000000000000D+00 0.000000000000000D+00
 0.728612732784715D+03 0.000000000000000D+00 0.000000000000000D+00 0.728612732784715D+03
 0.641258256706325D+03 0.000000000000000D+00 0.000000000000000D+00 -.641258256706325D+03
 0.448800694500971D+03 -.282475654544217D+03 -.255614362804478D+03 -.219033363117199D+03
 0.243745614700454D+02 0.135890688888660D+02 0.199983585699560D+02 -.308579132446473D+01
 0.542585329230931D+03 0.146511827163403D+03 0.424486848210255D+03 0.304539061032247D+03
 0.123460296625789D+03 0.630069639838855D+01 -.971873044294863D+01 -.824199065905836D+02
 0.230650107663303D+03 0.116074062093559D+03 -.179152113532785D+03 0.873544760783893D+02
0.306261807742D-04 0.000000000000D+00 0.000000000000D+00 0.126645168531D-06 0.000000000000D+00  7 -2 2 23 -13 13 23 21 0 0.61142813D-01 0.12118834D+00 0.21661419D+06 0.21661419D+06 0.21661419D+06 0.10951735D+01  1  2  2  1  7  1       -2 0.340552204634D-03 0.100000000000D+01
-.163130566773D-05 0.000000000000D+00 -.117612598231D-06 0.126645168531D-06 0.000000000000D+00  7 -2 2 23 -13 13 23 21 2 0.61142813D-01 0.12118834D+00 0.21661419D+06 0.21661419D+06 0.21661419D+06 0.10951735D+01  1  2  3  1  7  1       -2 -.217566522296D-04 0.100000000000D+01
0.184717897012D-05 0.000000000000D+00 0.000000000000D+00 0.126645168531D-06 0.000000000000D+00  7 -2 2 23 -13 13 23 21 2 0.61142813D-01 0.12118834D+00 0.21661419D+06 0.21661419D+06 0.21661419D+06 0.10951735D+01  1  2 15  1  7  1       -2 0.246357450071D-04 0.100000000000D+01
0.142349165445D-04 0.000000000000D+00 0.000000000000D+00 0.126645168531D-06 0.000000000000D+00  7 -2 2 23 -13 13 23 21 2 0.83013202D-01 0.12118834D+00 0.34242954D+06 0.34242954D+06 0.34242954D+06 0.10803269D+01  1  2 12  1  7  1       -2 0.935727357024D-04 0.100000000000D+01
-.194069522999D-04 0.000000000000D+00 0.000000000000D+00 0.126645168531D-06 0.000000000000D+00  7 -2 2 23 -13 13 23 21 2 0.61142813D-01 0.12118834D+00 0.21661419D+06 0.21661419D+06 0.21661419D+06 0.10951735D+01  1  2  4  1  7  1       -2 -.258829672684D-03 0.100000000000D+01
-.292946181115D-04 0.000000000000D+00 -.127184396557D-04 0.126645168531D-06 0.000000000000D+00  7 -2 2 23 -13 13 23 21 2 0.88890331D-01 0.12118834D+00 0.21661419D+06 0.21661419D+06 0.21661419D+06 0.10951735D+01  1  2  5  1  7  1       -2 -.171928539253D-03 0.100000000000D+01
0.325868728760D-04 0.000000000000D+00 0.118771770806D-04 0.126645168531D-06 0.000000000000D+00  7 -2 2 23 -13 13 23 21 2 0.61142813D-01 0.12118834D+00 0.21661419D+06 0.21661419D+06 0.21661419D+06 0.10951735D+01  1  2  6  1  7  1       -2 0.434609696048D-03 0.100000000000D+01
0.557899281066D-06 0.000000000000D+00 0.000000000000D+00 0.126645168531D-06 0.000000000000D+00  7 21 2 23 -13 13 23 2 2 0.83013202D-01 0.12118834D+00 0.34242954D+06 0.34242954D+06 0.34242954D+06 0.10803269D+01  1  2 12  3  7  1       -2 0.347685673912D-04 0.100000000000D+01
-.932329766820D-06 0.000000000000D+00 -.576638412366D-06 0.126645168531D-06 0.000000000000D+00  7 21 2 23 -13 13 23 2 2 0.88890331D-01 0.12118834D+00 0.21661419D+06 0.21661419D+06 0.21661419D+06 0.10951735D+01  1  2  5  3  7  1       -2 -.519841679934D-04 0.100000000000D+01
  </mgrwgt>
  </event>
  <event>
  8     66 0.53686478E-06 0.41490118E+03 0.75467711E-02 0.90465759E-01
       -2 -1    0    0    0  501 0.00000000E+00 0.00000000E+00 0.90369081E+03 0.90369087E+03 0.32000000E+00 0.0000E+00 0.9000E+01
        2 -1    0    0  501    0 0.00000000E+00 0.00000000E+00 -.28385059E+03 0.28385077E+03 0.32000000E+00 0.0000E+00 0.9000E+01
       25  2    1    2    0    0 0.34674400E+03 -.13245141E+03 0.64741665E+03 0.80431187E+03 0.29999081E+03 0.0000E+00 0.0000E+00
       23  2    1    2    0    0 -.34674400E+03 0.13245141E+03 -.27576428E+02 0.38322977E+03 0.91267859E+02 0.0000E+00 0.0000E+00
       23  1    3    3    0    0 0.41002831E+02 0.12242526E+02 0.51704572E+02 0.11322423E+03 0.91188000E+02 0.0000E+00 0.9000E+01
      -11  1    4    4    0    0 -.33997150E+03 0.14081826E+03 -.35749846E+02 0.36971402E+03 0.51099893E-03 0.0000E+00 0.9000E+01
       11  1    4    4    0    0 -.67725028E+01 -.83668497E+01 0.81734179E+01 0.13515759E+02 0.51099893E-03 0.0000E+00 0.9000E+01
       23  1    3    3    0    0 0.30574117E+03 -.14469394E+03 0.59571208E+03 0.69108764E+03 0.91188000E+02 0.0000E+00 0.9000E+01
#aMCatNLO 1  0  0  2  2 0.50522099D+03 0.00000000D+00  -5  7  0 0.00000000D+00 0.00000000D+00 0.00000000D+00 0.00000000D+00 0.00000000D+00
  <mgrwgt>
 0.2217798514D-03    3    2    0
 0.506471434295121D+03 0.000000000000000D+00 0.000000000000000D+00 0.506471434295121D+03
 0.506471434295121D+03 0.000000000000000D+00 0.000000000000000D+00 -.506471434295121D+03
 0.101101370193391D+03 0.410028309650006D+02 0.122425264719859D+02 -.866741653663107D+01
 0.455316875557895D+03 -.339971498101854D+03 0.140818258804807D+03 -.268147451290082D+03
 0.108439609908632D+02 -.677250282830595D+01 -.836684972581364D+01 0.131168634879026D+01
 0.445680661848092D+03 0.305741169965160D+03 -.144693935550979D+03 0.275503181477923D+03
 0.000000000000000D+00 -.000000000000000D+00 0.000000000000000D+00 0.000000000000000D+00
 0.819709411534703D+03 0.000000000000000D+00 0.000000000000000D+00 0.819709411534703D+03
 0.817462466248181D+03 0.000000000000000D+00 0.000000000000000D+00 -.817462466248181D+03
 0.111351119067619D+03 0.516207824899155D+02 -.366604838937026D+02 -.866741653663107D+01
 0.404194179155539D+03 -.297014850496452D+03 -.570268131182398D+02 -.268147451290082D+03
 0.154792971810829D+02 -.545691890542633D+01 -.144260235755484D+02 0.131168634879026D+01
 0.600921296766578D+03 0.358048247661005D+03 -.385604204990105D+03 0.275503181477923D+03
 0.505225985612065D+03 -.107197260749042D+03 0.493717525577596D+03 0.224694528652209D+01
0.422595823702D-04 0.000000000000D+00 0.000000000000D+00 0.220329070762D-05 0.000000000000D+00  7 -2 2 23 -11 11 23 21 0 0.13902937D+00 0.43669340D-01 0.17214299D+06 0.17214299D+06 0.17214299D+06 0.11028637D+01  1  2  2  2  7  2        2 0.219261620145D-03 0.100000000000D+01
-.223422618158D-05 0.000000000000D+00 -.162287923505D-06 0.220329070762D-05 0.000000000000D+00  7 -2 2 23 -11 11 23 21 2 0.13902937D+00 0.43669340D-01 0.17214299D+06 0.17214299D+06 0.17214299D+06 0.11028637D+01  1  2  3  2  7  2        2 -.140996463723D-04 0.100000000000D+01
0.263326442594D-05 0.000000000000D+00 0.000000000000D+00 0.220329070762D-05 0.000000000000D+00  7 -2 2 23 -11 11 23 21 2 0.13902937D+00 0.43669340D-01 0.17214299D+06 0.17214299D+06 0.17214299D+06 0.11028637D+01  1  2 15  2  7  2        2 0.166178775974D-04 0.100000000000D+01
  </mgrwgt>
  </event>
  <event>
  8     66 0.53686478E-06 0.20282457E+03 0.75467711E-02 0.94261411E-01
       -2 -1    0    0    0  501 0.00000000E+00 0.00000000E+00 0.18163760E+03 0.18163788E+03 0.32000000E+00 0.0000E+00 0.9000E+01
        2 -1    0    0  501    0 0.00000000E+00 0.00000000E+00 -.96602956E+03 0.96602962E+03 0.32000000E+00 0.0000E+00 0.9000E+01
       25  2    1    2    0    0 -.20772232E+03 0.26605954E+03 -.60711508E+03 0.75657082E+03 0.29979068E+03 0.0000E+00 0.0000E+00
       23  2    1    2    0    0 0.20772232E+03 -.26605954E+03 -.17727689E+03 0.39109667E+03 0.87139362E+02 0.0000E+00 0.0000E+00
       23  1    3    3    0    0 -.24530485E+03 0.16554067E+03 -.39395212E+03 0.50109052E+03 0.91188000E+02 0.0000E+00 0.9000E+01
      -13  1    4    4    0    0 0.69066180E+01 -.78270856E+01 0.97473252E+01 0.14282372E+02 0.10565837E+00 0.0000E+00 0.9000E+01
       13  1    4    4    0    0 0.20081571E+03 -.25823245E+03 -.18702422E+03 0.37681430E+03 0.10565837E+00 0.0000E+00 0.9000E+01
       23  1    3    3    0    0 0.37582524E+02 0.10051887E+03 -.21316295E+03 0.25548030E+03 0.91188000E+02 0.0000E+00 0.9000E+01
#aMCatNLO 1  0  0  1  2 0.21321836D+03 0.00000000D+00  -5  7  0 0.00000000D+00 0.00000000D+00 0.00000000D+00 0.00000000D+00 0.00000000D+00
  <mgrwgt>
 0.5452954214D-03    8    2    0
 0.418888385245877D+03 0.000000000000000D+00 0.000000000000000D+00 0.418888385245877D+03
 0.418888385245877D+03 0.000000000000000D+00 0.000000000000000D+00 -.418888385245877D+03
 0.317593452893574D+03 -.245304847643431D+03 0.165540665255436D+03 -.705136146164970D+02
 0.286911189864859D+02 0.690633295799224D+01 -.782671754060809D+01 0.267249951601414D+02
 0.341090400591046D+03 0.200815990792089D+03 -.258232821659731D+03 0.965992186055628D+02
 0.150401798020648D+03 0.375825238933494D+02 0.100518873944904D+03 -.528105991492073D+02
 0.000000000000000D+00 -.000000000000000D+00 0.000000000000000D+00 0.000000000000000D+00
 0.750911818104939D+03 0.000000000000000D+00 0.000000000000000D+00 0.750911818104939D+03
 0.467907302464833D+03 0.000000000000000D+00 0.000000000000000D+00 -.467907302464833D+03
 0.252456572913828D+03 -.184622832122214D+03 0.127911335996009D+03 -.705136146164970D+02
 0.321493037290396D+02 0.133828162636667D+02 -.118428287501508D+02 0.267249951601414D+02
 0.430034687547164D+03 0.282902513814215D+03 -.309135231146790D+03 0.965992186055628D+02
 0.149843088226029D+03 0.695436922514798D+02 0.806995367436941D+02 -.528105991492073D+02
 0.354335468153711D+03 -.181206190207148D+03 0.112367187157238D+03 0.283004515640106D+03
0.702721295240D-05 0.000000000000D+00 0.000000000000D+00 0.830019705599D-07 0.000000000000D+00  7 -2 2 23 -13 13 23 21 0 0.27944271D-01 0.14861996D+00 0.15525797D+06 0.15525797D+06 0.15525797D+06 0.11063731D+01  1  2  2  1  7  1       -2 0.264941797404D-03 0.100000000000D+01
-.388623867086D-06 0.000000000000D+00 -.269863480449D-07 0.830019705599D-07 0.000000000000D+00  7 -2 2 23 -13 13 23 21 2 0.27944271D-01 0.14861996D+00 0.15525797D+06 0.15525797D+06 0.15525797D+06 0.11063731D+01  1  2  3  1  7  1       -2 -.179349438897D-04 0.100000000000D+01
0.446419370455D-06 0.000000000000D+00 0.000000000000D+00 0.830019705599D-07 0.000000000000D+00  7 -2 2 23 -13 13 23 21 2 0.27944271D-01 0.14861996D+00 0.15525797D+06 0.15525797D+06 0.15525797D+06 0.11063731D+01  1  2 15  1  7  1       -2 0.206021992947D-04 0.100000000000D+01
0.374768652527D-05 0.000000000000D+00 0.000000000000D+00 0.830019705599D-07 0.000000000000D+00  7 -2 2 23 -13 13 23 21 2 0.50592479D-01 0.14861996D+00 0.26665391D+06 0.26665391D+06 0.26665391D+06 0.10883583D+01  1  2 12  1  7  1       -2 0.549369823096D-04 0.100000000000D+01
-.675909505320D-05 0.000000000000D+00 -.222322445552D-05 0.830019705599D-07 0.000000000000D+00  7 -2 2 23 -13 13 23 21 2 0.54652193D-01 0.14861996D+00 0.15525797D+06 0.15525797D+06 0.15525797D+06 0.11063731D+01  1  2  5  1  7  1       -2 -.892202050858D-04 0.100000000000D+01
0.702962978421D-05 0.000000000000D+00 0.180232141518D-05 0.830019705599D-07 0.000000000000D+00  7 -2 2 23 -13 13 23 21 2 0.27944271D-01 0.14861996D+00 0.15525797D+06 0.15525797D+06 0.15525797D+06 0.11063731D+01  1  2  6  1  7  1       -2 0.324416553956D-03 0.100000000000D+01
0.243673581179D-06 0.000000000000D+00 0.000000000000D+00 0.830019705599D-07 0.000000000000D+00  7 21 2 23 -13 13 23 2 2 0.50592479D-01 0.14861996D+00 0.26665391D+06 0.26665391D+06 0.26665391D+06 0.10883583D+01  1  2 12  3  7  1       -2 0.373156184813D-04 0.100000000000D+01
-.360402694443D-06 0.000000000000D+00 -.161574577472D-06 0.830019705599D-07 0.000000000000D+00  7 21 2 23 -13 13 23 2 2 0.54652193D-01 0.14861996D+00 0.15525797D+06 0.15525797D+06 0.15525797D+06 0.11063731D+01  1  2  5  3  7  1       -2 -.497625811191D-04 0.100000000000D+01
  </mgrwgt>
  </event>
  <event>
  8     66 0.53686478E-06 0.10032546E+03 0.75467711E-02 0.10433330E+00
       -2 -1    0    0    0  501 0.00000000E+00 0.00000000E+00 0.37692107E+02 0.37693465E+02 0.32000000E+00 0.0000E+00 0.9000E+01
        2 -1    0    0  501    0 0.00000000E+00 0.00000000E+00 -.19935006E+04 0.19935006E+04 0.32000000E+00 0.0000E+00 0.9000E+01
       25  2    1    2    0    0 0.12472844E+03 -.65768391E+02 -.16441232E+04 0.16771586E+04 0.29972858E+03 0.0000E+00 0.0000E+00
       23  2    1    2    0    0 -.12472844E+03 0.65768391E+02 -.31168527E+03 0.35403547E+03 0.91163245E+02 0.0000E+00 0.0000E+00
       23  1    3    3    0    0 -.24616289E+02 -.53477749E+02 -.11026842E+04 0.11080133E+04 0.91188000E+02 0.0000E+00 0.9000E+01
      -13  1    4    4    0    0 -.89428811E+02 0.86886057E+02 -.20828577E+03 0.24275435E+03 0.10565837E+00 0.0000E+00 0.9000E+01
       13  1    4    4    0    0 -.35299632E+02 -.21117666E+02 -.10339950E+03 0.11128112E+03 0.10565837E+00 0.0000E+00 0.9000E+01
       23  1    3    3    0    0 0.14934473E+03 -.12290643E+02 -.54143906E+03 0.56914533E+03 0.91188000E+02 0.0000E+00 0.9000E+01
#aMCatNLO 1  0  0  2  1 0.11180916D+02 0.00000000D+00  -5  7  0 0.00000000D+00 0.00000000D+00 0.00000000D+00 0.00000000D+00 0.00000000D+00
  <mgrwgt>
 0.4726103171D-03    9    2    0
 0.274117936748683D+03 0.000000000000000D+00 0.000000000000000D+00 0.274117936748683D+03
 0.274117936748683D+03 0.000000000000000D+00 0.000000000000000D+00 -.274117936748683D+03
 0.171369653879205D+03 -.246162883665826D+02 -.534777490330452D+02 -.132614009938959D+03
 0.156345473426824D+03 -.894288852365228D+02 0.868862004746654D+02 0.943248096392823D+02
 0.434189904636783D+02 -.352995586070388D+02 -.211178085858556D+02 0.138992106093975D+02
 0.177101755727659D+03 0.149344732210144D+03 -.122906428557647D+02 0.243899896902792D+02
 0.000000000000000D+00 -.000000000000000D+00 -.000000000000000D+00 -.000000000000000D+00
 0.276482615117274D+03 0.000000000000000D+00 0.000000000000000D+00 0.276482615117274D+03
 0.287718086805332D+03 0.000000000000000D+00 0.000000000000000D+00 -.287718086805332D+03
 0.170233071252185D+03 -.238787618764914D+02 -.500737087013422D+02 -.132614009938959D+03
 0.157723593413063D+03 -.887508044149381D+02 0.900158703859698D+02 0.943248096392823D+02
 0.428546606494755D+02 -.351132922267915D+02 -.202580994373425D+02 0.138992106093975D+02
 0.177538550099121D+03 0.150110407073835D+03 -.875668420886708D+01 0.243899896902792D+02
 0.158508265087613D+02 -.236754855561389D+01 -.109273780384181D+02 -.112354716880582D+02
0.131203904120D-05 0.000000000000D+00 0.000000000000D+00 0.281140045700D-06 0.000000000000D+00  7 -2 2 23 -13 13 23 21 0 0.57988921D-02 0.30669251D+00 0.50574542D+05 0.50574542D+05 0.50574542D+05 0.11468592D+01  1  2  2  2  7  2        2 0.165087892455D-03 0.100000000000D+01
-.694181288422D-07 0.000000000000D+00 -.503857538600D-08 0.281140045700D-06 0.000000000000D+00  7 -2 2 23 -13 13 23 21 2 0.57988921D-02 0.30669251D+00 0.50574542D+05 0.50574542D+05 0.50574542D+05 0.11468592D+01  1  2  3  2  7  2        2 -.114884534443D-04 0.100000000000D+01
0.867031848161D-07 0.000000000000D+00 0.000000000000D+00 0.281140045700D-06 0.000000000000D+00  7 -2 2 23 -13 13 23 21 2 0.57988921D-02 0.30669251D+00 0.50574542D+05 0.50574542D+05 0.50574542D+05 0.11468592D+01  1  2 15  2  7  2        2 0.143490687353D-04 0.100000000000D+01
0.556997543617D-05 0.000000000000D+00 0.000000000000D+00 0.281140045700D-06 0.000000000000D+00  7 -2 2 23 -13 13 23 21 2 0.57988921D-02 0.32319124D+00 0.53066114D+05 0.53066114D+05 0.53066114D+05 0.11450288D+01  1  2 12  2  7  2        2 0.805004374173D-03 0.100000000000D+01
-.566041381278D-05 0.000000000000D+00 0.000000000000D+00 0.281140045700D-06 0.000000000000D+00  7 -2 2 23 -13 13 23 21 2 0.57988921D-02 0.30669251D+00 0.50574542D+05 0.50574542D+05 0.50574542D+05 0.11468592D+01  1  2  4  2  7  2        2 -.936778355285D-03 0.100000000000D+01
-.209367245695D-04 0.000000000000D+00 -.256710426969D-05 0.281140045700D-06 0.000000000000D+00  7 -2 2 23 -13 13 23 21 2 0.57988921D-02 0.32294873D+00 0.50574542D+05 0.50574542D+05 0.50574542D+05 0.11468592D+01  1  2  5  2  7  2        2 -.304342458982D-02 0.100000000000D+01
0.210446556532D-04 0.000000000000D+00 0.256368418317D-05 0.281140045700D-06 0.000000000000D+00  7 -2 2 23 -13 13 23 21 2 0.57988921D-02 0.30669251D+00 0.50574542D+05 0.50574542D+05 0.50574542D+05 0.11468592D+01  1  2  6  2  7  2        2 0.348281566727D-02 0.100000000000D+01
0.834629712188D-07 0.000000000000D+00 0.000000000000D+00 0.281140045700D-06 0.000000000000D+00  7 -2 21 23 -13 13 23 -2 2 0.57988921D-02 0.32319124D+00 0.53066114D+05 0.53066114D+05 0.53066114D+05 0.11450288D+01  1  2 12  4  7  2        2 0.237205765191D-05 0.100000000000D+01
-.185528656021D-06 0.000000000000D+00 -.230430469511D-07 0.281140045700D-06 0.000000000000D+00  7 -2 21 23 -13 13 23 -2 2 0.57988921D-02 0.32294873D+00 0.50574542D+05 0.50574542D+05 0.50574542D+05 0.11468592D+01  1  2  5  4  7  2        2 -.532734466328D-05 0.100000000000D+01
  </mgrwgt>
  </event>
  <event>
  8     66 0.53686478E-06 0.11005698E+03 0.75467711E-02 0.10329233E+00
       -2 -1    0    0    0  501 0.00000000E+00 0.00000000E+00 0.38420682E+03 0.38420696E+03 0.32000000E+00 0.0000E+00 0.9000E+01
        2 -1    0    0  501    0 0.00000000E+00 0.00000000E+00 -.22769190E+03 0.22769213E+03 0.32000000E+00 0.0000E+00 0.9000E+01
       25  2    1    2    0    0 -.29741760E+02 -.14391502E+03 0.24765353E+03 0.41562318E+03 0.29969026E+03 0.0000E+00 0.0000E+00
       23  2    1    2    0    0 0.29741760E+02 0.14391502E+03 -.91138610E+02 0.19627590E+03 0.92854069E+02 0.0000E+00 0.0000E+00
       23  1    3    3    0    0 -.84980877E+01 -.19429475E+03 0.21615803E+03 0.30473302E+03 0.91188000E+02 0.0000E+00 0.9000E+01
      -13  1    4    4    0    0 -.57255590E+01 -.95850972E+01 0.44285824E+01 0.12011645E+02 0.10565837E+00 0.0000E+00 0.9000E+01
       13  1    4    4    0    0 0.35467319E+02 0.15350012E+03 -.95567192E+02 0.18426426E+03 0.10565837E+00 0.0000E+00 0.9000E+01
       23  1    3    3    0    0 -.21243672E+02 0.50379728E+02 0.31495500E+02 0.11089016E+03 0.91188000E+02 0.0000E+00 0.9000E+01
#aMCatNLO 1  0  0  2  1 0.71018574D+01 0.00000000D+00  -5  7  0 0.00000000D+00 0.00000000D+00 0.00000000D+00 0.00000000D+00 0.00000000D+00
  <mgrwgt>
 0.3061285327D-03   11    2    0
 0.295771690749101D+03 0.000000000000000D+00 0.000000000000000D+00 0.295771690749101D+03
 0.295771690749101D+03 0.000000000000000D+00 0.000000000000000D+00 -.295771690749101D+03
 0.258026554825279D+03 -.849808803086964D+01 -.194294752697810D+03 0.142967769881603D+03
 0.112529652016211D+02 -.572561126837687D+01 -.958530587866422D+01 0.140303693635507D+01
 0.215891148724761D+03 0.354673717373809D+02 0.153500331442913D+03 -.147609965404289D+03
 0.106372712746541D+03 -.212436724381344D+02 0.503797271335611D+02 0.323915858633038D+01
 0.000000000000000D+00 -.000000000000000D+00 0.000000000000000D+00 -.000000000000000D+00
 0.297062158000494D+03 0.000000000000000D+00 0.000000000000000D+00 0.297062158000494D+03
 0.305728056842587D+03 0.000000000000000D+00 0.000000000000000D+00 -.305728056842587D+03
 0.258167997338208D+03 -.541394734811610D+01 -.194592829916247D+03 0.142967769881603D+03
 0.111964258227813D+02 -.559148145264903D+01 -.959826930883627D+01 0.140303693635507D+01
 0.216153256252864D+03 0.380487351410875D+02 0.153250846836891D+03 -.147609965404289D+03
 0.106068331722556D+03 -.199743873106806D+02 0.502570527749267D+02 0.323915858633038D+01
 0.112042037066715D+02 -.706891902964179D+01 0.683199613265550D+00 -.866589884209333D+01
0.309909255402D-05 0.000000000000D+00 0.000000000000D+00 0.204782109987D-06 0.000000000000D+00  7 -2 2 23 -13 13 23 21 0 0.59108770D-01 0.35029551D-01 0.59983476D+05 0.59983476D+05 0.59983476D+05 0.11404054D+01  1  2  2  2  7  2        2 0.153042376903D-03 0.100000000000D+01
-.164719768094D-06 0.000000000000D+00 -.119013314172D-07 0.204782109987D-06 0.000000000000D+00  7 -2 2 23 -13 13 23 21 2 0.59108770D-01 0.35029551D-01 0.59983476D+05 0.59983476D+05 0.59983476D+05 0.11404054D+01  1  2  3  2  7  2        2 -.105789222388D-04 0.100000000000D+01
0.206578287768D-06 0.000000000000D+00 0.000000000000D+00 0.204782109987D-06 0.000000000000D+00  7 -2 2 23 -13 13 23 21 2 0.59108770D-01 0.35029551D-01 0.59983476D+05 0.59983476D+05 0.59983476D+05 0.11404054D+01  1  2 15  2  7  2        2 0.132672336041D-04 0.100000000000D+01
0.131711903225D-04 0.000000000000D+00 0.000000000000D+00 0.204782109987D-06 0.000000000000D+00  7 -2 2 23 -13 13 23 21 2 0.59108770D-01 0.36283638D-01 0.61777030D+05 0.61777030D+05 0.61777030D+05 0.11393023D+01  1  2 12  2  7  2        2 0.811905590686D-03 0.100000000000D+01
-.153929113276D-04 0.000000000000D+00 0.000000000000D+00 0.204782109987D-06 0.000000000000D+00  7 -2 2 23 -13 13 23 21 2 0.59108770D-01 0.35029551D-01 0.59983476D+05 0.59983476D+05 0.59983476D+05 0.11404054D+01  1  2  4  2  7  2        2 -.988590585374D-03 0.100000000000D+01
-.116889785658D-03 0.000000000000D+00 -.118604498265D-04 0.204782109987D-06 0.000000000000D+00  7 -2 2 23 -13 13 23 21 2 0.59108770D-01 0.36329956D-01 0.59983476D+05 0.59983476D+05 0.59983476D+05 0.11404054D+01  1  2  5  2  7  2        2 -.721024107669D-02 0.100000000000D+01
0.117252079239D-03 0.000000000000D+00 0.118525750070D-04 0.204782109987D-06 0.000000000000D+00  7 -2 2 23 -13 13 23 21 2 0.59108770D-01 0.35029551D-01 0.59983476D+05 0.59983476D+05 0.59983476D+05 0.11404054D+01  1  2  6  2  7  2        2 0.753036895911D-02 0.100000000000D+01
0.197332303205D-05 0.000000000000D+00 0.000000000000D+00 0.204782109987D-06 0.281210273408D-07  7 -2 2 23 -13 13 23 21 2 0.59366664D-01 0.36208728D-01 0.61777030D+05 0.61777030D+05 0.61777030D+05 0.11393023D+01  1  2 11  2  7  2        2 0.120843740794D-03 0.100000000000D+01
0.326333980872D-06 0.000000000000D+00 0.000000000000D+00 0.204782109987D-06 0.000000000000D+00  7 -2 21 23 -13 13 23 -2 2 0.59108770D-01 0.36283638D-01 0.61777030D+05 0.61777030D+05 0.61777030D+05 0.11393023D+01  1  2 12  4  7  2        2 0.899583142018D-04 0.100000000000D+01
-.751312881189D-06 0.000000000000D+00 -.768060755873D-07 0.204782109987D-06 0.000000000000D+00  7 -2 21 23 -13 13 23 -2 2 0.59108770D-01 0.36329956D-01 0.59983476D+05 0.59983476D+05 0.59983476D+05 0.11404054D+01  1  2  5  4  7  2        2 -.207211960643D-03 0.100000000000D+01
0.122642524065D-07 0.000000000000D+00 0.000000000000D+00 0.204782109987D-06 0.166820517776D-09  7 -2 21 23 -13 13 23 -2 2 0.59366664D-01 0.36208728D-01 0.61777030D+05 0.61777030D+05 0.61777030D+05 0.11393023D+01  1  2 11  4  7  2        2 0.336486235432D-05 0.100000000000D+01
  </mgrwgt>
  </event>
  <event>
  9     66 0.53686478E-06 0.25559630E+03 0.75467711E-02 0.10258087E+00
       -2 -1    0    0    0  502 0.00000000E+00 0.00000000E+00 0.13732852E+03 0.13732889E+03 0.32000000E+00 0.0000E+00 0.9000E+01
        2 -1    0    0  501    0 0.00000000E+00 0.00000000E+00 -.10923826E+04 0.10923826E+04 0.32000000E+00 0.0000E+00 0.9000E+01
       25  2    1    2    0    0 0.15683596E+03 0.57888163E+00 -.94172005E+03 0.99944062E+03 0.29571448E+03 0.0000E+00 0.0000E+00
       23  2    1    2    0    0 -.16867529E+03 0.20405762E+01 0.21636016E+02 0.19325067E+03 0.91772463E+02 0.0000E+00 0.0000E+00
       23  1    3    3    0    0 0.19515394E+03 -.32641062E+02 -.75196527E+03 0.78289049E+03 0.91188000E+02 0.0000E+00 0.9000E+01
      -13  1    4    4    0    0 -.44743619E+02 -.38832341E+02 -.69727789E+01 0.59653776E+02 0.10565837E+00 0.0000E+00 0.9000E+01
       13  1    4    4    0    0 -.12393167E+03 0.40872917E+02 0.28608795E+02 0.13359689E+03 0.10565837E+00 0.0000E+00 0.9000E+01
       23  1    3    3    0    0 -.38317985E+02 0.33219943E+02 -.18975477E+03 0.21655013E+03 0.91188000E+02 0.0000E+00 0.9000E+01
       21  1    1    2  501  502 0.11839335E+02 -.26194578E+01 -.34970035E+02 0.37020228E+02 0.75000000E+00 0.0000E+00 0.9000E+01
#aMCatNLO 2  0  0  1  1 0.12125651D+02 0.00000000D+00  -5  7  0 0.00000000D+00 0.00000000D+00 0.00000000D+00 0.00000000D+00 0.00000000D+00
  <mgrwgt>
 0.6613845354D-04    2    2    0
 0.379411009449295D+03 0.000000000000000D+00 0.000000000000000D+00 0.379411009449295D+03
 0.379411009449295D+03 0.000000000000000D+00 0.000000000000000D+00 -.379411009449295D+03
 0.321908722924272D+03 0.200151176720171D+03 -.337467017428396D+02 -.232616940762590D+03
 0.847429583566422D+02 -.434171025367226D+02 -.391259155902197D+02 0.613635635175983D+02
 0.242597295715312D+03 -.120131014887634D+03 0.400321020048151D+02 0.206928533459080D+03
 0.109573041902364D+03 -.366030592958141D+02 0.328405153282442D+02 -.356751562140885D+02
 0.000000000000000D+00 0.000000000000000D+00 -.000000000000000D+00 -.000000000000000D+00
 0.382304368660462D+03 0.000000000000000D+00 0.000000000000000D+00 0.382304368660462D+03
 0.392379962352714D+03 0.000000000000000D+00 0.000000000000000D+00 -.392379962352714D+03
 0.318710515861021D+03 0.195153943170492D+03 -.326410617422260D+02 -.232616940762590D+03
 0.852961189363459D+02 -.447435144368961D+02 -.388324464058114D+02 0.613635635175983D+02
 0.244640772781095D+03 -.123931778703575D+03 0.408730225793716D+02 0.206928533459080D+03
 0.110271486493254D+03 -.383179850840171D+02 0.332199433719151D+02 -.356751562140885D+02
 0.157654369414599D+02 0.118393350539966D+02 -.261945780324924D+01 -.100755936922522D+02
-.253681358805D-05 0.000000000000D+00 0.000000000000D+00 0.997636204523D-08 0.000000000000D+00  7 -2 2 23 -13 13 23 21 2 0.20967112D-01 0.16250043D+00 0.65329469D+05 0.65329469D+05 0.65329469D+05 0.11372178D+01  1  2  8  1  7  1       -2 -.179993636019D-03 0.100000000000D+01
0.370272282304D-05 0.000000000000D+00 0.000000000000D+00 0.997636204523D-08 0.466884888735D-09  7 -2 2 23 -13 13 23 21 2 0.21127006D-01 0.16805499D+00 0.68663864D+05 0.68663864D+05 0.68663864D+05 0.11353718D+01  1  2  1  1  7  1       -2 0.246132089564D-03 0.100000000000D+01
  </mgrwgt>
  </event>
  <event>
  8     66 0.53686478E-06 0.13418387E+03 0.75467711E-02 0.10497508E+00
       -2 -1    0    0    0  501 0.00000000E+00 0.00000000E+00 0.38876974E+02 0.38878291E+02 0.32000000E+00 0.0000E+00 0.9000E+01
        2 -1    0    0  501    0 0.00000000E+00 0.00000000E+00 -.21464604E+04 0.21464604E+04 0.32000000E+00 0.0000E+00 0.9000E+01
       25  2    1    2    0    0 -.69560484E+02 -.17375991E+02 -.20027142E+04 0.20274677E+04 0.30760478E+03 0.0000E+00 0.0000E+00
       23  2    1    2    0    0 0.69560484E+02 0.17375991E+02 -.10486921E+03 0.15787095E+03 0.93728868E+02 0.0000E+00 0.0000E+00
       23  1    3    3    0    0 -.75855125E+02 -.94732623E+02 -.16038177E+04 0.16109857E+04 0.91188000E+02 0.0000E+00 0.9000E+01
      -13  1    4    4    0    0 0.31267033E+02 -.17619505E+02 -.99432191E+02 0.10571114E+03 0.10565837E+00 0.0000E+00 0.9000E+01
       13  1    4    4    0    0 0.38293452E+02 0.34995496E+02 -.54370167E+01 0.52159807E+02 0.10565837E+00 0.0000E+00 0.9000E+01
       23  1    3    3    0    0 0.62946403E+01 0.77356633E+02 -.39889643E+03 0.41648204E+03 0.91188000E+02 0.0000E+00 0.9000E+01
#aMCatNLO 1  0  0  2  1 0.74909398D+02 0.00000000D+00  -5  7  0 0.00000000D+00 0.00000000D+00 0.00000000D+00 0.00000000D+00 0.00000000D+00
  <mgrwgt>
 0.2154947944D-03    9    2    0
 0.288876008682968D+03 0.000000000000000D+00 0.000000000000000D+00 0.288876008682968D+03
 0.288876008682968D+03 0.000000000000000D+00 0.000000000000000D+00 -.288876008682968D+03
 0.242958379094023D+03 -.758551271048629D+02 -.947326241076129D+02 -.189697791894334D+03
 0.371316951967867D+02 0.312670175284817D+02 -.176195644013561D+02 0.952299077848729D+01
 0.177460188303141D+03 0.382934705173652D+02 0.349955562697306D+02 0.169708690377641D+03
 0.120201754771985D+03 0.629463905901596D+01 0.773566322392384D+02 0.104661107382052D+02
 0.000000000000000D+00 -.000000000000000D+00 0.000000000000000D+00 -.000000000000000D+00
 0.302582224171323D+03 0.000000000000000D+00 0.000000000000000D+00 0.302582224171323D+03
 0.415570097515584D+03 0.000000000000000D+00 0.000000000000000D+00 -.415570097515584D+03
 0.255623046939051D+03 -.709240872917012D+02 -.126540161113606D+03 -.189697791894334D+03
 0.403210876803175D+02 0.320330363492106D+02 -.225607477847443D+02 0.952299077848729D+01
 0.175222379813893D+03 0.417815502852582D+02 0.124957934406054D+02 0.169708690377641D+03
 0.111421514542474D+03 0.858542548427782D+01 0.625799772627652D+02 0.104661107382052D+02
 0.135564292711172D+03 -.114759248270454D+02 0.740251381949796D+02 -.112987873344260D+03
0.213450236877D-05 0.000000000000D+00 0.000000000000D+00 0.541203927695D-09 0.000000000000D+00  7 -2 2 23 -13 13 23 21 0 0.59811760D-02 0.33022477D+00 0.32276197D+05 0.32276197D+05 0.32276197D+05 0.11644005D+01  1  2  2  2  7  2        2 0.213913916420D-03 0.100000000000D+01
-.860589811646D-07 0.000000000000D+00 -.819705112347D-08 0.541203927695D-09 0.000000000000D+00  7 -2 2 23 -13 13 23 21 2 0.59811760D-02 0.33022477D+00 0.32276197D+05 0.32276197D+05 0.32276197D+05 0.11644005D+01  1  2  3  2  7  2        2 -.116934687765D-04 0.100000000000D+01
0.127673433586D-06 0.000000000000D+00 0.000000000000D+00 0.541203927695D-09 0.000000000000D+00  7 -2 2 23 -13 13 23 21 2 0.59811760D-02 0.33022477D+00 0.32276197D+05 0.32276197D+05 0.32276197D+05 0.11644005D+01  1  2 15  2  7  2        2 0.173479314886D-04 0.100000000000D+01
0.250686419689D-05 0.000000000000D+00 0.000000000000D+00 0.541203927695D-09 0.000000000000D+00  7 -2 2 23 -13 13 23 21 2 0.59811760D-02 0.48021574D+00 0.48393449D+05 0.48393449D+05 0.48393449D+05 0.11485450D+01  1  2 12  2  7  2        2 0.900959798124D-04 0.100000000000D+01
-.315101137673D-05 0.000000000000D+00 0.000000000000D+00 0.541203927695D-09 0.000000000000D+00  7 -2 2 23 -13 13 23 21 2 0.59811760D-02 0.33022477D+00 0.32276197D+05 0.32276197D+05 0.32276197D+05 0.11644005D+01  1  2  4  2  7  2        2 -.428151166206D-03 0.100000000000D+01
-.330068121951D-05 0.000000000000D+00 -.694946224992D-06 0.541203927695D-09 0.000000000000D+00  7 -2 2 23 -13 13 23 21 2 0.59811760D-02 0.48038769D+00 0.32276197D+05 0.32276197D+05 0.32276197D+05 0.11644005D+01  1  2  5  2  7  2        2 -.123587202127D-03 0.100000000000D+01
0.336791254713D-05 0.000000000000D+00 0.648832870957D-06 0.541203927695D-09 0.000000000000D+00  7 -2 2 23 -13 13 23 21 2 0.59811760D-02 0.33022477D+00 0.32276197D+05 0.32276197D+05 0.32276197D+05 0.11644005D+01  1  2  6  2  7  2        2 0.457623128682D-03 0.100000000000D+01
0.113717860871D-06 0.000000000000D+00 0.000000000000D+00 0.541203927695D-09 0.000000000000D+00  7 -2 21 23 -13 13 23 -2 2 0.59811760D-02 0.48021574D+00 0.48393449D+05 0.48393449D+05 0.48393449D+05 0.11485450D+01  1  2 12  4  7  2        2 0.263396326427D-06 0.100000000000D+01
-.128150464154D-06 0.000000000000D+00 -.315464435056D-07 0.541203927695D-09 0.000000000000D+00  7 -2 21 23 -13 13 23 -2 2 0.59811760D-02 0.48038769D+00 0.32276197D+05 0.32276197D+05 0.32276197D+05 0.11644005D+01  1  2  5  4  7  2        2 -.317721192585D-06 0.100000000000D+01
  </mgrwgt>
  </event>
  <event>
  8     66 0.53686478E-06 0.56461862E+03 0.75467711E-02 0.87791552E-01
       -2 -1    0    0    0  501 0.00000000E+00 0.00000000E+00 0.53353092E+03 0.53353102E+03 0.32000000E+00 0.0000E+00 0.9000E+01
        2 -1    0    0  501    0 0.00000000E+00 0.00000000E+00 -.63705631E+03 0.63705639E+03 0.32000000E+00 0.0000E+00 0.9000E+01
       25  2    1    2    0    0 0.18268371E+03 0.50397277E+03 -.12106047E+03 0.62582166E+03 0.29939142E+03 0.0000E+00 0.0000E+00
       23  2    1    2    0    0 -.18268371E+03 -.50397277E+03 0.17535084E+02 0.54476575E+03 0.95395752E+02 0.0000E+00 0.0000E+00
       23  1    3    3    0    0 -.71953482E+01 0.89727589E+02 0.39595926E+02 0.13411153E+03 0.91188000E+02 0.0000E+00 0.9000E+01
      -13  1    4    4    0    0 -.59322785E+02 -.13923929E+03 -.37225716E+02 0.15586063E+03 0.10565837E+00 0.0000E+00 0.9000E+01
       13  1    4    4    0    0 -.12336092E+03 -.36473349E+03 0.54760800E+02 0.38890512E+03 0.10565837E+00 0.0000E+00 0.9000E+01
       23  1    3    3    0    0 0.18987906E+03 0.41424518E+03 -.16065640E+03 0.49171014E+03 0.91188000E+02 0.0000E+00 0.9000E+01
#aMCatNLO 1  0  0  2  1 0.62491425D+03 0.00000000D+00  -5  7  0 0.00000000D+00 0.00000000D+00 0.00000000D+00 0.00000000D+00 0.00000000D+00
  <mgrwgt>
 0.2789186929D-03    5    2    0
 0.583000296561642D+03 0.000000000000000D+00 0.000000000000000D+00 0.583000296561642D+03
 0.583000296561642D+03 0.000000000000000D+00 0.000000000000000D+00 -.583000296561642D+03
 0.138154690005223D+03 -.719534821903795D+01 0.897275895018779D+02 0.516590134693706D+02
 0.153168311192725D+03 -.593227068213891D+02 -.139239009967662D+03 -.235339353326270D+02
 0.395297322406835D+03 -.123361000373404D+03 -.364733762494258D+03 0.895059729049865D+02
 0.479380269518500D+03 0.189879055413831D+03 0.414245182960043D+03 -.117631051041730D+03
 0.000000000000000D+00 0.000000000000000D+00 -.000000000000000D+00 -.000000000000000D+00
 0.924804841294748D+03 0.000000000000000D+00 0.000000000000000D+00 0.924804841294748D+03
 0.103216940528261D+04 0.000000000000000D+00 0.000000000000000D+00 -.103216940528261D+04
 0.193558300381444D+03 -.659335096408596D+02 0.148773932314647D+03 0.516590134693706D+02
 0.143296692993819D+03 -.111819322198229D+03 -.864669607066957D+02 -.235339353326270D+02
 0.356533628040498D+03 -.256491655515429D+03 -.230904611017205D+03 0.895059729049865D+02
 0.629515459817352D+03 -.647893549202041D+01 0.611633404933674D+03 -.117631051041730D+03
 0.634070165344248D+03 0.440723422846538D+03 -.443035765524420D+03 -.107364563987865D+03
0.377727238096D-04 0.000000000000D+00 0.000000000000D+00 0.894692275101D-07 0.000000000000D+00  7 -2 2 23 -13 13 23 21 0 0.82081694D-01 0.98008677D-01 0.31879419D+06 0.31879419D+06 0.31879419D+06 0.10826049D+01  1  2  2  2  7  2        2 0.284273603097D-03 0.100000000000D+01
-.209586589211D-05 0.000000000000D+00 -.145057205216D-06 0.894692275101D-07 0.000000000000D+00  7 -2 2 23 -13 13 23 21 2 0.82081694D-01 0.98008677D-01 0.31879419D+06 0.31879419D+06 0.31879419D+06 0.10826049D+01  1  2  3  2  7  2        2 -.184867968981D-04 0.100000000000D+01
0.225084947006D-05 0.000000000000D+00 0.000000000000D+00 0.894692275101D-07 0.000000000000D+00  7 -2 2 23 -13 13 23 21 2 0.82081694D-01 0.98008677D-01 0.31879419D+06 0.31879419D+06 0.31879419D+06 0.10826049D+01  1  2 15  2  7  2        2 0.198538452092D-04 0.100000000000D+01
-.296229224919D-05 0.000000000000D+00 -.116692776616D-04 0.894692275101D-07 0.000000000000D+00  7 -2 2 23 -13 13 23 21 2 0.82081694D-01 0.23782826D+00 0.31879419D+06 0.31879419D+06 0.31879419D+06 0.10826049D+01  1  2  5  2  7  2        2 -.707084108278D-05 0.100000000000D+01
0.442923118761D-06 0.000000000000D+00 -.113356951147D-05 0.894692275101D-07 0.000000000000D+00  7 -2 21 23 -13 13 23 -2 2 0.82081694D-01 0.23782826D+00 0.31879419D+06 0.31879419D+06 0.31879419D+06 0.10826049D+01  1  2  5  4  7  2        2 0.348882608828D-06 0.100000000000D+01
  </mgrwgt>
  </event>
  <event>
  8     66 0.53686478E-06 0.36996698E+03 0.75467711E-02 0.90034846E-01
       -2 -1    0    0    0  501 0.00000000E+00 0.00000000E+00 0.79381793E+03 0.79381799E+03 0.32000000E+00 0.0000E+00 0.9000E+01
        2 -1    0    0  501    0 0.00000000E+00 0.00000000E+00 -.32314876E+03 0.32314892E+03 0.32000000E+00 0.0000E+00 0.9000E+01
       25  2    1    2    0    0 -.15918261E+03 -.28862904E+03 -.94828177E+02 0.45559829E+03 0.29988597E+03 0.0000E+00 0.0000E+00
       23  2    1    2    0    0 0.15918261E+03 0.28862904E+03 0.56549735E+03 0.66136862E+03 0.94738464E+02 0.0000E+00 0.0000E+00
       23  1    3    3    0    0 -.14721638E+03 -.12654295E+03 -.14943296E+03 0.26140245E+03 0.91188000E+02 0.0000E+00 0.9000E+01
      -11  1    4    4    0    0 0.54951245E+02 0.35697299E+02 0.73810289E+02 0.98701040E+02 0.51099893E-03 0.0000E+00 0.9000E+01
       11  1    4    4    0    0 0.10423136E+03 0.25293175E+03 0.49168706E+03 0.56266758E+03 0.51099893E-03 0.0000E+00 0.9000E+01
       23  1    3    3    0    0 -.11966225E+02 -.16208609E+03 0.54604779E+02 0.19419584E+03 0.91188000E+02 0.0000E+00 0.9000E+01
#aMCatNLO 1  0  0  2  1 0.64392744D+03 0.00000000D+00  -5  7  0 0.00000000D+00 0.00000000D+00 0.00000000D+00 0.00000000D+00 0.00000000D+00
  <mgrwgt>
 0.1936897965D-03    5    2    0
 0.506479421933872D+03 0.000000000000000D+00 0.000000000000000D+00 0.506479421933872D+03
 0.506479421933872D+03 0.000000000000000D+00 0.000000000000000D+00 -.506479421933872D+03
 0.357676301765281D+03 -.147216380862419D+03 -.126542951523372D+03 -.286236447934243D+03
 0.745396209966883D+02 0.549512450917627D+02 0.356972985988655D+02 0.355277164188522D+02
 0.391979531135780D+03 0.104231361249994D+03 0.252931746099153D+03 0.280729955609716D+03
 0.188763389969995D+03 -.119662254793380D+02 -.162086093174647D+03 -.300212240943248D+02
 0.000000000000000D+00 0.000000000000000D+00 0.000000000000000D+00 -.000000000000000D+00
 0.707290342189523D+03 0.000000000000000D+00 0.000000000000000D+00 0.707290342189523D+03
 0.156768886131436D+04 0.000000000000000D+00 0.000000000000000D+00 -.156768886131436D+04
 0.531947950850471D+03 -.237854003764243D+03 -.368981760846416D+03 -.286236447934243D+03
 0.548373816845118D+02 0.417699228124882D+02 0.439709350832665D+00 0.355277164188522D+02
 0.290667245169814D+03 0.346812327502301D+02 0.668980682299572D+02 0.280729955609716D+03
 0.322850786743850D+03 -.640910328728766D+02 -.301510273069243D+03 -.300212240943248D+02
 0.107467583905524D+04 0.225493881074402D+03 0.603154256334868D+03 -.860398519124839D+03
0.299653240657D-04 0.000000000000D+00 0.000000000000D+00 0.185975362981D-06 0.000000000000D+00  7 -2 2 23 -11 11 23 21 0 0.12212585D+00 0.49715211D-01 0.13687557D+06 0.13687557D+06 0.13687557D+06 0.11107037D+01  1  2  2  2  7  2        2 0.190451800610D-03 0.100000000000D+01
-.146508499531D-05 0.000000000000D+00 -.115074734463D-06 0.185975362981D-06 0.000000000000D+00  7 -2 2 23 -11 11 23 21 2 0.12212585D+00 0.49715211D-01 0.13687557D+06 0.13687557D+06 0.13687557D+06 0.11107037D+01  1  2  3  2  7  2        2 -.114874953257D-04 0.100000000000D+01
0.180476008195D-05 0.000000000000D+00 0.000000000000D+00 0.185975362981D-06 0.000000000000D+00  7 -2 2 23 -11 11 23 21 2 0.12212585D+00 0.49715211D-01 0.13687557D+06 0.13687557D+06 0.13687557D+06 0.11107037D+01  1  2 15  2  7  2        2 0.141508329358D-04 0.100000000000D+01
0.248688604579D-06 0.000000000000D+00 -.111546132237D-04 0.185975362981D-06 0.000000000000D+00  7 -2 2 23 -11 11 23 21 2 0.12212585D+00 0.18946368D+00 0.13687557D+06 0.13687557D+06 0.13687557D+06 0.11107037D+01  1  2  5  2  7  2        2 0.375772262973D-06 0.100000000000D+01
0.256280119095D-06 0.000000000000D+00 -.176922798347D-05 0.185975362981D-06 0.000000000000D+00  7 -2 21 23 -11 11 23 -2 2 0.12212585D+00 0.18946368D+00 0.13687557D+06 0.13687557D+06 0.13687557D+06 0.11107037D+01  1  2  5  4  7  2        2 0.198886041678D-06 0.100000000000D+01
  </mgrwgt>
  </event>
  <event>
  8     66 0.53686478E-06 0.22303187E+03 0.75467711E-02 0.84300069E-01
       -2 -1    0    0    0  501 0.00000000E+00 0.00000000E+00 0.79391397E+02 0.79392042E+02 0.32000000E+00 0.0000E+00 0.9000E+01
        2 -1    0    0  501    0 0.00000000E+00 0.00000000E+00 -.12016108E+04 0.12016109E+04 0.32000000E+00 0.0000E+00 0.9000E+01
       25  2    1    2    0    0 -.11549054E+03 -.18291120E+02 -.10801018E+04 0.11270443E+04 0.29989384E+03 0.0000E+00 0.0000E+00
       23  2    1    2    0    0 0.11549054E+03 0.18291120E+02 -.42117595E+02 0.15395858E+03 0.90866508E+02 0.0000E+00 0.0000E+00
       23  1    3    3    0    0 -.16189618E+03 0.57520839E+02 -.64517082E+03 0.67385433E+03 0.91188000E+02 0.0000E+00 0.9000E+01
      -13  1    4    4    0    0 0.11233754E+03 0.26496585E+02 -.62861916E+02 0.13142840E+03 0.10565837E+00 0.0000E+00 0.9000E+01
       13  1    4    4    0    0 0.31530003E+01 -.82054650E+01 0.20744321E+02 0.22530182E+02 0.10565837E+00 0.0000E+00 0.9000E+01
       23  1    3    3    0    0 0.46405637E+02 -.75811959E+02 -.43493101E+03 0.45318999E+03 0.91188000E+02 0.0000E+00 0.9000E+01
#aMCatNLO 1  0  0  2  2 0.13538583D+04 0.00000000D+00  -5  7  0 0.00000000D+00 0.00000000D+00 0.00000000D+00 0.00000000D+00 0.00000000D+00
  <mgrwgt>
 0.4201263985D-03    3    2    0
 0.308865670263020D+03 0.000000000000000D+00 0.000000000000000D+00 0.308865670263020D+03
 0.308865670263020D+03 0.000000000000000D+00 0.000000000000000D+00 -.308865670263020D+03
 0.225318225734255D+03 -.161896181002724D+03 0.575208392500781D+02 -.113727881949559D+03
 0.158346120411368D+03 0.112337691146818D+03 0.264966313718088D+02 0.108405099156268D+03
 0.844069951351316D+02 0.315285299525612D+01 -.820551178419608D+01 0.839480191671719D+02
 0.149659999245286D+03 0.464056368606501D+02 -.758119588376908D+02 -.786252363738806D+02
 0.000000000000000D+00 0.000000000000000D+00 0.000000000000000D+00 0.000000000000000D+00
 0.313588234411843D+04 0.000000000000000D+00 0.000000000000000D+00 0.313588234411843D+04
 0.935647417305894D+03 0.000000000000000D+00 0.000000000000000D+00 -.935647417305894D+03
 0.439931506466334D+03 -.189544489037498D+03 -.369274064321500D+03 -.113727881949559D+03
 0.307592749743268D+03 0.929729010779869D+02 -.272429208853763D+03 0.108405099156268D+03
 0.220837610887783D+03 -.953335563403233D+01 -.204036995642670D+03 0.839480191671719D+02
 0.519765886367346D+03 0.185837645682025D+02 -.505286098351080D+03 -.786252363738806D+02
 0.258340200795959D+04 0.875211790253412D+02 0.135102636716901D+04 0.220023492681253D+04
0.383796019747D-05 0.000000000000D+00 0.000000000000D+00 0.501424382803D-06 0.000000000000D+00  7 -2 2 23 -13 13 23 21 0 0.12214114D-01 0.18486326D+00 0.49743216D+05 0.49743216D+05 0.49743216D+05 0.11474921D+01  1  2  2  2  7  2        2 0.413785461810D-03 0.100000000000D+01
-.185737507179D-06 0.000000000000D+00 -.147387777164D-07 0.501424382803D-06 0.000000000000D+00  7 -2 2 23 -13 13 23 21 2 0.12214114D-01 0.18486326D+00 0.49743216D+05 0.49743216D+05 0.49743216D+05 0.11474921D+01  1  2  3  2  7  2        2 -.263677944831D-04 0.100000000000D+01
0.230403729697D-06 0.000000000000D+00 0.000000000000D+00 0.501424382803D-06 0.000000000000D+00  7 -2 2 23 -13 13 23 21 2 0.12214114D-01 0.18486326D+00 0.49743216D+05 0.49743216D+05 0.49743216D+05 0.11474921D+01  1  2 15  2  7  2        2 0.327087311824D-04 0.100000000000D+01
  </mgrwgt>
  </event>
  <event>
  8     66 0.53686478E-06 0.29801837E+03 0.75467711E-02 0.96371611E-01
       -2 -1    0    0    0  501 0.00000000E+00 0.00000000E+00 0.11484253E+03 0.11484297E+03 0.32000000E+00 0.0000E+00 0.9000E+01
        2 -1    0    0  501    0 0.00000000E+00 0.00000000E+00 -.15878002E+04 0.15878003E+04 0.32000000E+00 0.0000E+00 0.9000E+01
       25  2    1    2    0    0 -.32428829E+03 -.17076358E+03 -.75355888E+03 0.89011497E+03 0.30021754E+03 0.0000E+00 0.0000E+00
       23  2    1    2    0    0 0.32428829E+03 0.17076358E+03 -.71939884E+03 0.81252828E+03 0.91347774E+02 0.0000E+00 0.0000E+00
       23  1    3    3    0    0 -.10384562E+03 0.25908325E+02 -.11884854E+03 0.18410698E+03 0.91188000E+02 0.0000E+00 0.9000E+01
      -13  1    4    4    0    0 0.68853763E+02 0.62559455E+02 -.25675883E+03 0.27309272E+03 0.10565837E+00 0.0000E+00 0.9000E+01
       13  1    4    4    0    0 0.25543453E+03 0.10820413E+03 -.46264001E+03 0.53943556E+03 0.10565837E+00 0.0000E+00 0.9000E+01
       23  1    3    3    0    0 -.22044267E+03 -.19667191E+03 -.63471034E+03 0.70600799E+03 0.91188000E+02 0.0000E+00 0.9000E+01
#aMCatNLO 1  0  0  2  1 0.38245708D+02 0.00000000D+00  -5  7  0 0.00000000D+00 0.00000000D+00 0.00000000D+00 0.00000000D+00 0.00000000D+00
  <mgrwgt>
 0.1719175392D-03    9    2    0
 0.427021541540756D+03 0.000000000000000D+00 0.000000000000000D+00 0.427021541540756D+03
 0.427021541540756D+03 0.000000000000000D+00 0.000000000000000D+00 -.427021541540756D+03
 0.162063996209399D+03 -.103845619754908D+03 0.259083245386961D+02 0.805874276837074D+02
 0.101615921224329D+03 0.688535134350125D+02 0.625593936252077D+02 -.408816756404373D+02
 0.277523868311111D+03 0.255434781141461D+03 0.108204187164058D+03 0.802645287422283D+01
 0.312839297336672D+03 -.220442674821566D+03 -.196671905327962D+03 -.477322049174929D+02
 0.000000000000000D+00 0.000000000000000D+00 -.000000000000000D+00 -.000000000000000D+00
 0.428583533569339D+03 0.000000000000000D+00 0.000000000000000D+00 0.428583533569339D+03
 0.749914026668435D+03 0.000000000000000D+00 0.000000000000000D+00 -.749914026668435D+03
 0.163965805092998D+03 -.104768956204810D+03 0.331461341768941D+02 0.805874276837074D+02
 0.104106580429075D+03 0.682708946572726D+02 0.671264003813790D+02 -.408816756404373D+02
 0.281161105039213D+03 0.253852550934756D+03 0.120606904549641D+03 0.802645287422283D+01
 0.305665522146007D+03 -.222194318511765D+03 -.182941196890142D+03 -.477322049174929D+02
 0.323598547530482D+03 0.483982912454710D+01 -.379382422177723D+02 -.321330493099096D+03
0.438907614572D-05 0.000000000000D+00 0.000000000000D+00 0.809812023429D-06 0.000000000000D+00  7 -2 2 23 -13 13 23 21 0 0.17668118D-01 0.24427700D+00 0.16819060D+06 0.16819060D+06 0.16819060D+06 0.11036503D+01  1  2  2  2  7  2        2 0.158523536065D-03 0.100000000000D+01
-.243353486858D-06 0.000000000000D+00 -.168552080699D-07 0.809812023429D-06 0.000000000000D+00  7 -2 2 23 -13 13 23 21 2 0.17668118D-01 0.24427700D+00 0.16819060D+06 0.16819060D+06 0.16819060D+06 0.11036503D+01  1  2  3  2  7  2        2 -.107058501787D-04 0.100000000000D+01
0.278327717211D-06 0.000000000000D+00 0.000000000000D+00 0.809812023429D-06 0.000000000000D+00  7 -2 2 23 -13 13 23 21 2 0.17668118D-01 0.24427700D+00 0.16819060D+06 0.16819060D+06 0.16819060D+06 0.11036503D+01  1  2 15  2  7  2        2 0.122444715279D-04 0.100000000000D+01
0.103984468236D-03 0.000000000000D+00 0.000000000000D+00 0.809812023429D-06 0.000000000000D+00  7 -2 2 23 -13 13 23 21 2 0.17668118D-01 0.42912650D+00 0.18479112D+06 0.18479112D+06 0.18479112D+06 0.11004733D+01  1  2 12  2  7  2        2 0.966066801184D-03 0.100000000000D+01
-.897635383956D-04 0.000000000000D+00 0.000000000000D+00 0.809812023429D-06 0.000000000000D+00  7 -2 2 23 -13 13 23 21 2 0.17668118D-01 0.24427700D+00 0.16819060D+06 0.16819060D+06 0.16819060D+06 0.11036503D+01  1  2  4  2  7  2        2 -.394896742998D-02 0.100000000000D+01
-.104088720982D-03 0.000000000000D+00 -.126998614085D-05 0.809812023429D-06 0.000000000000D+00  7 -2 2 23 -13 13 23 21 2 0.17668118D-01 0.42931514D+00 0.16819060D+06 0.16819060D+06 0.16819060D+06 0.11036503D+01  1  2  5  2  7  2        2 -.975604000380D-03 0.100000000000D+01
0.902503621840D-04 0.000000000000D+00 0.109176369984D-05 0.809812023429D-06 0.000000000000D+00  7 -2 2 23 -13 13 23 21 2 0.17668118D-01 0.24427700D+00 0.16819060D+06 0.16819060D+06 0.16819060D+06 0.11036503D+01  1  2  6  2  7  2        2 0.397038426936D-02 0.100000000000D+01
0.646476377550D-05 0.000000000000D+00 0.000000000000D+00 0.809812023429D-06 0.000000000000D+00  7 -2 21 23 -13 13 23 -2 2 0.17668118D-01 0.42912650D+00 0.18479112D+06 0.18479112D+06 0.18479112D+06 0.11004733D+01  1  2 12  4  7  2        2 0.526676326933D-05 0.100000000000D+01
-.641054863825D-05 0.000000000000D+00 -.790077559789D-07 0.809812023429D-06 0.000000000000D+00  7 -2 21 23 -13 13 23 -2 2 0.17668118D-01 0.42931514D+00 0.16819060D+06 0.16819060D+06 0.16819060D+06 0.11036503D+01  1  2  5  4  7  2        2 -.529102171251D-05 0.100000000000D+01
  </mgrwgt>
  </event>
  <event>
  8     66 0.53686478E-06 0.17943330E+03 0.75467711E-02 0.10407012E+00
       -2 -1    0    0    0  501 0.00000000E+00 0.00000000E+00 0.58585462E+02 0.58586335E+02 0.32000000E+00 0.0000E+00 0.9000E+01
        2 -1    0    0  501    0 0.00000000E+00 0.00000000E+00 -.12492097E+04 0.12492097E+04 0.32000000E+00 0.0000E+00 0.9000E+01
       25  2    1    2    0    0 0.86116120E+02 -.87678520E+02 -.10659171E+04 0.11142032E+04 0.30027657E+03 0.0000E+00 0.0000E+00
       23  2    1    2    0    0 -.86116120E+02 0.87678520E+02 -.12470713E+03 0.19359286E+03 0.82600346E+02 0.0000E+00 0.0000E+00
       23  1    3    3    0    0 0.23723230E+02 -.72387414E+02 -.93365518E+03 0.94118541E+03 0.91188000E+02 0.0000E+00 0.9000E+01
      -13  1    4    4    0    0 -.49103111E+02 0.23545024E+02 -.75224162E+01 0.54973463E+02 0.10565837E+00 0.0000E+00 0.9000E+01
       13  1    4    4    0    0 -.37013009E+02 0.64133496E+02 -.11718472E+03 0.13861940E+03 0.10565837E+00 0.0000E+00 0.9000E+01
       23  1    3    3    0    0 0.62392890E+02 -.15291106E+02 -.13226189E+03 0.17301777E+03 0.91188000E+02 0.0000E+00 0.9000E+01
#aMCatNLO 1  0  0  2  1 0.10198058D+03 0.00000000D+00  -5  7  0 0.00000000D+00 0.00000000D+00 0.00000000D+00 0.00000000D+00 0.00000000D+00
  <mgrwgt>
 0.2624897958D-03    4    2    0
 0.270529338363053D+03 0.000000000000000D+00 0.000000000000000D+00 0.270529338363053D+03
 0.270529338363053D+03 0.000000000000000D+00 0.000000000000000D+00 -.270529338363053D+03
 0.220394025297178D+03 0.237232322998391D+02 -.723874158987268D+02 -.185622049637013D+03
 0.116323317679380D+03 -.491031334498829D+02 0.235449665019136D+02 0.102789255633868D+03
 0.771873808497212D+02 -.370129896296783D+02 0.641335561750823D+02 0.217903036566909D+02
 0.127153952899828D+03 0.623928907797220D+02 -.152911067782691D+02 0.610424903464541D+02
 0.000000000000000D+00 -.000000000000000D+00 0.000000000000000D+00 0.000000000000000D+00
 0.375716231926540D+03 0.000000000000000D+00 0.000000000000000D+00 0.375716231926540D+03
 0.301183285079754D+03 0.000000000000000D+00 0.000000000000000D+00 -.301183285079754D+03
 0.235034862201467D+03 0.604213219919946D+02 -.939140758531785D+02 -.185622049637013D+03
 0.108143099801127D+03 -.310158119213358D+02 0.129351602886192D+02 0.102789255633868D+03
 0.664128750133083D+02 -.254417976958035D+02 0.573460335514875D+02 0.217903036566909D+02
 0.140994788244163D+03 0.840000984546416D+02 -.279656360544521D+02 0.610424903464541D+02
 0.126313891746228D+03 -.879638108294969D+02 0.515985180675239D+02 0.745329468467853D+02
0.202655764574D-05 0.000000000000D+00 0.000000000000D+00 0.577390438330D-08 0.000000000000D+00  7 -2 2 23 -13 13 23 21 0 0.90132183D-02 0.19218617D+00 0.32196309D+05 0.32196309D+05 0.32196309D+05 0.11644996D+01  1  2  2  2  7  2        2 0.327902846331D-03 0.100000000000D+01
-.895107129690D-07 0.000000000000D+00 -.778251496452D-08 0.577390438330D-08 0.000000000000D+00  7 -2 2 23 -13 13 23 21 2 0.90132183D-02 0.19218617D+00 0.32196309D+05 0.32196309D+05 0.32196309D+05 0.11644996D+01  1  2  3  2  7  2        2 -.196399294224D-04 0.100000000000D+01
0.128109350530D-06 0.000000000000D+00 0.000000000000D+00 0.577390438330D-08 0.000000000000D+00  7 -2 2 23 -13 13 23 21 2 0.90132183D-02 0.19218617D+00 0.32196309D+05 0.32196309D+05 0.32196309D+05 0.11644996D+01  1  2 15  2  7  2        2 0.281090220300D-04 0.100000000000D+01
-.336724392664D-06 0.000000000000D+00 0.000000000000D+00 0.577390438330D-08 0.000000000000D+00  7 -2 2 23 -13 13 23 21 2 0.90132183D-02 0.19218617D+00 0.32196309D+05 0.32196309D+05 0.32196309D+05 0.11644996D+01  1  2  4  2  7  2        2 -.738821431242D-04 0.100000000000D+01
  </mgrwgt>
  </event>
  <event>
  8     66 0.53686478E-06 0.32236822E+03 0.75467711E-02 0.95827879E-01
       -2 -1    0    0    0  501 0.00000000E+00 0.00000000E+00 0.20006606E+03 0.20006632E+03 0.32000000E+00 0.0000E+00 0.9000E+01
        2 -1    0    0  501    0 0.00000000E+00 0.00000000E+00 -.85154017E+03 0.85154023E+03 0.32000000E+00 0.0000E+00 0.9000E+01
       25  2    1    2    0    0 -.20960646E+03 0.15637859E+03 -.66395660E+03 0.77367623E+03 0.29891038E+03 0.0000E+00 0.0000E+00
       23  2    1    2    0    0 0.20960646E+03 -.15637859E+03 0.12482493E+02 0.27793032E+03 0.93275518E+02 0.0000E+00 0.0000E+00
       23  1    3    3    0    0 -.15671569E+03 -.14637405E+02 -.21371511E+03 0.28064828E+03 0.91188000E+02 0.0000E+00 0.9000E+01
      -13  1    4    4    0    0 0.75398217E+02 -.65262201E+02 0.49820454E+02 0.11147257E+03 0.10565837E+00 0.0000E+00 0.9000E+01
       13  1    4    4    0    0 0.13420824E+03 -.91116384E+02 -.37337961E+02 0.16645775E+03 0.10565837E+00 0.0000E+00 0.9000E+01
       23  1    3    3    0    0 -.52890766E+02 0.17101599E+03 -.45024149E+03 0.49302795E+03 0.91188000E+02 0.0000E+00 0.9000E+01
#aMCatNLO 1  0  0  2  2 0.23293586D+03 0.00000000D+00  -5  7  0 0.00000000D+00 0.00000000D+00 0.00000000D+00 0.00000000D+00 0.00000000D+00
  <mgrwgt>
 0.2028425611D-03    4    2    0
 0.412752294293021D+03 0.000000000000000D+00 0.000000000000000D+00 0.412752294293021D+03
 0.412752294293021D+03 0.000000000000000D+00 0.000000000000000D+00 -.412752294293021D+03
 0.188856267367972D+03 -.156715689355672D+03 -.146374044129069D+02 -.507678784468332D+02
 0.181321855685073D+03 0.753981416512372D+02 -.652621685834373D+02 0.151438386601302D+03
 0.182583289560644D+03 0.134208314112950D+03 -.911164170847230D+02 0.838008626888088D+02
 0.272743175972353D+03 -.528907664085158D+02 0.171015990081067D+03 -.184471370843278D+03
 0.000000000000000D+00 0.000000000000000D+00 0.000000000000000D+00 0.000000000000000D+00
 0.585432313732250D+03 0.000000000000000D+00 0.000000000000000D+00 0.585432313732250D+03
 0.515510968950245D+03 0.000000000000000D+00 0.000000000000000D+00 -.515510968950245D+03
 0.240607850049009D+03 -.216065047928540D+03 -.177596098732972D+02 -.507678784468332D+02
 0.168123660660877D+03 0.271068725784347D+02 -.678026385668350D+02 0.151438386601302D+03
 0.153245831233222D+03 0.877987490273193D+02 -.935578958303911D+02 0.838008626888088D+02
 0.295762095097840D+03 -.131454776333823D+03 0.166882955004070D+03 -.184471370843278D+03
 0.243203845641547D+03 0.232614202656609D+03 0.122371892664532D+02 0.699213447820060D+02
0.732230370632D-05 0.000000000000D+00 0.000000000000D+00 0.633581093382D-07 0.000000000000D+00  7 -2 2 23 -13 13 23 21 0 0.30779419D-01 0.13100620D+00 0.10392127D+06 0.10392127D+06 0.10392127D+06 0.11203538D+01  1  2  2  2  7  2        2 0.277748330899D-03 0.100000000000D+01
-.376581973367D-06 0.000000000000D+00 -.281195742391D-07 0.633581093382D-07 0.000000000000D+00  7 -2 2 23 -13 13 23 21 2 0.30779419D-01 0.13100620D+00 0.10392127D+06 0.10392127D+06 0.10392127D+06 0.11203538D+01  1  2  3  2  7  2        2 -.179297257992D-04 0.100000000000D+01
0.458580058505D-06 0.000000000000D+00 0.000000000000D+00 0.633581093382D-07 0.000000000000D+00  7 -2 2 23 -13 13 23 21 2 0.30779419D-01 0.13100620D+00 0.10392127D+06 0.10392127D+06 0.10392127D+06 0.11203538D+01  1  2 15  2  7  2        2 0.218337979177D-04 0.100000000000D+01
-.165526043766D-05 0.000000000000D+00 0.000000000000D+00 0.633581093382D-07 0.000000000000D+00  7 -2 2 23 -13 13 23 21 2 0.30779419D-01 0.13100620D+00 0.10392127D+06 0.10392127D+06 0.10392127D+06 0.11203538D+01  1  2  4  2  7  2        2 -.788098418732D-04 0.100000000000D+01
  </mgrwgt>
  </event>
  <event>
  8     66 0.53686478E-06 0.26667705E+03 0.75467711E-02 0.95344325E-01
       -2 -1    0    0    0  501 0.00000000E+00 0.00000000E+00 0.38012842E+03 0.38012855E+03 0.32000000E+00 0.0000E+00 0.9000E+01
        2 -1    0    0  501    0 0.00000000E+00 0.00000000E+00 -.70796877E+03 0.70796885E+03 0.32000000E+00 0.0000E+00 0.9000E+01
       25  2    1    2    0    0 -.58064228E+02 -.33108192E+03 0.17009552E+03 0.48002229E+03 0.29749323E+03 0.0000E+00 0.0000E+00
       23  2    1    2    0    0 0.58064228E+02 0.33108192E+03 -.49793588E+03 0.60807511E+03 0.93960133E+02 0.0000E+00 0.0000E+00
       23  1    3    3    0    0 -.40618769E+02 -.87576463E+01 0.91072632E+02 0.13541070E+03 0.91188000E+02 0.0000E+00 0.9000E+01
      -11  1    4    4    0    0 0.62669915E-01 0.19954477E+03 -.34221594E+03 0.39614374E+03 0.51099893E-03 0.0000E+00 0.9000E+01
       11  1    4    4    0    0 0.58001558E+02 0.13153715E+03 -.15571994E+03 0.21193136E+03 0.51099893E-03 0.0000E+00 0.9000E+01
       23  1    3    3    0    0 -.17445458E+02 -.32232428E+03 0.79022886E+02 0.34461159E+03 0.91188000E+02 0.0000E+00 0.9000E+01
#aMCatNLO 1  0  0  1  2 0.14912107D+03 0.00000000D+00  -5  7  0 0.00000000D+00 0.00000000D+00 0.00000000D+00 0.00000000D+00 0.00000000D+00
  <mgrwgt>
 0.2294210368D-03    9    2    0
 0.518766962968262D+03 0.000000000000000D+00 0.000000000000000D+00 0.518766962968262D+03
 0.518766962968262D+03 0.000000000000000D+00 0.000000000000000D+00 -.518766962968262D+03
 0.170787002795540D+03 -.406187694902882D+02 -.875764625492714D+01 0.138298113425499D+03
 0.307316005864964D+03 0.626699162992850D-01 0.199544768143682D+03 -.233719937189278D+03
 0.173055242617888D+03 0.580015578193063D+02 0.131537154500425D+03 -.963426866658859D+02
 0.386375674658132D+03 -.174454582453174D+02 -.322324276389180D+03 0.191764510429665D+03
 0.000000000000000D+00 -.000000000000000D+00 0.000000000000000D+00 0.000000000000000D+00
 0.661076627724605D+03 0.000000000000000D+00 0.000000000000000D+00 0.661076627724605D+03
 0.564682627099020D+03 0.000000000000000D+00 0.000000000000000D+00 -.564682627099020D+03
 0.166762431326242D+03 -.165069534390461D+02 -.977800945737329D+01 0.138298113425499D+03
 0.309270350058336D+03 0.441066388609029D+02 0.197680916615235D+03 -.233719937189278D+03
 0.182363114791589D+03 0.833897859980569D+02 0.130462776122876D+03 -.963426866658859D+02
 0.389799573197699D+03 0.379982572759920D+02 -.324670542095779D+03 0.191764510429665D+03
 0.177563785449758D+03 -.148987728695906D+03 0.630485881504148D+01 0.963940006255852D+02
0.132631128593D-04 0.000000000000D+00 0.000000000000D+00 0.105780331728D-07 0.000000000000D+00  7 -2 2 23 -11 11 23 21 0 0.58481311D-01 0.10891829D+00 0.15168690D+06 0.15168690D+06 0.15168690D+06 0.11071688D+01  1  2  2  1  7  1       -2 0.186375464989D-03 0.100000000000D+01
-.663216776246D-06 0.000000000000D+00 -.509338456376D-07 0.105780331728D-07 0.000000000000D+00  7 -2 2 23 -11 11 23 21 2 0.58481311D-01 0.10891829D+00 0.15168690D+06 0.15168690D+06 0.15168690D+06 0.11071688D+01  1  2  3  1  7  1       -2 -.114242179362D-04 0.100000000000D+01
0.814766175053D-06 0.000000000000D+00 0.000000000000D+00 0.105780331728D-07 0.000000000000D+00  7 -2 2 23 -11 11 23 21 2 0.58481311D-01 0.10891829D+00 0.15168690D+06 0.15168690D+06 0.15168690D+06 0.11071688D+01  1  2 15  1  7  1       -2 0.140347269312D-04 0.100000000000D+01
0.110773503301D-04 0.000000000000D+00 0.000000000000D+00 0.105780331728D-07 0.000000000000D+00  7 -2 2 23 -11 11 23 21 2 0.76574293D-01 0.10891829D+00 0.22045422D+06 0.22045422D+06 0.22045422D+06 0.10945922D+01  1  2 12  1  7  1       -2 0.103941727158D-03 0.100000000000D+01
-.131776921370D-04 0.000000000000D+00 0.000000000000D+00 0.105780331728D-07 0.000000000000D+00  7 -2 2 23 -11 11 23 21 2 0.58481311D-01 0.10891829D+00 0.15168690D+06 0.15168690D+06 0.15168690D+06 0.11071688D+01  1  2  4  1  7  1       -2 -.226991886002D-03 0.100000000000D+01
-.189179335401D-04 0.000000000000D+00 -.635962711496D-05 0.105780331728D-07 0.000000000000D+00  7 -2 2 23 -11 11 23 21 2 0.79600069D-01 0.10891829D+00 0.15168690D+06 0.15168690D+06 0.15168690D+06 0.11071688D+01  1  2  5  1  7  1       -2 -.168604209614D-03 0.100000000000D+01
0.202016342863D-04 0.000000000000D+00 0.606889958848D-05 0.105780331728D-07 0.000000000000D+00  7 -2 2 23 -11 11 23 21 2 0.58481311D-01 0.10891829D+00 0.15168690D+06 0.15168690D+06 0.15168690D+06 0.11071688D+01  1  2  6  1  7  1       -2 0.347982561690D-03 0.100000000000D+01
0.396192463072D-06 0.000000000000D+00 0.000000000000D+00 0.105780331728D-07 0.000000000000D+00  7 21 2 23 -11 11 23 2 2 0.76574293D-01 0.10891829D+00 0.22045422D+06 0.22045422D+06 0.22045422D+06 0.10945922D+01  1  2 12  3  7  1       -2 0.362328473526D-04 0.100000000000D+01
-.597108262728D-06 0.000000000000D+00 -.250729153489D-06 0.105780331728D-07 0.000000000000D+00  7 21 2 23 -11 11 23 2 2 0.79600069D-01 0.10891829D+00 0.15168690D+06 0.15168690D+06 0.15168690D+06 0.11071688D+01  1  2  5  3  7  1       -2 -.521259777905D-04 0.100000000000D+01
  </mgrwgt>
  </event>
  <event>
  8     66 0.53686478E-06 0.20947557E+03 0.75467711E-02 0.99665404E-01
       -2 -1    0    0    0  501 0.00000000E+00 0.00000000E+00 0.65682917E+02 0.65683696E+02 0.32000000E+00 0.0000E+00 0.9000E+01
        2 -1    0    0  501    0 0.00000000E+00 0.00000000E+00 -.11591135E+04 0.11591135E+04 0.32000000E+00 0.0000E+00 0.9000E+01
       25  2    1    2    0    0 0.93903111E+02 0.63337310E+02 -.37880000E+03 0.49551589E+03 0.29869239E+03 0.0000E+00 0.0000E+00
       23  2    1    2    0    0 -.93903111E+02 -.63337310E+02 -.71463058E+03 0.72928135E+03 0.91241502E+02 0.0000E+00 0.0000E+00
       23  1    3    3    0    0 0.13862692E+03 0.79359584E+02 -.33817845E+03 0.38496141E+03 0.91188000E+02 0.0000E+00 0.9000E+01
      -11  1    4    4    0    0 -.90347968E+01 0.14471760E+02 -.26039997E+02 0.31131027E+02 0.51099893E-03 0.0000E+00 0.9000E+01
       11  1    4    4    0    0 -.84868314E+02 -.77809070E+02 -.68859058E+03 0.69815032E+03 0.51099893E-03 0.0000E+00 0.9000E+01
       23  1    3    3    0    0 -.44723807E+02 -.16022274E+02 -.40621548E+02 0.11055448E+03 0.91188000E+02 0.0000E+00 0.9000E+01
#aMCatNLO 1  0  0  2  2 0.21587286D+03 0.00000000D+00  -5  7  0 0.00000000D+00 0.00000000D+00 0.00000000D+00 0.00000000D+00 0.00000000D+00
  <mgrwgt>
 0.2307244501D-03    5    2    0
 0.275924735163021D+03 0.000000000000000D+00 0.000000000000000D+00 0.275924735163021D+03
 0.275924735163021D+03 0.000000000000000D+00 0.000000000000000D+00 -.275924735163021D+03
 0.184334694094954D+03 0.138626918383896D+03 0.793595838963093D+02 0.121927046330902D+02
 0.174980081763604D+02 -.903479683236320D+01 0.144717597713689D+02 0.388856084659666D+01
 0.185134879767774D+03 -.848683142774663D+02 -.778090695013219D+02 -.144976003675325D+03
 0.164881888286954D+03 -.447238072740661D+02 -.160222741663563D+02 0.128894738195638D+03
 0.000000000000000D+00 -.000000000000000D+00 -.000000000000000D+00 -.000000000000000D+00
 0.347991301084783D+03 0.000000000000000D+00 0.000000000000000D+00 0.347991301084783D+03
 0.521600699570880D+03 0.000000000000000D+00 0.000000000000000D+00 -.521600699570880D+03
 0.252596201819186D+03 0.221037437659368D+03 0.805194320409081D+02 0.121927046330902D+02
 0.153349428620042D+02 -.284210007019721D+01 0.145589159731840D+02 0.388856084659666D+01
 0.165171862620199D+03 -.187961714835980D+02 -.768791681622347D+02 -.144976003675325D+03
 0.159466761902845D+03 0.164523213503843D+02 -.151612794789958D+02 0.128894738195638D+03
 0.277022231451429D+03 -.215851487455957D+03 -.303790037286164D+01 -.173609398486097D+03
0.163302281493D-05 0.000000000000D+00 0.000000000000D+00 0.867184661860D-07 0.000000000000D+00  7 -2 2 23 -11 11 23 21 0 0.10105127D-01 0.17832522D+00 0.43880013D+05 0.43880013D+05 0.43880013D+05 0.11523166D+01  1  2  2  2  7  2        2 0.249262182913D-03 0.100000000000D+01
-.823499181834D-07 0.000000000000D+00 -.627123759411D-08 0.867184661860D-07 0.000000000000D+00  7 -2 2 23 -11 11 23 21 2 0.10105127D-01 0.17832522D+00 0.43880013D+05 0.43880013D+05 0.43880013D+05 0.11523166D+01  1  2  3  2  7  2        2 -.166905624542D-04 0.100000000000D+01
0.101411636340D-06 0.000000000000D+00 0.000000000000D+00 0.867184661860D-07 0.000000000000D+00  7 -2 2 23 -11 11 23 21 2 0.10105127D-01 0.17832522D+00 0.43880013D+05 0.43880013D+05 0.43880013D+05 0.11523166D+01  1  2 15  2  7  2        2 0.205539639535D-04 0.100000000000D+01
-.509435812231D-06 0.000000000000D+00 -.470049595418D-06 0.867184661860D-07 0.000000000000D+00  7 -2 2 23 -11 11 23 21 2 0.10105127D-01 0.36926776D+00 0.43880013D+05 0.43880013D+05 0.43880013D+05 0.11523166D+01  1  2  5  2  7  2        2 -.223295297413D-04 0.100000000000D+01
-.112080410611D-07 0.000000000000D+00 -.369978764905D-07 0.867184661860D-07 0.000000000000D+00  7 -2 21 23 -11 11 23 -2 2 0.10105127D-01 0.36926776D+00 0.43880013D+05 0.43880013D+05 0.43880013D+05 0.11523166D+01  1  2  5  4  7  2        2 -.716045350732D-07 0.100000000000D+01
  </mgrwgt>
  </event>
  <event>
  9     66 0.53686478E-06 0.18559363E+03 0.75467711E-02 0.10635777E+00
       21 -1    0    0  502  501 0.00000000E+00 0.00000000E+00 0.88363444E+02 0.88366627E+02 0.75000000E+00 0.0000E+00 0.9000E+01
        2 -1    0    0  501    0 0.00000000E+00 0.00000000E+00 -.74959640E+03 0.74959647E+03 0.32000000E+00 0.0000E+00 0.9000E+01
       25  2    1    2    0    0 -.10876532E+03 -.56650341E+01 -.32942559E+03 0.45865970E+03 0.29997585E+03 0.0000E+00 0.0000E+00
       23  2    1    2    0    0 0.11124101E+03 -.21875929E+02 -.27414991E+03 0.31535719E+03 0.10695261E+03 0.0000E+00 0.0000E+00
       23  1    3    3    0    0 -.45367485E+02 -.23201382E+02 -.33008651E+03 0.34622084E+03 0.91188000E+02 0.0000E+00 0.9000E+01
      -11  1    4    4    0    0 0.12274888E+03 -.43400472E+02 -.24403227E+03 0.27659110E+03 0.51099893E-03 0.0000E+00 0.9000E+01
       11  1    4    4    0    0 -.11507866E+02 0.21524544E+02 -.30117640E+02 0.38766083E+02 0.51099893E-03 0.0000E+00 0.9000E+01
       23  1    3    3    0    0 -.63397830E+02 0.17536347E+02 0.66092316E+00 0.11243886E+03 0.91188000E+02 0.0000E+00 0.9000E+01
        2  1    1    2  502    0 -.24756985E+01 0.27540963E+02 -.57657453E+02 0.63946212E+02 0.32000000E+00 0.0000E+00 0.9000E+01
#aMCatNLO 2  0  0  1  2 0.27652011D+02 0.00000000D+00  -5  7  0 0.00000000D+00 0.00000000D+00 0.00000000D+00 0.00000000D+00 0.00000000D+00
  <mgrwgt>
 0.4545990557D-04    1    2    0
 0.241885362588317D+03 0.000000000000000D+00 0.000000000000000D+00 0.241885362588317D+03
 0.241885362588317D+03 0.000000000000000D+00 0.000000000000000D+00 -.241885362588317D+03
 0.141021287937890D+03 -.460907713650587D+02 -.151552388739299D+02 -.960089154053374D+02
 0.134971177055381D+03 0.122051384477331D+03 -.356411139927112D+02 -.452812232193466D+02
 0.257324889988795D+02 -.116360498245174D+02 0.229506279701706D+02 0.178914319234707D+00
 0.182045771184483D+03 -.643245632877550D+02 0.278457248964705D+02 0.141111224305449D+03
 0.000000000000000D+00 -.000000000000000D+00 0.000000000000000D+00 -.000000000000000D+00
 0.251218739033259D+03 0.000000000000000D+00 0.000000000000000D+00 0.251218739033259D+03
 0.263666011977449D+03 0.000000000000000D+00 0.000000000000000D+00 -.263666011977449D+03
 0.141878386475705D+03 -.453674915915016D+02 -.232013808713068D+02 -.960089154053374D+02
 0.137845124777798D+03 0.122748884442369D+03 -.434004679343483D+02 -.452812232193466D+02
 0.244083693490734D+02 -.115078564331781D+02 0.215245377246648D+02 0.178914319234707D+00
 0.180428485360913D+03 -.633978379433802D+02 0.175363481020173D+02 0.141111224305449D+03
 0.303243850472193D+02 -.247569847430870D+01 0.275409629789730D+02 -.124472729441898D+02
0.139826874679D-07 0.000000000000D+00 0.000000000000D+00 0.149885693430D-08 0.993202743071D-13  7 21 2 23 -11 11 23 2 2 0.13594581D-01 0.11532239D+00 0.39830503D+05 0.39830503D+05 0.39830503D+05 0.11560844D+01  1  2  1  3  7  1       -2 0.454599055691D-04 0.100000000000D+01
  </mgrwgt>
  </event>
  <event>
  8     66 0.53686478E-06 0.60383616E+03 0.75467711E-02 0.88144359E-01
       -2 -1    0    0    0  501 0.00000000E+00 0.00000000E+00 0.40987524E+03 0.40987536E+03 0.32000000E+00 0.0000E+00 0.9000E+01
        2 -1    0    0  501    0 0.00000000E+00 0.00000000E+00 -.11008214E+04 0.11008215E+04 0.32000000E+00 0.0000E+00 0.9000E+01
       25  2    1    2    0    0 -.11587144E+02 0.56573066E+03 -.36961430E+02 0.64145128E+03 0.29984688E+03 0.0000E+00 0.0000E+00
       23  2    1    2    0    0 0.11587144E+02 -.56573066E+03 -.65398475E+03 0.86924555E+03 0.87785707E+02 0.0000E+00 0.0000E+00
       23  1    3    3    0    0 -.85754665E+02 0.46634716E+03 -.57077260E+02 0.48621662E+03 0.91188000E+02 0.0000E+00 0.9000E+01
      -13  1    4    4    0    0 -.22875199E+02 -.63758843E+02 -.57195413E+02 0.88655464E+02 0.10565837E+00 0.0000E+00 0.9000E+01
       13  1    4    4    0    0 0.34462343E+02 -.50197182E+03 -.59678933E+03 0.78059008E+03 0.10565837E+00 0.0000E+00 0.9000E+01
       23  1    3    3    0    0 0.74167520E+02 0.99383502E+02 0.20115830E+02 0.15523466E+03 0.91188000E+02 0.0000E+00 0.9000E+01
#aMCatNLO 1  0  0  2  1 0.53578270D+03 0.00000000D+00  -5  7  0 0.00000000D+00 0.00000000D+00 0.00000000D+00 0.00000000D+00 0.00000000D+00
  <mgrwgt>
 0.4722247724D-03    3    2    0
 0.671713906085813D+03 0.000000000000000D+00 0.000000000000000D+00 0.671713906085813D+03
 0.671713906085813D+03 0.000000000000000D+00 0.000000000000000D+00 -.671713906085813D+03
 0.517399286026854D+03 -.857546645691831D+02 0.466347160634159D+03 0.185884999691162D+03
 0.702766467970492D+02 -.228752819665362D+02 -.637582086246083D+02 -.187194923267056D+02
 0.570843199351159D+03 0.344624263517633D+02 -.501972453779243D+03 -.269625583100458D+03
 0.184908679996562D+03 0.741675201839560D+02 0.993835017696926D+02 0.102460075736001D+03
 0.000000000000000D+00 0.000000000000000D+00 -.000000000000000D+00 0.000000000000000D+00
 0.211220476894333D+04 0.000000000000000D+00 0.000000000000000D+00 0.211220476894333D+04
 0.774829116213355D+03 0.000000000000000D+00 0.000000000000000D+00 -.774829116213355D+03
 0.654144167879072D+03 -.296531332340182D+03 0.545073643516705D+03 0.185884999691162D+03
 0.753086896536625D+02 -.490680723330340D+02 -.539750277619401D+02 -.187194923267056D+02
 0.531643442761744D+03 -.163889977830809D+03 -.427886515721066D+03 -.269625583100458D+03
 0.185230559078525D+03 0.757441587917558D+01 0.124256467746372D+03 0.102460075736001D+03
 0.144070702578368D+04 0.501914966624850D+03 -.187468567780071D+03 0.133737565272997D+04
0.726699391133D-04 0.000000000000D+00 0.000000000000D+00 0.384880528223D-06 0.000000000000D+00  7 -2 2 23 -13 13 23 21 0 0.63057742D-01 0.16935715D+00 0.36461811D+06 0.36461811D+06 0.36461811D+06 0.10783392D+01  1  2  2  2  7  2        2 0.468750247439D-03 0.100000000000D+01
-.398151252490D-05 0.000000000000D+00 -.279071700629D-06 0.384880528223D-06 0.000000000000D+00  7 -2 2 23 -13 13 23 21 2 0.63057742D-01 0.16935715D+00 0.36461811D+06 0.36461811D+06 0.36461811D+06 0.10783392D+01  1  2  3  2  7  2        2 -.298638371927D-04 0.100000000000D+01
0.444474384089D-05 0.000000000000D+00 0.000000000000D+00 0.384880528223D-06 0.000000000000D+00  7 -2 2 23 -13 13 23 21 2 0.63057742D-01 0.16935715D+00 0.36461811D+06 0.36461811D+06 0.36461811D+06 0.10783392D+01  1  2 15  2  7  2        2 0.333383621419D-04 0.100000000000D+01
  </mgrwgt>
  </event>
  <event>
  8     66 0.53686478E-06 0.35403137E+03 0.75467711E-02 0.89423976E-01
       -2 -1    0    0    0  501 0.00000000E+00 0.00000000E+00 0.37034741E+03 0.37034755E+03 0.32000000E+00 0.0000E+00 0.9000E+01
        2 -1    0    0  501    0 0.00000000E+00 0.00000000E+00 -.46724738E+03 0.46724749E+03 0.32000000E+00 0.0000E+00 0.9000E+01
       25  2    1    2    0    0 0.33622167E+02 0.31379238E+03 -.21680086E+03 0.48698013E+03 0.30091681E+03 0.0000E+00 0.0000E+00
       23  2    1    2    0    0 -.33622167E+02 -.31379238E+03 0.11990089E+03 0.35061491E+03 0.94649271E+02 0.0000E+00 0.0000E+00
       23  1    3    3    0    0 -.44859745E+02 0.19038388E+03 -.22841419E+03 0.31423989E+03 0.91188000E+02 0.0000E+00 0.9000E+01
      -11  1    4    4    0    0 -.16029204E+02 -.20209982E+02 -.11798545E+02 0.28365197E+02 0.51099893E-03 0.0000E+00 0.9000E+01
       11  1    4    4    0    0 -.17592963E+02 -.29358240E+03 0.13169943E+03 0.32224971E+03 0.51099893E-03 0.0000E+00 0.9000E+01
       23  1    3    3    0    0 0.78481912E+02 0.12340850E+03 0.11613325E+02 0.17274023E+03 0.91188000E+02 0.0000E+00 0.9000E+01
#aMCatNLO 1  0  0  2  2 0.65670860D+03 0.00000000D+00  -5  7  0 0.00000000D+00 0.00000000D+00 0.00000000D+00 0.00000000D+00 0.00000000D+00
  <mgrwgt>
 0.3860531226D-03    3    2    0
 0.415985528933241D+03 0.000000000000000D+00 0.000000000000000D+00 0.415985528933241D+03
 0.415985528933241D+03 0.000000000000000D+00 0.000000000000000D+00 -.415985528933241D+03
 0.289760616264446D+03 -.448597453742309D+02 0.190383879625343D+03 -.193358591786644D+03
 0.271827603587288D+02 -.160292036394338D+02 -.202099822953011D+02 -.857459661029335D+01
 0.339767144406259D+03 -.175929630453355D+02 -.293582395942466D+03 0.170122240938537D+03
 0.175260536837048D+03 0.784819120590001D+02 0.123408498612424D+03 0.318109474583994D+02
 0.000000000000000D+00 0.000000000000000D+00 0.000000000000000D+00 0.000000000000000D+00
 0.115459916638541D+04 0.000000000000000D+00 0.000000000000000D+00 0.115459916638541D+04
 0.702569621876065D+03 0.000000000000000D+00 0.000000000000000D+00 -.702569621876065D+03
 0.350438694065605D+03 -.253387449771459D+03 0.113575007087868D+03 -.193358591786644D+03
 0.520171605147535D+02 -.418264474378923D+02 -.297121115997098D+02 -.857459661029335D+01
 0.525988841107687D+03 -.299589687056659D+03 -.397452768913680D+03 0.170122240938537D+03
 0.131480784697653D+03 -.214308222899747D+02 0.866067484581030D+02 0.318109474583994D+02
 0.797243307875773D+03 0.616234406555984D+03 0.226983124967419D+03 0.452029544509341D+03
0.159389994384D-04 0.000000000000D+00 0.000000000000D+00 0.366619768327D-07 0.000000000000D+00  7 -2 2 23 -11 11 23 21 0 0.56976543D-01 0.71884231D-01 0.12533821D+06 0.12533821D+06 0.12533821D+06 0.11137609D+01  1  2  2  2  7  2        2 0.382994065784D-03 0.100000000000D+01
-.857500484517D-06 0.000000000000D+00 -.612099546785D-07 0.366619768327D-07 0.000000000000D+00  7 -2 2 23 -11 11 23 21 2 0.56976543D-01 0.71884231D-01 0.12533821D+06 0.12533821D+06 0.12533821D+06 0.11137609D+01  1  2  3  2  7  2        2 -.255593218141D-04 0.100000000000D+01
0.960130075249D-06 0.000000000000D+00 0.000000000000D+00 0.366619768327D-07 0.000000000000D+00  7 -2 2 23 -11 11 23 21 2 0.56976543D-01 0.71884231D-01 0.12533821D+06 0.12533821D+06 0.12533821D+06 0.11137609D+01  1  2 15  2  7  2        2 0.286183786712D-04 0.100000000000D+01
  </mgrwgt>
  </event>
  <event>
  8     66 0.53686478E-06 0.10180760E+03 0.75467711E-02 0.10605909E+00
       -2 -1    0    0    0  501 0.00000000E+00 0.00000000E+00 0.36860747E+02 0.36862136E+02 0.32000000E+00 0.0000E+00 0.9000E+01
        2 -1    0    0  501    0 0.00000000E+00 0.00000000E+00 -.20457442E+04 0.20457443E+04 0.32000000E+00 0.0000E+00 0.9000E+01
       25  2    1    2    0    0 -.81639617E+02 -.36542613E+02 -.18661020E+04 0.18908369E+04 0.29142210E+03 0.0000E+00 0.0000E+00
       23  2    1    2    0    0 0.81639617E+02 0.36542613E+02 -.14278147E+03 0.19176955E+03 0.91589425E+02 0.0000E+00 0.0000E+00
       23  1    3    3    0    0 -.13756484E+03 -.29755733E+02 -.69956516E+03 0.71938595E+03 0.91188000E+02 0.0000E+00 0.9000E+01
      -13  1    4    4    0    0 0.50482948E+02 0.68708941E+01 -.13962358E+03 0.14862870E+03 0.10565837E+00 0.0000E+00 0.9000E+01
       13  1    4    4    0    0 0.31156670E+02 0.29671719E+02 -.31578890E+01 0.43140844E+02 0.10565837E+00 0.0000E+00 0.9000E+01
       23  1    3    3    0    0 0.55925223E+02 -.67868808E+01 -.11665369E+04 0.11714509E+04 0.91188000E+02 0.0000E+00 0.9000E+01
#aMCatNLO 1  0  0  2  1 0.39772034D+02 0.00000000D+00  -5  7  0 0.00000000D+00 0.00000000D+00 0.00000000D+00 0.00000000D+00 0.00000000D+00
  <mgrwgt>
 0.6490175843D-03    9    2    0
 0.274607235352818D+03 0.000000000000000D+00 0.000000000000000D+00 0.274607235352818D+03
 0.274607235352818D+03 0.000000000000000D+00 0.000000000000000D+00 -.274607235352818D+03
 0.169064908763918D+03 -.137564840317906D+03 -.297557328471585D+02 -.214056792087838D+02
 0.528892074110452D+02 0.504829717998136D+02 0.687086401105916D+01 0.141960926514772D+02
 0.152038309024660D+03 0.311566463967092D+02 0.296717498099170D+02 0.145823516826355D+03
 0.175222045506013D+03 0.559252221213833D+02 -.678688097381764D+01 -.138613930269048D+03
 0.000000000000000D+00 -.000000000000000D+00 0.000000000000000D+00 -.000000000000000D+00
 0.290386902518736D+03 0.000000000000000D+00 0.000000000000000D+00 0.290386902518736D+03
 0.301583873314195D+03 0.000000000000000D+00 0.000000000000000D+00 -.301583873314195D+03
 0.169844809192227D+03 -.135371593425049D+03 -.418131134540083D+02 -.214056792087838D+02
 0.531924297218405D+02 0.511694768148778D+02 0.309680087110975D+01 0.141960926514772D+02
 0.150726201395574D+03 0.331159803625546D+02 0.189003061393177D+02 0.145823516826355D+03
 0.176889217501387D+03 0.582039025268559D+02 -.193139325427201D+02 -.138613930269048D+03
 0.413181180219027D+02 -.711776627923927D+01 0.391299389863010D+02 -.111969707954591D+02
0.257848329638D-05 0.000000000000D+00 0.000000000000D+00 0.117719344568D-08 0.000000000000D+00  7 -2 2 23 -13 13 23 21 0 0.56709929D-02 0.31472999D+00 0.34015199D+05 0.34015199D+05 0.34015199D+05 0.11623081D+01  1  2  2  2  7  2        2 0.315972536937D-03 0.100000000000D+01
-.115651464310D-06 0.000000000000D+00 -.990205478836D-08 0.117719344568D-08 0.000000000000D+00  7 -2 2 23 -13 13 23 21 2 0.56709929D-02 0.31472999D+00 0.34015199D+05 0.34015199D+05 0.34015199D+05 0.11623081D+01  1  2  3  2  7  2        2 -.191460276679D-04 0.100000000000D+01
0.153846554469D-06 0.000000000000D+00 0.000000000000D+00 0.117719344568D-08 0.000000000000D+00  7 -2 2 23 -13 13 23 21 2 0.56709929D-02 0.31472999D+00 0.34015199D+05 0.34015199D+05 0.34015199D+05 0.11623081D+01  1  2 15  2  7  2        2 0.254692009830D-04 0.100000000000D+01
0.353301700381D-05 0.000000000000D+00 0.000000000000D+00 0.117719344568D-08 0.000000000000D+00  7 -2 2 23 -13 13 23 21 2 0.56709929D-02 0.35397661D+00 0.41523496D+05 0.41523496D+05 0.41523496D+05 0.11544600D+01  1  2 12  2  7  2        2 0.419891777047D-03 0.100000000000D+01
-.329497154804D-05 0.000000000000D+00 0.000000000000D+00 0.117719344568D-08 0.000000000000D+00  7 -2 2 23 -13 13 23 21 2 0.56709929D-02 0.31472999D+00 0.34015199D+05 0.34015199D+05 0.34015199D+05 0.11623081D+01  1  2  4  2  7  2        2 -.545480481377D-03 0.100000000000D+01
-.932475586702D-05 0.000000000000D+00 -.226624027254D-05 0.117719344568D-08 0.000000000000D+00  7 -2 2 23 -13 13 23 21 2 0.56709929D-02 0.35417960D+00 0.34015199D+05 0.34015199D+05 0.34015199D+05 0.11623081D+01  1  2  5  2  7  2        2 -.112529016786D-02 0.100000000000D+01
0.954147866661D-05 0.000000000000D+00 0.225053018663D-05 0.117719344568D-08 0.000000000000D+00  7 -2 2 23 -13 13 23 21 2 0.56709929D-02 0.31472999D+00 0.34015199D+05 0.34015199D+05 0.34015199D+05 0.11623081D+01  1  2  6  2  7  2        2 0.157958583260D-02 0.100000000000D+01
0.658639211741D-07 0.000000000000D+00 0.000000000000D+00 0.117719344568D-08 0.000000000000D+00  7 -2 21 23 -13 13 23 -2 2 0.56709929D-02 0.35397661D+00 0.41523496D+05 0.41523496D+05 0.41523496D+05 0.11544600D+01  1  2 12  4  7  2        2 0.126969559449D-05 0.100000000000D+01
-.164374596837D-06 0.000000000000D+00 -.424218974802D-07 0.117719344568D-08 0.000000000000D+00  7 -2 21 23 -13 13 23 -2 2 0.56709929D-02 0.35417960D+00 0.34015199D+05 0.34015199D+05 0.34015199D+05 0.11623081D+01  1  2  5  4  7  2        2 -.325478197115D-05 0.100000000000D+01
  </mgrwgt>
  </event>
  <event>
  8     66 0.53686478E-06 0.94774056E+02 0.75467711E-02 0.98765719E-01
       -2 -1    0    0    0  501 0.00000000E+00 0.00000000E+00 0.52562155E+02 0.52563129E+02 0.32000000E+00 0.0000E+00 0.9000E+01
        2 -1    0    0  501    0 0.00000000E+00 0.00000000E+00 -.24445814E+04 0.24445814E+04 0.32000000E+00 0.0000E+00 0.9000E+01
       25  2    1    2    0    0 -.84797482E+01 0.25938578E+03 -.95233654E+03 0.10315016E+04 0.29949590E+03 0.0000E+00 0.0000E+00
       23  2    1    2    0    0 0.84797482E+01 -.25938578E+03 -.14396827E+04 0.14656429E+04 0.89833445E+02 0.0000E+00 0.0000E+00
       23  1    3    3    0    0 0.86820021E+02 0.83359074E+02 -.57728150E+03 0.59670398E+03 0.91188000E+02 0.0000E+00 0.9000E+01
      -11  1    4    4    0    0 -.15964332E+02 -.24600474E+03 -.12737947E+04 0.12974306E+04 0.51099893E-03 0.0000E+00 0.9000E+01
       11  1    4    4    0    0 0.24444080E+02 -.13381039E+02 -.16588800E+03 0.16821235E+03 0.51099893E-03 0.0000E+00 0.9000E+01
       23  1    3    3    0    0 -.95299770E+02 0.17602671E+03 -.37505503E+03 0.43479763E+03 0.91188000E+02 0.0000E+00 0.9000E+01
#aMCatNLO 1  0  0  2  1 0.56689139D+02 0.00000000D+00  -5  7  0 0.00000000D+00 0.00000000D+00 0.00000000D+00 0.00000000D+00 0.00000000D+00
  <mgrwgt>
 0.3590626813D-03    9    2    0
 0.358460188483979D+03 0.000000000000000D+00 0.000000000000000D+00 0.358460188483979D+03
 0.358460188483979D+03 0.000000000000000D+00 0.000000000000000D+00 -.358460188483979D+03
 0.152300900177514D+03 0.868200214030770D+02 0.833590740972004D+02 -.198459441727430D+02
 0.269109777496438D+03 -.159643319084773D+02 -.246004741958707D+03 -.107920708785331D+03
 0.324209752878196D+02 0.244440801434886D+02 -.133810388781571D+02 -.165696826491446D+02
 0.263088724006188D+03 -.952997696380883D+02 0.176026706739664D+03 0.144336335607219D+03
 0.000000000000000D+00 0.000000000000000D+00 -.000000000000000D+00 -.000000000000000D+00
 0.368948218843754D+03 0.000000000000000D+00 0.000000000000000D+00 0.368948218843754D+03
 0.445330343627421D+03 0.000000000000000D+00 0.000000000000000D+00 -.445330343627421D+03
 0.159149693958762D+03 0.864352829228737D+02 0.956475515060508D+02 -.198459441727430D+02
 0.250546444198143D+03 -.166062691811206D+02 -.225501381679779D+03 -.107920708785331D+03
 0.314041256001002D+02 0.243652362665567D+02 -.108627797219854D+02 -.165696826491446D+02
 0.278057914539624D+03 -.959682542683990D+02 0.197377984816648D+03 0.144336335607219D+03
 0.951203841745459D+02 0.177400426008917D+01 -.566613749209352D+02 -.763821247836666D+02
0.523541489942D-05 0.000000000000D+00 0.000000000000D+00 0.148637838339D-06 0.000000000000D+00  7 -2 2 23 -11 11 23 21 0 0.80865618D-02 0.37608952D+00 0.10411984D+06 0.10411984D+06 0.10411984D+06 0.11202861D+01  1  2  2  2  7  2        2 0.223464852570D-03 0.100000000000D+01
-.286944975691D-06 0.000000000000D+00 -.201053717302D-07 0.148637838339D-06 0.000000000000D+00  7 -2 2 23 -11 11 23 21 2 0.80865618D-02 0.37608952D+00 0.10411984D+06 0.10411984D+06 0.10411984D+06 0.11202861D+01  1  2  3  2  7  2        2 -.153714417548D-04 0.100000000000D+01
0.351145237600D-06 0.000000000000D+00 0.000000000000D+00 0.148637838339D-06 0.000000000000D+00  7 -2 2 23 -11 11 23 21 2 0.80865618D-02 0.37608952D+00 0.10411984D+06 0.10411984D+06 0.10411984D+06 0.11202861D+01  1  2 15  2  7  2        2 0.188106049052D-04 0.100000000000D+01
0.105355122460D-04 0.000000000000D+00 0.000000000000D+00 0.148637838339D-06 0.000000000000D+00  7 -2 2 23 -11 11 23 21 2 0.80865618D-02 0.47180617D+00 0.12427305D+06 0.12427305D+06 0.12427305D+06 0.11140586D+01  1  2 12  2  7  2        2 0.236074717570D-03 0.100000000000D+01
-.106826546625D-04 0.000000000000D+00 0.000000000000D+00 0.148637838339D-06 0.000000000000D+00  7 -2 2 23 -11 11 23 21 2 0.80865618D-02 0.37608952D+00 0.10411984D+06 0.10411984D+06 0.10411984D+06 0.11202861D+01  1  2  4  2  7  2        2 -.572262342409D-03 0.100000000000D+01
-.149973667354D-04 0.000000000000D+00 -.236294354102D-05 0.148637838339D-06 0.000000000000D+00  7 -2 2 23 -11 11 23 21 2 0.80865618D-02 0.47074225D+00 0.10411984D+06 0.10411984D+06 0.10411984D+06 0.11202861D+01  1  2  5  2  7  2        2 -.345804875421D-03 0.100000000000D+01
0.152014870428D-04 0.000000000000D+00 0.230463082813D-05 0.148637838339D-06 0.000000000000D+00  7 -2 2 23 -11 11 23 21 2 0.80865618D-02 0.37608952D+00 0.10411984D+06 0.10411984D+06 0.10411984D+06 0.11202861D+01  1  2  6  2  7  2        2 0.814333034070D-03 0.100000000000D+01
0.331585755310D-06 0.000000000000D+00 0.000000000000D+00 0.148637838339D-06 0.000000000000D+00  7 -2 21 23 -11 11 23 -2 2 0.80865618D-02 0.47180617D+00 0.12427305D+06 0.12427305D+06 0.12427305D+06 0.11140586D+01  1  2 12  4  7  2        2 0.482260573992D-06 0.100000000000D+01
-.435364839586D-06 0.000000000000D+00 -.738130500025D-07 0.148637838339D-06 0.000000000000D+00  7 -2 21 23 -11 11 23 -2 2 0.80865618D-02 0.47074225D+00 0.10411984D+06 0.10411984D+06 0.10411984D+06 0.11202861D+01  1  2  5  4  7  2        2 -.664128787656D-06 0.100000000000D+01
  </mgrwgt>
  </event>
  <event>
  8     66 0.53686478E-06 0.26681547E+03 0.75467711E-02 0.10218389E+00
       -4 -1    0    0    0  501 0.00000000E+00 0.00000000E+00 0.19326920E+03 0.19327542E+03 0.15500000E+01 0.0000E+00 0.9000E+01
       21 -1    0    0  501  502 0.00000000E+00 0.00000000E+00 -.97455904E+03 0.97455933E+03 0.75000000E+00 0.0000E+00 0.9000E+01
       25  2    1    2    0    0 -.13396991E+03 0.17558438E+03 -.80940072E+03 0.89016247E+03 0.29745906E+03 0.0000E+00 0.0000E+00
       23  1    3    3    0    0 -.12895473E+03 0.15983898E+03 -.31371925E+03 0.38589227E+03 0.91188000E+02 0.0000E+00 0.9000E+01
      -13  1    1    2    0    0 0.25755705E+02 -.51714019E+02 -.61946629E+02 0.84705916E+02 0.10565837E+00 0.0000E+00 0.9000E+01
       13  1    1    2    0    0 0.10512164E+03 -.11724472E+03 0.71465823E+02 0.17292848E+03 0.10565837E+00 0.0000E+00 0.9000E+01
       23  1    3    3    0    0 -.50151786E+01 0.15745399E+02 -.49568147E+03 0.50427021E+03 0.91188000E+02 0.0000E+00 0.9000E+01
       -4  1    1    2    0  502 0.30925649E+01 -.66256349E+01 0.18591689E+02 0.20037874E+02 0.15500000E+01 0.0000E+00 0.9000E+01
#aMCatNLO 2  0  0  2  1 0.73118394D+01 0.00000000D+00  -5  7  0 0.00000000D+00 0.00000000D+00 0.00000000D+00 0.00000000D+00 0.00000000D+00
  <mgrwgt>
 0.2598395930D-05    1    2    0
 0.411574337641102D+03 0.000000000000000D+00 0.000000000000000D+00 0.411574337641102D+03
 0.411574337641102D+03 0.000000000000000D+00 0.000000000000000D+00 -.411574337641102D+03
 0.231464856879937D+03 -.128081904916419D+03 0.157968930965679D+03 -.624625576565015D+02
 0.584307162792353D+02 0.259741798940546D+02 -.521819670118324D+02 -.406606720453810D+01
 0.311915695267775D+03 0.106291170976301D+03 -.119750365909290D+03 0.267681597782622D+03
 0.221337406855257D+03 -.418344595393658D+01 0.139634019554435D+02 -.201152972921582D+03
 0.000000000000000D+00 0.000000000000000D+00 -.000000000000000D+00 0.000000000000000D+00
 0.457275604748681D+03 0.000000000000000D+00 0.000000000000000D+00 0.457275604748681D+03
 0.411883137654248D+03 0.000000000000000D+00 0.000000000000000D+00 -.411883137654248D+03
 0.233226704663456D+03 -.128954809474249D+03 0.159839076663510D+03 -.624625576565015D+02
 0.579154168800507D+02 0.257556283249593D+02 -.517137333738804D+02 -.406606720453810D+01
 0.310564778455774D+03 0.105121866242493D+03 -.117245200599097D+03 0.267681597782622D+03
 0.221474249332127D+03 -.501524998253239D+01 0.157454922327399D+02 -.201152972921582D+03
 0.459775930715210D+02 0.309256488932972D+01 -.662563492327159D+01 0.453924670944331D+02
0.134648444747D-06 0.000000000000D+00 0.000000000000D+00 0.523029214870D-10 0.100681332839D-14  7 -4 21 23 -13 13 23 -4 2 0.29733282D-01 0.14992791D+00 0.72882474D+05 0.72882474D+05 0.72882474D+05 0.11331728D+01  1  2  1  4  7  2        4 0.259839593008D-05 0.100000000000D+01
  </mgrwgt>
  </event>
  <event>
  8     66 0.53686478E-06 0.17584280E+03 0.75467711E-02 0.96356059E-01
       -2 -1    0    0    0  501 0.00000000E+00 0.00000000E+00 0.10296896E+03 0.10296946E+03 0.32000000E+00 0.0000E+00 0.9000E+01
        2 -1    0    0  501    0 0.00000000E+00 0.00000000E+00 -.11528481E+04 0.11528481E+04 0.32000000E+00 0.0000E+00 0.9000E+01
       25  2    1    2    0    0 -.15044288E+03 0.21028044E+03 -.75892530E+03 0.85596441E+03 0.29976080E+03 0.0000E+00 0.0000E+00
       23  2    1    2    0    0 0.15044288E+03 -.21028044E+03 -.29095385E+03 0.39985320E+03 0.91528768E+02 0.0000E+00 0.0000E+00
       23  1    3    3    0    0 0.19468749E+02 -.13795019E+02 -.25314785E+03 0.27012667E+03 0.91188000E+02 0.0000E+00 0.9000E+01
      -13  1    4    4    0    0 0.12315138E+03 -.19558923E+03 -.20668357E+03 0.31006373E+03 0.10565837E+00 0.0000E+00 0.9000E+01
       13  1    4    4    0    0 0.27291495E+02 -.14691211E+02 -.84270271E+02 0.89789460E+02 0.10565837E+00 0.0000E+00 0.9000E+01
       23  1    3    3    0    0 -.16991163E+03 0.22407546E+03 -.50577745E+03 0.58583774E+03 0.91188000E+02 0.0000E+00 0.9000E+01
#aMCatNLO 1  0  0  2  1 0.18418276D+03 0.00000000D+00  -5  7  0 0.00000000D+00 0.00000000D+00 0.00000000D+00 0.00000000D+00 0.00000000D+00
  <mgrwgt>
 0.3030613620D-03    9    2    0
 0.344540140379435D+03 0.000000000000000D+00 0.000000000000000D+00 0.344540140379435D+03
 0.344540140379435D+03 0.000000000000000D+00 0.000000000000000D+00 -.344540140379435D+03
 0.106598876690628D+03 0.194687490476673D+02 -.137950193042034D+02 -.497868900476760D+02
 0.250175377302126D+03 0.123151511660406D+03 -.195589466749116D+03 0.957401957425115D+02
 0.352431894143010D+02 0.272913671165344D+02 -.146909701603461D+02 -.167761460637019D+02
 0.297062837351815D+03 -.169911627824608D+03 0.224075456213665D+03 -.291771596311336D+02
 0.000000000000000D+00 -.000000000000000D+00 -.000000000000000D+00 -.000000000000000D+00
 0.427471168484806D+03 0.000000000000000D+00 0.000000000000000D+00 0.427471168484806D+03
 0.476360252537313D+03 0.000000000000000D+00 0.000000000000000D+00 -.476360252537313D+03
 0.111201911150253D+03 0.390061403062307D+02 0.709931667556943D+01 -.497868900476760D+02
 0.243254010480126D+03 0.167413624314554D+03 -.148253185219464D+03 0.957401957425115D+02
 0.385944067329566D+02 0.339148234401850D+02 -.760749008144624D+01 -.167761460637019D+02
 0.320220254197291D+03 -.114539462294604D+03 0.283293425245451D+03 -.291771596311336D+02
 0.190560838461491D+03 -.125795125766365D+03 -.134532066620111D+03 -.488890840525068D+02
0.327382914231D-05 0.000000000000D+00 0.000000000000D+00 0.684525579818D-06 0.000000000000D+00  7 -2 2 23 -13 13 23 21 0 0.15841420D-01 0.17736129D+00 0.10627920D+06 0.10627920D+06 0.10627920D+06 0.11195581D+01  1  2  2  2  7  2        2 0.247809258870D-03 0.100000000000D+01
-.181203179022D-06 0.000000000000D+00 -.125723659255D-07 0.684525579818D-06 0.000000000000D+00  7 -2 2 23 -13 13 23 21 2 0.15841420D-01 0.17736129D+00 0.10627920D+06 0.10627920D+06 0.10627920D+06 0.11195581D+01  1  2  3  2  7  2        2 -.171917704246D-04 0.100000000000D+01
0.216467292200D-06 0.000000000000D+00 0.000000000000D+00 0.684525579818D-06 0.000000000000D+00  7 -2 2 23 -13 13 23 21 2 0.15841420D-01 0.17736129D+00 0.10627920D+06 0.10627920D+06 0.10627920D+06 0.11195581D+01  1  2 15  2  7  2        2 0.205374762850D-04 0.100000000000D+01
0.737179869495D-06 0.000000000000D+00 0.000000000000D+00 0.684525579818D-06 0.000000000000D+00  7 -2 2 23 -13 13 23 21 2 0.15841420D-01 0.25988177D+00 0.18528013D+06 0.18528013D+06 0.18528013D+06 0.11003845D+01  1  2 12  2  7  2        2 0.338631218870D-04 0.100000000000D+01
-.144493140682D-05 0.000000000000D+00 0.000000000000D+00 0.684525579818D-06 0.000000000000D+00  7 -2 2 23 -13 13 23 21 2 0.15841420D-01 0.17736129D+00 0.10627920D+06 0.10627920D+06 0.10627920D+06 0.11195581D+01  1  2  4  2  7  2        2 -.137088814663D-03 0.100000000000D+01
-.229596894665D-05 0.000000000000D+00 -.116975765356D-05 0.684525579818D-06 0.000000000000D+00  7 -2 2 23 -13 13 23 21 2 0.15841420D-01 0.27695385D+00 0.10627920D+06 0.10627920D+06 0.10627920D+06 0.11195581D+01  1  2  5  2  7  2        2 -.965450269529D-04 0.100000000000D+01
0.265636461139D-05 0.000000000000D+00 0.106248693847D-05 0.684525579818D-06 0.000000000000D+00  7 -2 2 23 -13 13 23 21 2 0.15841420D-01 0.17736129D+00 0.10627920D+06 0.10627920D+06 0.10627920D+06 0.11195581D+01  1  2  6  2  7  2        2 0.252024334283D-03 0.100000000000D+01
0.339309070778D-07 0.000000000000D+00 0.000000000000D+00 0.684525579818D-06 0.000000000000D+00  7 -2 21 23 -13 13 23 -2 2 0.15841420D-01 0.25988177D+00 0.18528013D+06 0.18528013D+06 0.18528013D+06 0.11003845D+01  1  2 12  4  7  2        2 0.446864436848D-06 0.100000000000D+01
-.724501817947D-07 0.000000000000D+00 -.603425329214D-07 0.684525579818D-06 0.000000000000D+00  7 -2 21 23 -13 13 23 -2 2 0.15841420D-01 0.27695385D+00 0.10627920D+06 0.10627920D+06 0.10627920D+06 0.11195581D+01  1  2  5  4  7  2        2 -.794081727024D-06 0.100000000000D+01
  </mgrwgt>
  </event>
  <event>
  8     66 -.53686478E-06 0.67849883E+02 0.75467711E-02 0.10737047E+00
       -2 -1    0    0    0  501 0.00000000E+00 0.00000000E+00 0.96121759E+02 0.96122292E+02 0.32000000E+00 0.0000E+00 0.9000E+01
        2 -1    0    0  501    0 0.00000000E+00 0.00000000E+00 -.12153177E+04 0.12153177E+04 0.32000000E+00 0.0000E+00 0.9000E+01
       25  2    1    2    0    0 -.81275915E+02 -.79265830E+01 -.16958656E+03 0.35391921E+03 0.29971754E+03 0.0000E+00 0.0000E+00
       23  2    1    2    0    0 0.81275915E+02 0.79265830E+01 -.94960934E+03 0.95752079E+03 0.91758113E+02 0.0000E+00 0.0000E+00
       23  1    3    3    0    0 -.76299452E+02 -.88356763E+02 -.36968008E+01 0.14818044E+03 0.91188000E+02 0.0000E+00 0.9000E+01
      -11  1    4    4    0    0 0.74109227E+02 -.17408526E+02 -.39394266E+03 0.40123068E+03 0.51099893E-03 0.0000E+00 0.9000E+01
       11  1    4    4    0    0 0.71666878E+01 0.25335109E+02 -.55566668E+03 0.55629011E+03 0.51099893E-03 0.0000E+00 0.9000E+01
       23  1    3    3    0    0 -.49764631E+01 0.80430180E+02 -.16588976E+03 0.20573878E+03 0.91188000E+02 0.0000E+00 0.9000E+01
#aMCatNLO 1  0  0  2  1 0.18418276D+03 0.00000000D+00  -5  7  0 0.00000000D+00 0.00000000D+00 0.00000000D+00 0.00000000D+00 0.00000000D+00
  <mgrwgt>
 -.2408076076D-05    1    2    0
 0.341787725542727D+03 0.000000000000000D+00 0.000000000000000D+00 0.341787725542727D+03
 0.341787725542727D+03 0.000000000000000D+00 0.000000000000000D+00 -.341787725542727D+03
 0.278231622533411D+03 -.762994517674565D+02 -.883567632555501D+02 0.235518705160679D+03
 0.124771805494872D+03 0.741092270746000D+02 -.174085262265261D+02 -.988573169951317D+02
 0.157467958304977D+03 0.716668784003332D+01 0.253351092663273D+02 -.155251179437081D+03
 0.123104064752193D+03 -.497646314717684D+01 0.804301802157488D+02 0.185897912715332D+02
 0.000000000000000D+00 -.000000000000000D+00 0.000000000000000D+00 -.000000000000000D+00
 0.347220007514854D+03 0.000000000000000D+00 0.000000000000000D+00 0.347220007514854D+03
 0.422063036380139D+03 0.000000000000000D+00 0.000000000000000D+00 -.422063036380139D+03
 0.280186352411985D+03 -.667695279376645D+02 -.101301087814256D+03 0.235518705160679D+03
 0.128318067089830D+03 0.784284419208983D+02 -.232752382598882D+02 -.988573169951317D+02
 0.156798410469022D+03 0.125299366806072D+02 0.180503045898762D+02 -.155251179437081D+03
 0.119406347191980D+03 -.837796668925587D+00 0.748087037914311D+02 0.185897912715332D+02
 0.845738667321754D+02 -.233510539949155D+02 0.317173176928368D+02 -.748430288652855D+02
-.226699350828D-07 0.000000000000D+00 0.000000000000D+00 0.510120331399D-06 0.000000000000D+00  7 -2 2 23 -11 11 23 21 2 0.14788007D-01 0.18697199D+00 0.34648538D+05 0.34648538D+05 0.34648538D+05 0.11615753D+01  1  2 14  2  7  2        2 -.240807607650D-05 0.100000000000D+01
  </mgrwgt>
  </event>
  <event>
  8     66 0.53686478E-06 0.30198395E+03 0.75467711E-02 0.96324311E-01
       -2 -1    0    0    0  501 0.00000000E+00 0.00000000E+00 0.44759109E+02 0.44760253E+02 0.32000000E+00 0.0000E+00 0.9000E+01
        2 -1    0    0  501    0 0.00000000E+00 0.00000000E+00 -.23329840E+04 0.23329840E+04 0.32000000E+00 0.0000E+00 0.9000E+01
       25  2    1    2    0    0 -.12905352E+03 0.20317135E+03 -.13705842E+04 0.14235330E+04 0.30001982E+03 0.0000E+00 0.0000E+00
       23  2    1    2    0    0 0.12905352E+03 -.20317135E+03 -.91764074E+03 0.95421127E+03 0.10257297E+03 0.0000E+00 0.0000E+00
       23  1    3    3    0    0 -.82378429E+02 0.21202525E+03 -.63240553E+03 0.67822778E+03 0.91188000E+02 0.0000E+00 0.9000E+01
      -11  1    4    4    0    0 0.13404315E+03 -.14411533E+03 -.61172375E+03 0.64260621E+03 0.51099893E-03 0.0000E+00 0.9000E+01
       11  1    4    4    0    0 -.49896259E+01 -.59056021E+02 -.30591700E+03 0.31160507E+03 0.51099893E-03 0.0000E+00 0.9000E+01
       23  1    3    3    0    0 -.46675091E+02 -.88538944E+01 -.73817862E+03 0.74530523E+03 0.91188000E+02 0.0000E+00 0.9000E+01
#aMCatNLO 1  0  0  2  1 0.21745729D+03 0.00000000D+00  -5  7  0 0.00000000D+00 0.00000000D+00 0.00000000D+00 0.00000000D+00 0.00000000D+00
  <mgrwgt>
 0.2331765151D-03    3    2    0
 0.323146517324577D+03 0.000000000000000D+00 0.000000000000000D+00 0.323146517324577D+03
 0.323146517324577D+03 0.000000000000000D+00 0.000000000000000D+00 -.323146517324577D+03
 0.256178122963066D+03 -.823784288136354D+02 0.212025245418605D+03 0.746395948023384D+02
 0.198349225256674D+03 0.134043145396700D+03 -.144115329576422D+03 0.246093907515237D+02
 0.632998960992881D+02 -.498962569410360D+01 -.590560214527423D+02 -.222343610609041D+02
 0.128465790330124D+03 -.466750908889613D+02 -.885389438943997D+01 -.770146244929580D+02
 0.000000000000000D+00 0.000000000000000D+00 -.000000000000000D+00 0.000000000000000D+00
 0.541781979827526D+03 0.000000000000000D+00 0.000000000000000D+00 0.541781979827526D+03
 0.399812232672315D+03 0.000000000000000D+00 0.000000000000000D+00 -.399812232672315D+03
 0.303526443821346D+03 -.173732704208693D+03 0.219223468476598D+03 0.746395948023384D+02
 0.160505013771577D+03 0.754714078687879D+02 -.139500193286446D+03 0.246093907515237D+02
 0.668997880350413D+02 -.262406543735577D+02 -.573815552716575D+02 -.222343610609041D+02
 0.150964905333197D+03 -.922834175676537D+02 -.526020479674859D+01 -.770146244929580D+02
 0.259698061538680D+03 0.216785368281116D+03 -.170815151217460D+02 0.141969747155211D+03
0.366104195885D-05 0.000000000000D+00 0.000000000000D+00 0.521724378166D-08 0.000000000000D+00  7 -2 2 23 -11 11 23 21 0 0.68861065D-02 0.35892071D+00 0.91194308D+05 0.91194308D+05 0.91194308D+05 0.11250220D+01  1  2  2  2  7  2        2 0.230891838400D-03 0.100000000000D+01
-.202256729266D-06 0.000000000000D+00 -.140593650965D-07 0.521724378166D-08 0.000000000000D+00  7 -2 2 23 -11 11 23 21 2 0.68861065D-02 0.35892071D+00 0.91194308D+05 0.91194308D+05 0.91194308D+05 0.11250220D+01  1  2  3  2  7  2        2 -.161446602515D-04 0.100000000000D+01
0.230878652680D-06 0.000000000000D+00 0.000000000000D+00 0.521724378166D-08 0.000000000000D+00  7 -2 2 23 -11 11 23 21 2 0.68861065D-02 0.35892071D+00 0.91194308D+05 0.91194308D+05 0.91194308D+05 0.11250220D+01  1  2 15  2  7  2        2 0.184293369144D-04 0.100000000000D+01
  </mgrwgt>
  </event>
  <event>
  8     66 0.53686478E-06 0.19417071E+03 0.75467711E-02 0.95064971E-01
       -2 -1    0    0    0  501 0.00000000E+00 0.00000000E+00 0.53146817E+02 0.53147780E+02 0.32000000E+00 0.0000E+00 0.9000E+01
        2 -1    0    0  501    0 0.00000000E+00 0.00000000E+00 -.84339382E+03 0.84339388E+03 0.32000000E+00 0.0000E+00 0.9000E+01
       25  2    1    2    0    0 0.34728595E+02 0.45068517E+02 -.49110110E+03 0.57891276E+03 0.30120167E+03 0.0000E+00 0.0000E+00
       23  2    1    2    0    0 -.34728595E+02 -.45068517E+02 -.29914591E+03 0.31762891E+03 0.90347117E+02 0.0000E+00 0.0000E+00
       23  1    3    3    0    0 0.12115857E+03 -.52142683E+01 -.35922741E+03 0.38995663E+03 0.91188000E+02 0.0000E+00 0.9000E+01
      -13  1    4    4    0    0 0.16136781E+02 -.47694484E+02 -.19905181E+03 0.20532119E+03 0.10565837E+00 0.0000E+00 0.9000E+01
       13  1    4    4    0    0 -.50865376E+02 0.26259674E+01 -.10009410E+03 0.11230772E+03 0.10565837E+00 0.0000E+00 0.9000E+01
       23  1    3    3    0    0 -.86429971E+02 0.50282785E+02 -.13187369E+03 0.18895613E+03 0.91188000E+02 0.0000E+00 0.9000E+01
#aMCatNLO 1  0  0  2  2 0.40529271D+03 0.00000000D+00  -5  7  0 0.00000000D+00 0.00000000D+00 0.00000000D+00 0.00000000D+00 0.00000000D+00
  <mgrwgt>
 0.4278897154D-03    5    2    0
 0.211717160715640D+03 0.000000000000000D+00 0.000000000000000D+00 0.211717160715640D+03
 0.211717160715640D+03 0.000000000000000D+00 0.000000000000000D+00 -.211717160715640D+03
 0.155239979307404D+03 0.121158494540951D+03 -.521411678665222D+01 -.328273059825004D+02
 0.632423289345653D+02 0.161367778219554D+02 -.476946727257955D+02 -.382676725732290D+02
 0.509866645730945D+02 -.508655409716563D+02 0.262593750098348D+01 -.233262902985540D+01
 0.153965348616216D+03 -.864297313912498D+02 0.502828520114642D+02 0.734276075855848D+02
 0.000000000000000D+00 -.000000000000000D+00 -.000000000000000D+00 -.000000000000000D+00
 0.358326982412975D+03 0.000000000000000D+00 0.000000000000000D+00 0.358326982412975D+03
 0.922353786729615D+03 0.000000000000000D+00 0.000000000000000D+00 -.922353786729615D+03
 0.317517387887619D+03 0.292615241701095D+03 0.761625142252947D+02 -.328273059825004D+02
 0.819225831695094D+02 0.687842992742977D+02 -.227071583941534D+02 -.382676725732290D+02
 0.276722873222474D+02 -.223379939404580D+02 0.161656535336543D+02 -.233262902985540D+01
 0.159026636341088D+03 0.270842852096554D+02 0.104158761805717D+03 0.734276075855848D+02
 0.694541874422125D+03 -.366145832244590D+03 -.173779771170512D+03 -.564026804316640D+03
0.129994395092D-05 0.000000000000D+00 0.000000000000D+00 0.977625292426D-08 0.000000000000D+00  7 -2 2 23 -13 13 23 21 0 0.81765121D-02 0.12975297D+00 0.37702266D+05 0.37702266D+05 0.37702266D+05 0.11582382D+01  1  2  2  2  7  2        2 0.422828970700D-03 0.100000000000D+01
-.715619025776D-07 0.000000000000D+00 -.499212705465D-08 0.977625292426D-08 0.000000000000D+00  7 -2 2 23 -13 13 23 21 2 0.81765121D-02 0.12975297D+00 0.37702266D+05 0.37702266D+05 0.37702266D+05 0.11582382D+01  1  2  3  2  7  2        2 -.312260993682D-04 0.100000000000D+01
0.819725939469D-07 0.000000000000D+00 0.000000000000D+00 0.977625292426D-08 0.000000000000D+00  7 -2 2 23 -13 13 23 21 2 0.81765121D-02 0.12975297D+00 0.37702266D+05 0.37702266D+05 0.37702266D+05 0.11582382D+01  1  2 15  2  7  2        2 0.357688137383D-04 0.100000000000D+01
0.113606608501D-06 0.000000000000D+00 -.512383687559D-06 0.977625292426D-08 0.000000000000D+00  7 -2 2 23 -13 13 23 21 2 0.81765121D-02 0.63167046D+00 0.37702266D+05 0.37702266D+05 0.37702266D+05 0.11582382D+01  1  2  5  2  7  2        2 0.517184285528D-06 0.100000000000D+01
0.992202958923D-08 0.000000000000D+00 -.986729886206D-07 0.977625292426D-08 0.000000000000D+00  7 -2 21 23 -13 13 23 -2 2 0.81765121D-02 0.63167046D+00 0.37702266D+05 0.37702266D+05 0.37702266D+05 0.11582382D+01  1  2  5  4  7  2        2 0.846062989644D-09 0.100000000000D+01
  </mgrwgt>
  </event>
  <event>
  8     66 0.53686478E-06 0.28017658E+03 0.75467711E-02 0.93829150E-01
       -2 -1    0    0    0  501 0.00000000E+00 0.00000000E+00 0.10973154E+03 0.10973201E+03 0.32000000E+00 0.0000E+00 0.9000E+01
        2 -1    0    0  501    0 0.00000000E+00 0.00000000E+00 -.80808733E+03 0.80808740E+03 0.32000000E+00 0.0000E+00 0.9000E+01
       25  2    1    2    0    0 0.15976720E+03 0.11887704E+03 -.53223438E+03 0.64270461E+03 0.30023070E+03 0.0000E+00 0.0000E+00
       23  2    1    2    0    0 -.15976720E+03 -.11887704E+03 -.16612141E+03 0.27511479E+03 0.91839643E+02 0.0000E+00 0.0000E+00
       23  1    3    3    0    0 0.11020560E+01 -.55793836E+02 -.14481749E+03 0.18000423E+03 0.91188000E+02 0.0000E+00 0.9000E+01
      -13  1    4    4    0    0 -.14520750E+03 -.98678765E+02 -.17575209E+03 0.24841805E+03 0.10565837E+00 0.0000E+00 0.9000E+01
       13  1    4    4    0    0 -.14559694E+02 -.20198274E+02 0.96306847E+01 0.26696745E+02 0.10565837E+00 0.0000E+00 0.9000E+01
       23  1    3    3    0    0 0.15866514E+03 0.17467088E+03 -.38741689E+03 0.46270038E+03 0.91188000E+02 0.0000E+00 0.9000E+01
#aMCatNLO 1  0  0  2  2 0.39670769D+03 0.00000000D+00  -5  7  0 0.00000000D+00 0.00000000D+00 0.00000000D+00 0.00000000D+00 0.00000000D+00
  <mgrwgt>
 0.4690799277D-03    3    2    0
 0.297779973144580D+03 0.000000000000000D+00 0.000000000000000D+00 0.297779973144580D+03
 0.297779973144580D+03 0.000000000000000D+00 0.000000000000000D+00 -.297779973144580D+03
 0.107591594188363D+03 0.110205630993067D+01 -.557938359127494D+02 -.121050874438948D+02
 0.176750488327039D+03 -.145207674657945D+03 -.986788691388790D+02 0.204437552751742D+02
 0.524352540309001D+02 -.145595224253677D+02 -.201981706596817D+02 0.461466149791359D+02
 0.258782609742857D+03 0.158665140773382D+03 0.174670875711310D+03 -.544852828104153D+02
 0.000000000000000D+00 -.000000000000000D+00 -.000000000000000D+00 0.000000000000000D+00
 0.113202394983917D+04 0.000000000000000D+00 0.000000000000000D+00 0.113202394983917D+04
 0.408612178999200D+03 0.000000000000000D+00 0.000000000000000D+00 -.408612178999200D+03
 0.923461661666458D+02 0.681198779041218D+01 0.443020789542595D+01 -.121050874438948D+02
 0.137805950357650D+03 -.136224400520810D+03 -.393007976635779D+01 0.204437552751742D+02
 0.486935999200293D+02 -.116714295221855D+02 0.102632515338912D+02 0.461466149791359D+02
 0.436743999921312D+03 0.178528368594792D+03 0.384173197512812D+03 -.544852828104153D+02
 0.825046412472737D+03 -.374445263422087D+02 -.394936577175771D+03 0.723411770839974D+03
0.415591258406D-05 0.000000000000D+00 0.000000000000D+00 0.305974193671D-06 0.000000000000D+00  7 -2 2 23 -13 13 23 21 0 0.16881816D-01 0.12432117D+00 0.78498919D+05 0.78498919D+05 0.78498919D+05 0.11304532D+01  1  2  2  2  7  2        2 0.464430227097D-03 0.100000000000D+01
-.229841700046D-06 0.000000000000D+00 -.159597985997D-07 0.305974193671D-06 0.000000000000D+00  7 -2 2 23 -13 13 23 21 2 0.16881816D-01 0.12432117D+00 0.78498919D+05 0.78498919D+05 0.78498919D+05 0.11304532D+01  1  2  3  2  7  2        2 -.328237392920D-04 0.100000000000D+01
0.262400302592D-06 0.000000000000D+00 0.000000000000D+00 0.305974193671D-06 0.000000000000D+00  7 -2 2 23 -13 13 23 21 2 0.16881816D-01 0.12432117D+00 0.78498919D+05 0.78498919D+05 0.78498919D+05 0.11304532D+01  1  2 15  2  7  2        2 0.374734398531D-04 0.100000000000D+01
  </mgrwgt>
  </event>
  <event>
  8     66 0.53686478E-06 0.22035213E+03 0.75467711E-02 0.10145417E+00
       -2 -1    0    0    0  501 0.00000000E+00 0.00000000E+00 0.94142064E+02 0.94142608E+02 0.32000000E+00 0.0000E+00 0.9000E+01
        2 -1    0    0  501    0 0.00000000E+00 0.00000000E+00 -.62829925E+03 0.62829933E+03 0.32000000E+00 0.0000E+00 0.9000E+01
       25  2    1    2    0    0 -.12295509E+03 -.20841496E+02 -.42728489E+03 0.53253085E+03 0.29234296E+03 0.0000E+00 0.0000E+00
       23  2    1    2    0    0 0.12295509E+03 0.20841496E+02 -.10687229E+03 0.18991109E+03 0.95353100E+02 0.0000E+00 0.0000E+00
       23  1    3    3    0    0 -.99187476E+02 0.95013033E+02 -.18390756E+03 0.24698760E+03 0.91188000E+02 0.0000E+00 0.9000E+01
      -11  1    4    4    0    0 0.50298761E+02 -.19922325E+01 0.91128026E+01 0.51156403E+02 0.51099893E-03 0.0000E+00 0.9000E+01
       11  1    4    4    0    0 0.72656325E+02 0.22833728E+02 -.11598510E+03 0.13875469E+03 0.51099893E-03 0.0000E+00 0.9000E+01
       23  1    3    3    0    0 -.23767610E+02 -.11585453E+03 -.24337732E+03 0.28554324E+03 0.91188000E+02 0.0000E+00 0.9000E+01
#aMCatNLO 1  0  0  1  2 0.11483697D+03 0.00000000D+00  -5  7  0 0.00000000D+00 0.00000000D+00 0.00000000D+00 0.00000000D+00 0.00000000D+00
  <mgrwgt>
 0.2469405822D-03    4    2    0
 0.243206936472702D+03 0.000000000000000D+00 0.000000000000000D+00 0.243206936472702D+03
 0.243206936472702D+03 0.000000000000000D+00 0.000000000000000D+00 -.243206936472702D+03
 0.164877400383763D+03 -.991874760662270D+02 0.950130331087525D+02 -.191675360819873D+01
 0.859868557016644D+02 0.502987612325678D+02 -.199223241408743D+01 0.697123015108255D+02
 0.787147219678965D+02 0.726563251138014D+02 0.228337281091063D+02 -.198918761327395D+02
 0.156834894892080D+03 -.237676102801422D+02 -.115854528803771D+03 -.479036717698873D+02
 0.000000000000000D+00 0.000000000000000D+00 0.000000000000000D+00 -.000000000000000D+00
 0.301577342656057D+03 0.000000000000000D+00 0.000000000000000D+00 0.301577342656057D+03
 0.313681741573811D+03 0.000000000000000D+00 0.000000000000000D+00 -.313681741573811D+03
 0.150887546585897D+03 -.104897944452816D+03 0.586902690050982D+02 -.191675360819873D+01
 0.869711006197480D+02 0.471708936485914D+02 -.218877626418819D+02 0.697123015108255D+02
 0.728892600450822D+02 0.699146346415867D+02 0.539456733879706D+01 -.198918761327395D+02
 0.189038033185865D+03 -.300225680913896D+02 -.155640644700994D+03 -.479036717698873D+02
 0.115473143793275D+03 0.178349842540272D+02 0.113443570998981D+03 -.121043989177543D+02
0.207364830380D-05 0.000000000000D+00 0.000000000000D+00 0.405487987432D-09 0.000000000000D+00  7 -2 2 23 -11 11 23 21 0 0.14483443D-01 0.96661471D-01 0.48555059D+05 0.48555059D+05 0.48555059D+05 0.11484173D+01  1  2  2  1  7  1       -2 0.399586826058D-03 0.100000000000D+01
-.113838559939D-06 0.000000000000D+00 -.796335549073D-08 0.405487987432D-09 0.000000000000D+00  7 -2 2 23 -11 11 23 21 2 0.14483443D-01 0.96661471D-01 0.48555059D+05 0.48555059D+05 0.48555059D+05 0.11484173D+01  1  2  3  1  7  1       -2 -.289310965750D-04 0.100000000000D+01
0.133308836316D-06 0.000000000000D+00 0.000000000000D+00 0.405487987432D-09 0.000000000000D+00  7 -2 2 23 -11 11 23 21 2 0.14483443D-01 0.96661471D-01 0.48555059D+05 0.48555059D+05 0.48555059D+05 0.11484173D+01  1  2 15  1  7  1       -2 0.338793008258D-04 0.100000000000D+01
-.620105255429D-06 0.000000000000D+00 0.000000000000D+00 0.405487987432D-09 0.000000000000D+00  7 -2 2 23 -11 11 23 21 2 0.14483443D-01 0.96661471D-01 0.48555059D+05 0.48555059D+05 0.48555059D+05 0.11484173D+01  1  2  4  1  7  1       -2 -.157594448147D-03 0.100000000000D+01
  </mgrwgt>
  </event>
  <event>
  7     66 0.53686478E-06 0.36106129E+03 0.75467711E-02 0.88210984E-01
       -2 -1    0    0    0  501 0.00000000E+00 0.00000000E+00 0.34457048E+03 0.34457063E+03 0.32000000E+00 0.0000E+00 0.9000E+01
        2 -1    0    0  501    0 0.00000000E+00 0.00000000E+00 -.76756148E+03 0.76756154E+03 0.32000000E+00 0.0000E+00 0.9000E+01
       25  2    1    2    0    0 -.26610437E+03 0.14088276E+03 0.16003595E+03 0.45444690E+03 0.30041802E+03 0.0000E+00 0.0000E+00
       23  1    3    3    0    0 -.28013390E+03 0.14428259E+03 0.94996603E+02 0.34151438E+03 0.91188000E+02 0.0000E+00 0.9000E+01
      -13  1    1    2    0    0 0.12233596E+03 -.76090243E+02 -.23582360E+03 0.27634868E+03 0.10565837E+00 0.0000E+00 0.9000E+01
       13  1    1    2    0    0 0.14376841E+03 -.64792517E+02 -.34720334E+03 0.38133659E+03 0.10565837E+00 0.0000E+00 0.9000E+01
       23  1    3    3    0    0 0.14029525E+02 -.33998246E+01 0.65039344E+02 0.11293252E+03 0.91188000E+02 0.0000E+00 0.9000E+01
#aMCatNLO 1  0  0  1  1 0.77420036D+03 0.00000000D+00  -5  7  0 0.00000000D+00 0.00000000D+00 0.00000000D+00 0.00000000D+00 0.00000000D+00
  <mgrwgt>
 0.1424203126D-04    5    2    0
 0.514275361161823D+03 0.000000000000000D+00 0.000000000000000D+00 0.514275361161823D+03
 0.514275361161823D+03 0.000000000000000D+00 0.000000000000000D+00 -.514275361161823D+03
 0.408333620867849D+03 -.280133900733282D+03 0.144282586874161D+03 0.243163787131028D+03
 0.201822428257765D+03 0.122335813073157D+03 -.760902515804131D+02 -.141338299841267D+03
 0.269537700993855D+03 0.143768564093191D+03 -.647925113384035D+02 -.218593464472517D+03
 0.148856972204177D+03 0.140295235669348D+02 -.339982395534437D+01 0.116767977182756D+03
 0.000000000000000D+00 -.000000000000000D+00 -.000000000000000D+00 0.000000000000000D+00
 0.104528589468220D+04 0.000000000000000D+00 0.000000000000000D+00 0.104528589468220D+04
 0.101680103325024D+04 0.000000000000000D+00 0.000000000000000D+00 -.101680103325024D+04
 0.377010388161424D+03 -.490383859553874D+02 0.268864632796161D+03 0.243163787131028D+03
 0.306483714740525D+03 0.271910099539226D+03 0.454424555889995D+01 -.141338299841267D+03
 0.409473990062088D+03 0.343574705708429D+03 0.429216428464194D+02 -.218593464472517D+03
 0.194394633479057D+03 0.115034822648231D+03 0.510514570251856D+02 0.116767977182756D+03
 0.774724201489344D+03 -.681481241940500D+03 -.367381978226666D+03 0.284848614319585D+02
0.846347631051D-06 0.000000000000D+00 0.000000000000D+00 0.356043386605D-09 0.000000000000D+00  7 -2 2 23 -13 13 23 21 0 0.53010860D-01 0.11808640D+00 0.13036526D+06 0.13036526D+06 0.13036526D+06 0.11123924D+01  1  2  2  1  7  1       -2 0.131823659170D-04 0.100000000000D+01
-.398668569773D-07 0.000000000000D+00 -.325019775168D-08 0.356043386605D-09 0.000000000000D+00  7 -2 2 23 -13 13 23 21 2 0.53010860D-01 0.11808640D+00 0.13036526D+06 0.13036526D+06 0.13036526D+06 0.11123924D+01  1  2  3  1  7  1       -2 -.768373935913D-06 0.100000000000D+01
0.505022624805D-07 0.000000000000D+00 0.000000000000D+00 0.356043386605D-09 0.000000000000D+00  7 -2 2 23 -13 13 23 21 2 0.53010860D-01 0.11808640D+00 0.13036526D+06 0.13036526D+06 0.13036526D+06 0.11123924D+01  1  2 15  1  7  1       -2 0.973355442010D-06 0.100000000000D+01
0.410091286015D-06 0.000000000000D+00 -.276844412833D-06 0.356043386605D-09 0.000000000000D+00  7 -2 2 23 -13 13 23 21 2 0.18997160D+00 0.11808640D+00 0.13036526D+06 0.13036526D+06 0.13036526D+06 0.11123924D+01  1  2  5  1  7  1       -2 0.356143158023D-06 0.100000000000D+01
0.694018017792D-07 0.000000000000D+00 -.415001645298D-07 0.356043386605D-09 0.000000000000D+00  7 21 2 23 -13 13 23 2 2 0.18997160D+00 0.11808640D+00 0.13036526D+06 0.13036526D+06 0.13036526D+06 0.11123924D+01  1  2  5  3  7  1       -2 0.498540681072D-06 0.100000000000D+01
  </mgrwgt>
  </event>
  <event>
  8     66 0.53686478E-06 0.36116360E+03 0.75467711E-02 0.98090871E-01
       -2 -1    0    0    0  502 0.00000000E+00 0.00000000E+00 0.15582920E+03 0.15582953E+03 0.32000000E+00 0.0000E+00 0.9000E+01
        2 -1    0    0  501    0 0.00000000E+00 0.00000000E+00 -.14423562E+04 0.14423563E+04 0.32000000E+00 0.0000E+00 0.9000E+01
       23  2    1    2    0    0 -.25656220E+03 0.13482218E+03 -.90530840E+02 0.31834341E+03 0.95632166E+02 0.0000E+00 0.0000E+00
       23  1    1    2    0    0 0.26248625E+03 -.17140273E+03 -.88588286E+03 0.94413008E+03 0.91188000E+02 0.0000E+00 0.9000E+01
      -11  1    3    3    0    0 -.20879200E+03 0.11343378E+03 -.11084676E+03 0.26219903E+03 0.51099893E-03 0.0000E+00 0.9000E+01
       11  1    3    3    0    0 -.47770197E+02 0.21388402E+02 0.20315924E+02 0.56144387E+02 0.51099893E-03 0.0000E+00 0.9000E+01
       23  1    1    2    0    0 -.18292131E+02 0.53619671E+02 -.25284899E+03 0.27469535E+03 0.91188000E+02 0.0000E+00 0.9000E+01
       21  1    1    2  501  502 0.12368086E+02 -.17039124E+02 -.57264344E+02 0.61016956E+02 0.75000000E+00 0.0000E+00 0.9000E+01
#aMCatNLO 2  0  0  1  2 0.21054722D+02 0.00000000D+00  -5  7  0 0.00000000D+00 0.00000000D+00 0.00000000D+00 0.00000000D+00 0.00000000D+00
  <mgrwgt>
 0.1771466287D-03    2    2    0
 0.461345314700725D+03 0.000000000000000D+00 0.000000000000000D+00 0.461345314700725D+03
 0.461345314700725D+03 0.000000000000000D+00 0.000000000000000D+00 -.461345314700725D+03
 0.399344698601843D+03 0.267793038689646D+03 -.178713733333551D+03 -.217966114120399D+03
 0.284243930788730D+03 -.204950100510345D+03 0.108140912601097D+03 0.164607446711349D+03
 0.119565259431397D+03 -.461609809581665D+02 0.191714360371558D+02 0.108616164267343D+03
 0.119536740579480D+03 -.166819572211348D+02 0.514013846952982D+02 -.552574968582924D+02
 0.000000000000000D+00 0.000000000000000D+00 -.000000000000000D+00 -.000000000000000D+00
 0.467084017466303D+03 0.000000000000000D+00 0.000000000000000D+00 0.467084017466303D+03
 0.481190107060557D+03 0.000000000000000D+00 0.000000000000000D+00 -.481190107060557D+03
 0.392558790329199D+03 0.262486245845507D+03 -.171402731477386D+03 -.217966114120399D+03
 0.289062165204303D+03 -.208792003886505D+03 0.113433782238044D+03 0.164607446711349D+03
 0.120569177670059D+03 -.477701968919940D+02 0.213884022961979D+02 0.108616164267343D+03
 0.120740687007387D+03 -.182921313789067D+02 0.536196710693781D+02 -.552574968582924D+02
 0.253433043159119D+02 0.123680863118989D+02 -.170391241262339D+02 -.141060895942543D+02
-.469573800221D-05 0.000000000000D+00 0.000000000000D+00 0.710761442418D-10 0.000000000000D+00  7 -2 2 23 -11 11 23 21 2 0.23678925D-01 0.21274704D+00 0.13043915D+06 0.13043915D+06 0.13043915D+06 0.11123727D+01  1  2  8  1  7  1       -2 -.167636999381D-03 0.100000000000D+01
0.106892694756D-04 0.000000000000D+00 0.000000000000D+00 0.710761442418D-10 0.105528316099D-11  7 -2 2 23 -11 11 23 21 2 0.23973469D-01 0.22189837D+00 0.13870066D+06 0.13870066D+06 0.13870066D+06 0.11102460D+01  1  2  1  1  7  1       -2 0.344783628050D-03 0.100000000000D+01
  </mgrwgt>
  </event>
  <event>
  8     66 0.53686478E-06 0.15968937E+03 0.75467711E-02 0.10812517E+00
       -2 -1    0    0    0  501 0.00000000E+00 0.00000000E+00 0.76720680E+03 0.76720686E+03 0.32000000E+00 0.0000E+00 0.9000E+01
        2 -1    0    0  501    0 0.00000000E+00 0.00000000E+00 -.11194772E+03 0.11194818E+03 0.32000000E+00 0.0000E+00 0.9000E+01
       25  2    1    2    0    0 0.60446485E+02 -.39419465E+02 0.11831920E+03 0.32941902E+03 0.29884743E+03 0.0000E+00 0.0000E+00
       23  2    1    2    0    0 -.60446485E+02 0.39419465E+02 0.53693987E+03 0.54973602E+03 0.93260892E+02 0.0000E+00 0.0000E+00
       23  1    3    3    0    0 0.22230784E+02 0.41814005E+02 0.16401404E+03 0.19354192E+03 0.91188000E+02 0.0000E+00 0.9000E+01
      -11  1    4    4    0    0 -.47485715E+02 0.33519796E+00 0.46022682E+03 0.46267022E+03 0.51099893E-03 0.0000E+00 0.9000E+01
       11  1    4    4    0    0 -.12960770E+02 0.39084267E+02 0.76713054E+02 0.87065803E+02 0.51099893E-03 0.0000E+00 0.9000E+01
       23  1    3    3    0    0 0.38215701E+02 -.81233470E+02 -.45694837E+02 0.13587710E+03 0.91188000E+02 0.0000E+00 0.9000E+01
#aMCatNLO 1  0  0  1  2 0.29090931D+02 0.00000000D+00  -5  7  0 0.00000000D+00 0.00000000D+00 0.00000000D+00 0.00000000D+00 0.00000000D+00
  <mgrwgt>
 0.2567771269D-03    4    2    0
 0.293065320946809D+03 0.000000000000000D+00 0.000000000000000D+00 0.293065320946809D+03
 0.293065320946809D+03 0.000000000000000D+00 0.000000000000000D+00 -.293065320946809D+03
 0.106941462248346D+03 0.222307840539994D+02 0.418140053186611D+02 0.296412922014169D+02
 0.179466907600099D+03 -.474857145595278D+02 0.335197971489169D+00 0.173070406131821D+03
 0.448320105040482D+02 -.129607704542437D+02 0.390842666608055D+02 0.177298532045401D+02
 0.254890261541124D+03 0.382157009597722D+02 -.812334699509557D+02 -.220441551537778D+03
 0.000000000000000D+00 0.000000000000000D+00 0.000000000000000D+00 -.000000000000000D+00
 0.296496272028242D+03 0.000000000000000D+00 0.000000000000000D+00 0.296496272028242D+03
 0.362336801591094D+03 0.000000000000000D+00 0.000000000000000D+00 -.362336801591094D+03
 0.104964132782007D+03 0.220656421402900D+02 0.365611687483541D+02 0.296412922014169D+02
 0.179745246815824D+03 -.477656551745901D+02 -.856915748427154D+01 0.173070406131821D+03
 0.429685299164269D+02 -.130291950244760D+02 0.369078168622651D+02 0.177298532045401D+02
 0.259174211221104D+03 0.378150810951112D+02 -.939763928626148D+02 -.220441551537778D+03
 0.719809528839735D+02 0.914126963664825D+00 0.290765647362672D+02 -.658405295628519D+02
0.116822534730D-04 0.000000000000D+00 0.000000000000D+00 0.346681155398D-07 0.000000000000D+00  7 -2 2 23 -11 11 23 21 0 0.11803186D+00 0.17222767D-01 0.25500695D+05 0.25500695D+05 0.25500695D+05 0.11739406D+01  1  2  2  1  7  1       -2 0.277035960221D-03 0.100000000000D+01
-.358110465511D-06 0.000000000000D+00 -.448629293443D-07 0.346681155398D-07 0.000000000000D+00  7 -2 2 23 -11 11 23 21 2 0.11803186D+00 0.17222767D-01 0.25500695D+05 0.25500695D+05 0.25500695D+05 0.11739406D+01  1  2  3  1  7  1       -2 -.117035816723D-04 0.100000000000D+01
0.695568560292D-06 0.000000000000D+00 0.000000000000D+00 0.346681155398D-07 0.000000000000D+00  7 -2 2 23 -11 11 23 21 2 0.11803186D+00 0.17222767D-01 0.25500695D+05 0.25500695D+05 0.25500695D+05 0.11739406D+01  1  2 15  1  7  1       -2 0.227322132082D-04 0.100000000000D+01
-.957345275387D-06 0.000000000000D+00 0.000000000000D+00 0.346681155398D-07 0.000000000000D+00  7 -2 2 23 -11 11 23 21 2 0.11803186D+00 0.17222767D-01 0.25500695D+05 0.25500695D+05 0.25500695D+05 0.11739406D+01  1  2  4  1  7  1       -2 -.312874648975D-04 0.100000000000D+01
  </mgrwgt>
  </event>
  <event>
  8     66 0.53686478E-06 0.86916202E+02 0.75467711E-02 0.10527820E+00
       -2 -1    0    0    0  501 0.00000000E+00 0.00000000E+00 0.46075259E+03 0.46075270E+03 0.32000000E+00 0.0000E+00 0.9000E+01
        2 -1    0    0  501    0 0.00000000E+00 0.00000000E+00 -.28057503E+03 0.28057521E+03 0.32000000E+00 0.0000E+00 0.9000E+01
       25  2    1    2    0    0 0.96593590E+02 0.57718239E+02 0.37864435E+03 0.49511696E+03 0.29850888E+03 0.0000E+00 0.0000E+00
       23  2    1    2    0    0 -.96593590E+02 -.57718239E+02 -.19846678E+03 0.24621095E+03 0.92569172E+02 0.0000E+00 0.0000E+00
       23  1    3    3    0    0 0.10180703E+03 -.13636177E+02 0.49233666E+02 0.14591032E+03 0.91188000E+02 0.0000E+00 0.9000E+01
      -13  1    4    4    0    0 0.61404191E+01 0.15561332E+02 -.41928404E+02 0.45142685E+02 0.10565837E+00 0.0000E+00 0.9000E+01
       13  1    4    4    0    0 -.10273401E+03 -.73279571E+02 -.15653838E+03 0.20106826E+03 0.10565837E+00 0.0000E+00 0.9000E+01
       23  1    3    3    0    0 -.52134391E+01 0.71354416E+02 0.32941068E+03 0.34920664E+03 0.91188000E+02 0.0000E+00 0.9000E+01
#aMCatNLO 1  0  0  2  1 0.36505664D+02 0.00000000D+00  -5  7  0 0.00000000D+00 0.00000000D+00 0.00000000D+00 0.00000000D+00 0.00000000D+00
  <mgrwgt>
 0.2742966633D-03    9    2    0
 0.359549412371224D+03 0.000000000000000D+00 0.000000000000000D+00 0.359549412371224D+03
 0.359549412371224D+03 0.000000000000000D+00 0.000000000000000D+00 -.359549412371224D+03
 0.138084763980212D+03 0.101807029081366D+03 -.136361765037100D+02 0.141962748443526D+02
 0.570434986966935D+02 0.614056051847653D+01 0.155614471210900D+02 -.545352695379432D+02
 0.246506309134298D+03 -.102734150774851D+03 -.732796862291073D+02 -.211757272115382D+03
 0.277464252931245D+03 -.521343882499146D+01 0.713544156117273D+02 0.252096266808973D+03
 0.000000000000000D+00 -.000000000000000D+00 -.000000000000000D+00 -.000000000000000D+00
 0.372888079925995D+03 0.000000000000000D+00 0.000000000000000D+00 0.372888079925995D+03
 0.385888069112022D+03 0.000000000000000D+00 0.000000000000000D+00 -.385888069112022D+03
 0.143057261337729D+03 0.108678640738256D+03 -.117280648565654D+02 0.141962748443526D+02
 0.576286897528814D+02 0.894335297179309D+01 0.163397275583058D+02 -.545352695379432D+02
 0.240803165303173D+03 -.908234395915231D+02 -.699723155758351D+02 -.211757272115382D+03
 0.278535732674944D+03 0.837619075102732D+01 0.751279889405373D+02 0.252096266808973D+03
 0.387512999692892D+02 -.351747448695536D+02 -.976733606644259D+01 -.129999891860270D+02
0.624752236603D-05 0.000000000000D+00 0.000000000000D+00 0.587374633706D-07 0.000000000000D+00  7 -2 2 23 -13 13 23 21 0 0.70885037D-01 0.43165411D-01 0.39239267D+05 0.39239267D+05 0.39239267D+05 0.11566697D+01  1  2  2  2  7  2        2 0.168800058798D-03 0.100000000000D+01
-.197114002352D-06 0.000000000000D+00 -.239921308960D-07 0.587374633706D-07 0.000000000000D+00  7 -2 2 23 -13 13 23 21 2 0.70885037D-01 0.43165411D-01 0.39239267D+05 0.39239267D+05 0.39239267D+05 0.11566697D+01  1  2  3  2  7  2        2 -.712526471805D-05 0.100000000000D+01
0.368502205044D-06 0.000000000000D+00 0.000000000000D+00 0.587374633706D-07 0.000000000000D+00  7 -2 2 23 -13 13 23 21 2 0.70885037D-01 0.43165411D-01 0.39239267D+05 0.39239267D+05 0.39239267D+05 0.11566697D+01  1  2 15  2  7  2        2 0.133205948273D-04 0.100000000000D+01
0.149779192477D-04 0.000000000000D+00 0.000000000000D+00 0.587374633706D-07 0.000000000000D+00  7 -2 2 23 -13 13 23 21 2 0.70885037D-01 0.47083040D-01 0.46350302D+05 0.46350302D+05 0.46350302D+05 0.11502021D+01  1  2 12  2  7  2        2 0.486445578500D-03 0.100000000000D+01
-.141457595604D-04 0.000000000000D+00 0.000000000000D+00 0.587374633706D-07 0.000000000000D+00  7 -2 2 23 -13 13 23 21 2 0.70885037D-01 0.43165411D-01 0.39239267D+05 0.39239267D+05 0.39239267D+05 0.11566697D+01  1  2  4  2  7  2        2 -.511340038268D-03 0.100000000000D+01
-.361146329608D-04 0.000000000000D+00 -.873929766237D-05 0.587374633706D-07 0.000000000000D+00  7 -2 2 23 -13 13 23 21 2 0.70885037D-01 0.47831391D-01 0.39239267D+05 0.39239267D+05 0.39239267D+05 0.11566697D+01  1  2  5  2  7  2        2 -.116864515831D-02 0.100000000000D+01
0.368631362179D-04 0.000000000000D+00 0.869346241107D-05 0.587374633706D-07 0.000000000000D+00  7 -2 2 23 -13 13 23 21 2 0.70885037D-01 0.43165411D-01 0.39239267D+05 0.39239267D+05 0.39239267D+05 0.11566697D+01  1  2  6  2  7  2        2 0.133252635914D-02 0.100000000000D+01
0.215183445293D-06 0.000000000000D+00 0.000000000000D+00 0.587374633706D-07 0.000000000000D+00  7 -2 21 23 -13 13 23 -2 2 0.70885037D-01 0.47083040D-01 0.46350302D+05 0.46350302D+05 0.46350302D+05 0.11502021D+01  1  2 12  4  7  2        2 0.246210532071D-04 0.100000000000D+01
-.569665656371D-06 0.000000000000D+00 -.145175026868D-06 0.587374633706D-07 0.000000000000D+00  7 -2 21 23 -13 13 23 -2 2 0.70885037D-01 0.47831391D-01 0.39239267D+05 0.39239267D+05 0.39239267D+05 0.11566697D+01  1  2  5  4  7  2        2 -.643065198369D-04 0.100000000000D+01
  </mgrwgt>
  </event>
  <event>
  8     66 0.53686478E-06 0.10951550E+03 0.75467711E-02 0.10139552E+00
       -2 -1    0    0    0  501 0.00000000E+00 0.00000000E+00 0.26958452E+02 0.26960351E+02 0.32000000E+00 0.0000E+00 0.9000E+01
        2 -1    0    0  501    0 0.00000000E+00 0.00000000E+00 -.26788594E+04 0.26788594E+04 0.32000000E+00 0.0000E+00 0.9000E+01
       25  2    1    2    0    0 0.25282777E+02 0.16373875E+03 -.19145674E+04 0.19448986E+04 0.29935391E+03 0.0000E+00 0.0000E+00
       23  2    1    2    0    0 -.25282777E+02 -.16373875E+03 -.73733354E+03 0.76092113E+03 0.88829146E+02 0.0000E+00 0.0000E+00
       23  1    3    3    0    0 0.32007159E+02 -.44575874E+02 -.82482799E+03 0.83166575E+03 0.91188000E+02 0.0000E+00 0.9000E+01
      -13  1    4    4    0    0 -.18625019E+01 -.90407704E+02 -.21949865E+03 0.23739564E+03 0.10565837E+00 0.0000E+00 0.9000E+01
       13  1    4    4    0    0 -.23420276E+02 -.73331049E+02 -.51783489E+03 0.52352549E+03 0.10565837E+00 0.0000E+00 0.9000E+01
       23  1    3    3    0    0 -.67243818E+01 0.20831463E+03 -.10897394E+04 0.11132329E+04 0.91188000E+02 0.0000E+00 0.9000E+01
#aMCatNLO 1  0  0  1  2 0.69763053D+02 0.00000000D+00  -5  7  0 0.00000000D+00 0.00000000D+00 0.00000000D+00 0.00000000D+00 0.00000000D+00
  <mgrwgt>
 0.3766863825D-03    9    2    0
 0.268738713253452D+03 0.000000000000000D+00 0.000000000000000D+00 0.268738713253452D+03
 0.268738713253452D+03 0.000000000000000D+00 0.000000000000000D+00 -.268738713253452D+03
 0.117168674031693D+03 0.320071592262994D+02 -.445758726919710D+02 -.490079601937959D+02
 0.112118502997255D+03 -.186247179255887D+01 -.904077295041765D+02 0.662837262008332D+02
 0.805964180675072D+02 -.234203059090575D+02 -.733310255780664D+02 -.238711659561813D+02
 0.227593831410449D+03 -.672438152468302D+01 0.208314627774214D+03 0.659539994914402D+01
 0.000000000000000D+00 0.000000000000000D+00 -.000000000000000D+00 0.000000000000000D+00
 0.321976711383790D+03 0.000000000000000D+00 0.000000000000000D+00 0.321976711383790D+03
 0.294857923660143D+03 0.000000000000000D+00 0.000000000000000D+00 -.294857923660143D+03
 0.111319247952056D+03 0.203548166473075D+02 -.355052798539763D+02 -.490079601937959D+02
 0.106041584397432D+03 -.129881192811228D+02 -.817471346286220D+02 0.662837262008332D+02
 0.778246170987134D+02 -.314994032961247D+02 -.670419723340677D+02 -.238711659561813D+02
 0.246800590537251D+03 -.309173728832834D+02 0.227147302205073D+03 0.659539994914402D+01
 0.748485950584797D+02 0.550500788132234D+02 -.428529153884068D+02 0.271187877236467D+02
0.340406076358D-05 0.000000000000D+00 0.000000000000D+00 0.351026691152D-07 0.000000000000D+00  7 -2 2 23 -13 13 23 21 0 0.41476016D-02 0.41213236D+00 0.62833546D+05 0.62833546D+05 0.62833546D+05 0.11386688D+01  1  2  2  1  7  1       -2 0.293195872481D-03 0.100000000000D+01
-.188000085022D-06 0.000000000000D+00 -.130724896419D-07 0.351026691152D-07 0.000000000000D+00  7 -2 2 23 -13 13 23 21 2 0.41476016D-02 0.41213236D+00 0.62833546D+05 0.62833546D+05 0.62833546D+05 0.11386688D+01  1  2  3  1  7  1       -2 -.209948834644D-04 0.100000000000D+01
0.216091070438D-06 0.000000000000D+00 0.000000000000D+00 0.351026691152D-07 0.000000000000D+00  7 -2 2 23 -13 13 23 21 2 0.41476016D-02 0.41213236D+00 0.62833546D+05 0.62833546D+05 0.62833546D+05 0.11386688D+01  1  2 15  1  7  1       -2 0.241319403713D-04 0.100000000000D+01
0.269093073960D-05 0.000000000000D+00 0.000000000000D+00 0.351026691152D-07 0.000000000000D+00  7 -2 2 23 -13 13 23 21 2 0.51394779D-02 0.41213236D+00 0.82160240D+05 0.82160240D+05 0.82160240D+05 0.11287930D+01  1  2 12  1  7  1       -2 0.213525606815D-03 0.100000000000D+01
-.270497815775D-05 0.000000000000D+00 0.000000000000D+00 0.351026691152D-07 0.000000000000D+00  7 -2 2 23 -13 13 23 21 2 0.41476016D-02 0.41213236D+00 0.62833546D+05 0.62833546D+05 0.62833546D+05 0.11386688D+01  1  2  4  1  7  1       -2 -.302078061237D-03 0.100000000000D+01
-.511702264365D-05 0.000000000000D+00 -.173200270620D-05 0.351026691152D-07 0.000000000000D+00  7 -2 2 23 -13 13 23 21 2 0.56380473D-02 0.41213236D+00 0.62833546D+05 0.62833546D+05 0.62833546D+05 0.11386688D+01  1  2  5  1  7  1       -2 -.362544841024D-03 0.100000000000D+01
0.546759645349D-05 0.000000000000D+00 0.165346614739D-05 0.351026691152D-07 0.000000000000D+00  7 -2 2 23 -13 13 23 21 2 0.41476016D-02 0.41213236D+00 0.62833546D+05 0.62833546D+05 0.62833546D+05 0.11386688D+01  1  2  6  1  7  1       -2 0.610593076904D-03 0.100000000000D+01
0.812017352013D-07 0.000000000000D+00 0.000000000000D+00 0.351026691152D-07 0.000000000000D+00  7 21 2 23 -13 13 23 2 2 0.51394779D-02 0.41213236D+00 0.82160240D+05 0.82160240D+05 0.82160240D+05 0.11287930D+01  1  2 12  3  7  1       -2 0.105125625984D-03 0.100000000000D+01
-.160880738447D-06 0.000000000000D+00 -.680765521689D-07 0.351026691152D-07 0.000000000000D+00  7 21 2 23 -13 13 23 2 2 0.56380473D-02 0.41213236D+00 0.62833546D+05 0.62833546D+05 0.62833546D+05 0.11386688D+01  1  2  5  3  7  1       -2 -.184267954341D-03 0.100000000000D+01
  </mgrwgt>
  </event>
  <event>
  8     66 0.53686478E-06 0.98002822E+02 0.75467711E-02 0.10349383E+00
       -2 -1    0    0    0  501 0.00000000E+00 0.00000000E+00 0.26419226E+03 0.26419246E+03 0.32000000E+00 0.0000E+00 0.9000E+01
        2 -1    0    0  501    0 0.00000000E+00 0.00000000E+00 -.19316085E+03 0.19316111E+03 0.32000000E+00 0.0000E+00 0.9000E+01
       25  2    1    2    0    0 0.71425636E+02 -.66541727E+02 0.70903215E+02 0.32329305E+03 0.29993617E+03 0.0000E+00 0.0000E+00
       23  2    1    2    0    0 -.71425636E+02 0.66541727E+02 0.12820336E+00 0.13406052E+03 0.91884624E+02 0.0000E+00 0.0000E+00
       23  1    3    3    0    0 0.62799092E+02 0.44147284E+02 0.12222955E+03 0.17072792E+03 0.91188000E+02 0.0000E+00 0.9000E+01
      -13  1    4    4    0    0 -.57510479E+02 0.86401053E+02 -.15886761E+02 0.10499999E+03 0.10565837E+00 0.0000E+00 0.9000E+01
       13  1    4    4    0    0 -.13915157E+02 -.19859325E+02 0.16014964E+02 0.29060534E+02 0.10565837E+00 0.0000E+00 0.9000E+01
       23  1    3    3    0    0 0.86265438E+01 -.11068901E+03 -.51326333E+02 0.15256513E+03 0.91188000E+02 0.0000E+00 0.9000E+01
#aMCatNLO 1  0  0  2  1 0.90833652D+02 0.00000000D+00  -5  7  0 0.00000000D+00 0.00000000D+00 0.00000000D+00 0.00000000D+00 0.00000000D+00
  <mgrwgt>
 0.1975227986D-03    9    2    0
 0.225901983513547D+03 0.000000000000000D+00 0.000000000000000D+00 0.225901983513547D+03
 0.225901983513547D+03 0.000000000000000D+00 0.000000000000000D+00 -.225901983513547D+03
 0.153608398585754D+03 0.627990948969345D+02 0.441472774456792D+02 0.968895265048808D+02
 0.108787513611081D+03 -.575105430949790D+02 0.864011969471718D+02 -.325897793287682D+02
 0.268995495636112D+02 -.139151008440278D+02 -.198594620769121D+02 0.116429163546510D+02
 0.162508505266648D+03 0.862654904207229D+01 -.110689012315939D+03 -.759426635307636D+02
 0.000000000000000D+00 0.000000000000000D+00 -.000000000000000D+00 -.000000000000000D+00
 0.246297180041648D+03 0.000000000000000D+00 0.000000000000000D+00 0.246297180041648D+03
 0.360355549555690D+03 0.000000000000000D+00 0.000000000000000D+00 -.360355549555690D+03
 0.154228412762852D+03 0.414181385141998D+02 0.660916743245858D+02 0.968895265048808D+02
 0.131474691295178D+03 -.741980721173058D+02 0.103528483175112D+03 -.325897793287682D+02
 0.265303766299351D+02 -.176261025155701D+02 -.160506664346193D+02 0.116429163546510D+02
 0.148610936565584D+03 -.129824040473706D+02 -.885106104594472D+02 -.759426635307636D+02
 0.145808312343790D+03 0.633884401660466D+02 -.650588806056316D+02 -.114058369514043D+03
0.180119815798D-05 0.000000000000D+00 0.000000000000D+00 0.107651716272D-06 0.000000000000D+00  7 -2 2 23 -13 13 23 21 0 0.40644999D-01 0.29717089D-01 0.38202658D+05 0.38202658D+05 0.38202658D+05 0.11577199D+01  1  2  2  2  7  2        2 0.220365317043D-03 0.100000000000D+01
-.975166022402D-07 0.000000000000D+00 -.691707519300D-08 0.107651716272D-06 0.000000000000D+00  7 -2 2 23 -13 13 23 21 2 0.40644999D-01 0.29717089D-01 0.38202658D+05 0.38202658D+05 0.38202658D+05 0.11577199D+01  1  2  3  2  7  2        2 -.159906941829D-04 0.100000000000D+01
0.114796114922D-06 0.000000000000D+00 0.000000000000D+00 0.107651716272D-06 0.000000000000D+00  7 -2 2 23 -13 13 23 21 2 0.40644999D-01 0.29717089D-01 0.38202658D+05 0.38202658D+05 0.38202658D+05 0.11577199D+01  1  2 15  2  7  2        2 0.188241748065D-04 0.100000000000D+01
0.156737876987D-05 0.000000000000D+00 0.000000000000D+00 0.107651716272D-06 0.000000000000D+00  7 -2 2 23 -13 13 23 21 2 0.40644999D-01 0.48084201D-01 0.59971355D+05 0.59971355D+05 0.59971355D+05 0.11404130D+01  1  2 12  2  7  2        2 0.147249464907D-03 0.100000000000D+01
-.216193342926D-05 0.000000000000D+00 0.000000000000D+00 0.107651716272D-06 0.000000000000D+00  7 -2 2 23 -13 13 23 21 2 0.40644999D-01 0.29717089D-01 0.38202658D+05 0.38202658D+05 0.38202658D+05 0.11577199D+01  1  2  4  2  7  2        2 -.354512108880D-03 0.100000000000D+01
-.234166773192D-05 0.000000000000D+00 -.686036161200D-06 0.107651716272D-06 0.000000000000D+00  7 -2 2 23 -13 13 23 21 2 0.40644999D-01 0.50745449D-01 0.38202658D+05 0.38202658D+05 0.38202658D+05 0.11577199D+01  1  2  5  2  7  2        2 -.213995186130D-03 0.100000000000D+01
0.243890749876D-05 0.000000000000D+00 0.598314472218D-06 0.107651716272D-06 0.000000000000D+00  7 -2 2 23 -13 13 23 21 2 0.40644999D-01 0.29717089D-01 0.38202658D+05 0.38202658D+05 0.38202658D+05 0.11577199D+01  1  2  6  2  7  2        2 0.399930094539D-03 0.100000000000D+01
0.857567727517D-07 0.000000000000D+00 0.000000000000D+00 0.107651716272D-06 0.000000000000D+00  7 -2 21 23 -13 13 23 -2 2 0.40644999D-01 0.48084201D-01 0.59971355D+05 0.59971355D+05 0.59971355D+05 0.11404130D+01  1  2 12  4  7  2        2 0.275216681096D-04 0.100000000000D+01
-.106148810841D-06 0.000000000000D+00 -.408553607390D-07 0.107651716272D-06 0.000000000000D+00  7 -2 21 23 -13 13 23 -2 2 0.40644999D-01 0.50745449D-01 0.38202658D+05 0.38202658D+05 0.38202658D+05 0.11577199D+01  1  2  5  4  7  2        2 -.318699316216D-04 0.100000000000D+01
  </mgrwgt>
  </event>
  <event>
  9     66 0.53686478E-06 0.22387767E+03 0.75467711E-02 0.10451455E+00
       21 -1    0    0  502  501 0.00000000E+00 0.00000000E+00 0.33326341E+02 0.33334779E+02 0.75000000E+00 0.0000E+00 0.9000E+01
        2 -1    0    0  501    0 0.00000000E+00 0.00000000E+00 -.16950942E+04 0.16950942E+04 0.32000000E+00 0.0000E+00 0.9000E+01
       25  2    1    2    0    0 -.44060285E+02 -.11152645E+03 -.11163915E+04 0.11621640E+04 0.29985947E+03 0.0000E+00 0.0000E+00
       23  2    1    2    0    0 0.37823131E+02 0.10861626E+03 -.50891916E+03 0.52916244E+03 0.88238880E+02 0.0000E+00 0.0000E+00
       23  1    3    3    0    0 -.12206509E+03 -.11900976E+03 -.81629649E+03 0.83887926E+03 0.91188000E+02 0.0000E+00 0.9000E+01
      -13  1    4    4    0    0 -.18106535E+02 0.94235122E+01 -.17866270E+03 0.17982497E+03 0.10565837E+00 0.0000E+00 0.9000E+01
       13  1    4    4    0    0 0.55929667E+02 0.99192746E+02 -.33025646E+03 0.34933747E+03 0.10565837E+00 0.0000E+00 0.9000E+01
       23  1    3    3    0    0 0.78004803E+02 0.74833024E+01 -.30009505E+03 0.32328476E+03 0.91188000E+02 0.0000E+00 0.9000E+01
        2  1    1    2  502    0 0.62371540E+01 0.29101959E+01 -.36457169E+02 0.37102546E+02 0.32000000E+00 0.0000E+00 0.9000E+01
#aMCatNLO 2  0  0  1  1 0.68826833D+01 0.00000000D+00  -5  7  0 0.00000000D+00 0.00000000D+00 0.00000000D+00 0.00000000D+00 0.00000000D+00
  <mgrwgt>
 0.8879498292D-04    1    2    0
 0.233935352146118D+03 0.000000000000000D+00 0.000000000000000D+00 0.233935352146118D+03
 0.233935352146118D+03 0.000000000000000D+00 0.000000000000000D+00 -.233935352146118D+03
 0.194446042068799D+03 -.119457442799547D+03 -.117793056540791D+03 -.367250203919942D+02
 0.292276690490555D+02 -.177158315438632D+02 0.960573247885594D+01 -.211692195013239D+02
 0.116938135982778D+03 0.574794180619314D+02 0.999159279256207D+02 0.196837875712634D+02
 0.127258857191603D+03 0.796938562814790D+02 0.827139613631393D+01 0.382104523220547D+02
 0.000000000000000D+00 0.000000000000000D+00 0.000000000000000D+00 -.000000000000000D+00
 0.236244472679378D+03 0.000000000000000D+00 0.000000000000000D+00 0.236244472679378D+03
 0.239146223046493D+03 0.000000000000000D+00 0.000000000000000D+00 -.239146223046493D+03
 0.196792242636789D+03 -.122065087815165D+03 -.119009758557443D+03 -.367250203919942D+02
 0.294072514802296D+02 -.181066395609630D+02 0.942338522695573D+01 -.211692195013239D+02
 0.115563048169321D+03 0.559297728005133D+02 0.991928783911286D+02 0.196837875712634D+02
 0.126158783648685D+03 0.780048005989453D+02 0.748329904377705D+01 0.382104523220547D+02
 0.746936979084494D+01 0.623715397666895D+01 0.291019589558124D+01 -.290175036711494D+01
0.189423825074D-07 0.000000000000D+00 0.000000000000D+00 0.218432155430D-07 0.589861589020D-11  7 21 2 23 -13 13 23 2 2 0.51277067D-02 0.26078061D+00 0.51696492D+05 0.51696492D+05 0.51696492D+05 0.11460229D+01  1  2  1  3  7  1       -2 0.887949829186D-04 0.100000000000D+01
  </mgrwgt>
  </event>
  <event>
  8     66 0.53686478E-06 0.12648622E+03 0.75467711E-02 0.10613651E+00
       -2 -1    0    0    0  501 0.00000000E+00 0.00000000E+00 0.43957379E+02 0.43958544E+02 0.32000000E+00 0.0000E+00 0.9000E+01
        2 -1    0    0  501    0 0.00000000E+00 0.00000000E+00 -.94405232E+03 0.94405237E+03 0.32000000E+00 0.0000E+00 0.9000E+01
       25  2    1    2    0    0 0.46770029E+02 -.15398241E+02 -.71622868E+03 0.77821431E+03 0.30034888E+03 0.0000E+00 0.0000E+00
       23  2    1    2    0    0 -.46770029E+02 0.15398241E+02 -.18386626E+03 0.20979660E+03 0.88222860E+02 0.0000E+00 0.0000E+00
       23  1    3    3    0    0 0.10461727E+03 -.79993654E+02 -.26391569E+03 0.30872399E+03 0.91188000E+02 0.0000E+00 0.9000E+01
      -13  1    4    4    0    0 0.13443538E+02 0.28536190E+02 -.27964874E+02 0.42155524E+02 0.10565837E+00 0.0000E+00 0.9000E+01
       13  1    4    4    0    0 -.60213567E+02 -.13137948E+02 -.15590138E+03 0.16764108E+03 0.10565837E+00 0.0000E+00 0.9000E+01
       23  1    3    3    0    0 -.57847240E+02 0.64595413E+02 -.45231299E+03 0.46949033E+03 0.91188000E+02 0.0000E+00 0.9000E+01
#aMCatNLO 1  0  0  1  2 0.25262474D+02 0.00000000D+00  -5  7  0 0.00000000D+00 0.00000000D+00 0.00000000D+00 0.00000000D+00 0.00000000D+00
  <mgrwgt>
 0.4323134156D-03    9    2    0
 0.203712217738168D+03 0.000000000000000D+00 0.000000000000000D+00 0.203712217738168D+03
 0.203712217738168D+03 0.000000000000000D+00 0.000000000000000D+00 -.203712217738168D+03
 0.165609833951174D+03 0.104617320445079D+03 -.799936333243195D+02 0.420428430033152D+02
 0.404469260331625D+02 0.134435538234851D+02 0.285362747127771D+02 0.253161156507884D+02
 0.621102346565675D+02 -.602137991107452D+02 -.131379621717695D+02 -.770542638131411D+01
 0.139257440835433D+03 -.578470751578191D+02 0.645953207833118D+02 -.596535322727895D+02
 0.000000000000000D+00 0.000000000000000D+00 -.000000000000000D+00 0.000000000000000D+00
 0.219611874743188D+03 0.000000000000000D+00 0.000000000000000D+00 0.219611874743188D+03
 0.214391277282325D+03 0.000000000000000D+00 0.000000000000000D+00 -.214391277282325D+03
 0.158715462783503D+03 0.947080234209734D+02 -.783462598626916D+02 0.420428430033152D+02
 0.399924895441734D+02 0.109858421697026D+02 0.289448575764177D+02 0.253161156507884D+02
 0.657789494349681D+02 -.641212707883872D+02 -.124883636050749D+02 -.770542638131411D+01
 0.143719986021220D+03 -.664930469709082D+02 0.660326724420841D+02 -.596535322727895D+02
 0.257962642416482D+02 0.249204521686194D+02 -.414290655073522D+01 0.522059746086283D+01
0.104189493264D-05 0.000000000000D+00 0.000000000000D+00 0.979765640302D-08 0.000000000000D+00  7 -2 2 23 -13 13 23 21 0 0.67627674D-02 0.14523891D+00 0.35946776D+05 0.35946776D+05 0.35946776D+05 0.11601184D+01  1  2  2  1  7  1       -2 0.388597741328D-03 0.100000000000D+01
-.575201288674D-07 0.000000000000D+00 -.400115087856D-08 0.979765640302D-08 0.000000000000D+00  7 -2 2 23 -13 13 23 21 2 0.67627674D-02 0.14523891D+00 0.35946776D+05 0.35946776D+05 0.35946776D+05 0.11601184D+01  1  2  3  1  7  1       -2 -.288735905397D-04 0.100000000000D+01
0.678992508102D-07 0.000000000000D+00 0.000000000000D+00 0.979765640302D-08 0.000000000000D+00  7 -2 2 23 -13 13 23 21 2 0.67627674D-02 0.14523891D+00 0.35946776D+05 0.35946776D+05 0.35946776D+05 0.11601184D+01  1  2 15  1  7  1       -2 0.340836365364D-04 0.100000000000D+01
0.168184291672D-05 0.000000000000D+00 0.000000000000D+00 0.979765640302D-08 0.000000000000D+00  7 -2 2 23 -13 13 23 21 2 0.74562825D-02 0.14523891D+00 0.41076936D+05 0.41076936D+05 0.41076936D+05 0.11548812D+01  1  2 12  1  7  1       -2 0.724570441375D-03 0.100000000000D+01
-.148506112070D-05 0.000000000000D+00 0.000000000000D+00 0.979765640302D-08 0.000000000000D+00  7 -2 2 23 -13 13 23 21 2 0.67627674D-02 0.14523891D+00 0.35946776D+05 0.35946776D+05 0.35946776D+05 0.11601184D+01  1  2  4  1  7  1       -2 -.745461590051D-03 0.100000000000D+01
-.507751963356D-05 0.000000000000D+00 -.112534005799D-05 0.979765640302D-08 0.000000000000D+00  7 -2 2 23 -13 13 23 21 2 0.76809001D-02 0.14523891D+00 0.35946776D+05 0.35946776D+05 0.35946776D+05 0.11601184D+01  1  2  5  1  7  1       -2 -.210806109052D-02 0.100000000000D+01
0.518774399709D-05 0.000000000000D+00 0.111628234861D-05 0.979765640302D-08 0.000000000000D+00  7 -2 2 23 -13 13 23 21 2 0.67627674D-02 0.14523891D+00 0.35946776D+05 0.35946776D+05 0.35946776D+05 0.11601184D+01  1  2  6  1  7  1       -2 0.260411092510D-02 0.100000000000D+01
0.267546588363D-07 0.000000000000D+00 0.000000000000D+00 0.979765640302D-08 0.000000000000D+00  7 21 2 23 -13 13 23 2 2 0.74562825D-02 0.14523891D+00 0.41076936D+05 0.41076936D+05 0.41076936D+05 0.11548812D+01  1  2 12  3  7  1       -2 0.179737430143D-03 0.100000000000D+01
-.954226626458D-07 0.000000000000D+00 -.224343163676D-07 0.979765640302D-08 0.000000000000D+00  7 21 2 23 -13 13 23 2 2 0.76809001D-02 0.14523891D+00 0.35946776D+05 0.35946776D+05 0.35946776D+05 0.11601184D+01  1  2  5  3  7  1       -2 -.616390487782D-03 0.100000000000D+01
  </mgrwgt>
  </event>
  <event>
  8     66 0.53686478E-06 0.27424761E+03 0.75467711E-02 0.92325817E-01
       -2 -1    0    0    0  501 0.00000000E+00 0.00000000E+00 0.28680335E+03 0.28680353E+03 0.32000000E+00 0.0000E+00 0.9000E+01
        2 -1    0    0  501    0 0.00000000E+00 0.00000000E+00 -.14638362E+04 0.14638363E+04 0.32000000E+00 0.0000E+00 0.9000E+01
       25  2    1    2    0    0 0.13588152E+03 0.45157523E+03 -.96613337E+02 0.56816358E+03 0.30181410E+03 0.0000E+00 0.0000E+00
       23  2    1    2    0    0 -.13588152E+03 -.45157523E+03 -.10804195E+04 0.11824762E+04 0.92518252E+02 0.0000E+00 0.0000E+00
       23  1    3    3    0    0 -.60124671E+02 0.18130494E+03 -.12704550E+02 0.21204508E+03 0.91188000E+02 0.0000E+00 0.9000E+01
      -13  1    4    4    0    0 -.81006239E+02 -.24694092E+03 -.70535231E+03 0.75170721E+03 0.10565837E+00 0.0000E+00 0.9000E+01
       13  1    4    4    0    0 -.54875284E+02 -.20463431E+03 -.37506723E+03 0.43076901E+03 0.10565837E+00 0.0000E+00 0.9000E+01
       23  1    3    3    0    0 0.19600619E+03 0.27027028E+03 -.83908787E+02 0.35611851E+03 0.91188000E+02 0.0000E+00 0.9000E+01
#aMCatNLO 1  0  0  2  1 0.19585295D+03 0.00000000D+00  -5  7  0 0.00000000D+00 0.00000000D+00 0.00000000D+00 0.00000000D+00 0.00000000D+00
  <mgrwgt>
 0.2172792473D-03    9    2    0
 0.647945463991089D+03 0.000000000000000D+00 0.000000000000000D+00 0.647945463991089D+03
 0.647945463991089D+03 0.000000000000000D+00 0.000000000000000D+00 -.647945463991089D+03
 0.274915792383659D+03 -.601246710600352D+02 0.181304943472725D+03 0.175433699613871D+03
 0.374835491966170D+03 -.810062731040410D+02 -.246940974364074D+03 -.270110690153937D+03
 0.241266195871642D+03 -.548752496255859D+02 -.204634252842975D+03 -.115424896847692D+03
 0.404873447760706D+03 0.196006193789662D+03 0.270270283734324D+03 0.210101887387759D+03
 0.000000000000000D+00 -.000000000000000D+00 -.000000000000000D+00 -.000000000000000D+00
 0.683042370538702D+03 0.000000000000000D+00 0.000000000000000D+00 0.683042370538702D+03
 0.100101560368810D+04 0.000000000000000D+00 0.000000000000000D+00 -.100101560368810D+04
 0.299501386035069D+03 -.428284057437828D+02 0.220849662879896D+03 0.175433699613871D+03
 0.339992680374769D+03 -.594820948780760D+02 -.197729912157719D+03 -.270110690153937D+03
 0.212347273031349D+03 -.412165026313371D+02 -.173406047940638D+03 -.115424896847692D+03
 0.458766029289876D+03 0.222011226532202D+03 0.329725993055094D+03 0.210101887387759D+03
 0.373450605495739D+03 -.784842232790058D+02 -.179439695836633D+03 -.317973233149399D+03
0.250497559345D-04 0.000000000000D+00 0.000000000000D+00 0.124577318020D-06 0.000000000000D+00  7 -2 2 23 -13 13 23 21 0 0.44123609D-01 0.22520559D+00 0.26497201D+06 0.26497201D+06 0.26497201D+06 0.10885639D+01  1  2  2  2  7  2        2 0.208102757514D-03 0.100000000000D+01
-.130205287467D-05 0.000000000000D+00 -.961976585408D-07 0.124577318020D-06 0.000000000000D+00  7 -2 2 23 -13 13 23 21 2 0.44123609D-01 0.22520559D+00 0.26497201D+06 0.26497201D+06 0.26497201D+06 0.10885639D+01  1  2  3  2  7  2        2 -.128177205204D-04 0.100000000000D+01
0.154882118242D-05 0.000000000000D+00 0.000000000000D+00 0.124577318020D-06 0.000000000000D+00  7 -2 2 23 -13 13 23 21 2 0.44123609D-01 0.22520559D+00 0.26497201D+06 0.26497201D+06 0.26497201D+06 0.10885639D+01  1  2 15  2  7  2        2 0.152469668771D-04 0.100000000000D+01
0.339571991770D-04 0.000000000000D+00 0.000000000000D+00 0.124577318020D-06 0.000000000000D+00  7 -2 2 23 -13 13 23 21 2 0.44123609D-01 0.35130773D+00 0.37892868D+06 0.37892868D+06 0.37892868D+06 0.10771260D+01  1  2 12  2  7  2        2 0.113937796942D-03 0.100000000000D+01
-.387209219219D-04 0.000000000000D+00 0.000000000000D+00 0.124577318020D-06 0.000000000000D+00  7 -2 2 23 -13 13 23 21 2 0.44123609D-01 0.22520559D+00 0.26497201D+06 0.26497201D+06 0.26497201D+06 0.10885639D+01  1  2  4  2  7  2        2 -.381178034427D-03 0.100000000000D+01
-.425215768287D-04 0.000000000000D+00 -.836937711903D-05 0.124577318020D-06 0.000000000000D+00  7 -2 2 23 -13 13 23 21 2 0.44123609D-01 0.35354872D+00 0.26497201D+06 0.26497201D+06 0.26497201D+06 0.10885639D+01  1  2  5  2  7  2        2 -.145951391955D-03 0.100000000000D+01
0.426673095655D-04 0.000000000000D+00 0.758480770450D-05 0.124577318020D-06 0.000000000000D+00  7 -2 2 23 -13 13 23 21 2 0.44123609D-01 0.22520559D+00 0.26497201D+06 0.26497201D+06 0.26497201D+06 0.10885639D+01  1  2  6  2  7  2        2 0.420027220097D-03 0.100000000000D+01
0.174868955070D-05 0.000000000000D+00 0.000000000000D+00 0.124577318020D-06 0.000000000000D+00  7 -2 21 23 -13 13 23 -2 2 0.44123609D-01 0.35130773D+00 0.37892868D+06 0.37892868D+06 0.37892868D+06 0.10771260D+01  1  2 12  4  7  2        2 0.850596199600D-06 0.100000000000D+01
-.187941252932D-05 0.000000000000D+00 -.435654571466D-06 0.124577318020D-06 0.000000000000D+00  7 -2 21 23 -13 13 23 -2 2 0.44123609D-01 0.35354872D+00 0.26497201D+06 0.26497201D+06 0.26497201D+06 0.10885639D+01  1  2  5  4  7  2        2 -.938943436723D-06 0.100000000000D+01
  </mgrwgt>
  </event>
  <event>
  8     66 0.53686478E-06 0.21162368E+03 0.75467711E-02 0.94279864E-01
       -2 -1    0    0    0  501 0.00000000E+00 0.00000000E+00 0.79375280E+02 0.79375925E+02 0.32000000E+00 0.0000E+00 0.9000E+01
        2 -1    0    0  501    0 0.00000000E+00 0.00000000E+00 -.77162545E+03 0.77162552E+03 0.32000000E+00 0.0000E+00 0.9000E+01
       25  2    1    2    0    0 0.90041816E+02 -.13388204E+02 -.28279976E+03 0.42174141E+03 0.29933818E+03 0.0000E+00 0.0000E+00
       23  2    1    2    0    0 -.90041816E+02 0.13388204E+02 -.40945042E+03 0.42926003E+03 0.91256555E+02 0.0000E+00 0.0000E+00
       23  1    3    3    0    0 0.11012786E+03 -.98045201E+02 -.22236977E+03 0.28196555E+03 0.91188000E+02 0.0000E+00 0.9000E+01
      -11  1    4    4    0    0 -.79987836E+01 0.37488763E+02 -.18812191E+03 0.19198761E+03 0.51099893E-03 0.0000E+00 0.9000E+01
       11  1    4    4    0    0 -.82043033E+02 -.24100559E+02 -.22132850E+03 0.23727242E+03 0.51099893E-03 0.0000E+00 0.9000E+01
       23  1    3    3    0    0 -.20086040E+02 0.84656997E+02 -.60429983E+02 0.13977586E+03 0.91188000E+02 0.0000E+00 0.9000E+01
#aMCatNLO 1  0  0  2  1 0.42498809D+03 0.00000000D+00  -5  7  0 0.00000000D+00 0.00000000D+00 0.00000000D+00 0.00000000D+00 0.00000000D+00
  <mgrwgt>
 0.2350599523D-03    3    2    0
 0.247483916436999D+03 0.000000000000000D+00 0.000000000000000D+00 0.247483916436999D+03
 0.247483916436999D+03 0.000000000000000D+00 0.000000000000000D+00 -.247483916436999D+03
 0.173784181292120D+03 0.110127856547941D+03 -.980452010488976D+02 0.120284698449066D+02
 0.669827484289183D+02 -.799878361527839D+01 0.374887629944665D+02 -.549299617414069D+02
 0.983992825939692D+02 -.820430328853963D+02 -.241005594135270D+02 -.486880129593377D+02
 0.155801620558991D+03 -.200860400472660D+02 0.846569974679581D+02 0.915895048558380D+02
 0.000000000000000D+00 -.000000000000000D+00 -.000000000000000D+00 0.000000000000000D+00
 0.760293722688314D+03 0.000000000000000D+00 0.000000000000000D+00 0.760293722688314D+03
 0.430209940045328D+03 0.000000000000000D+00 0.000000000000000D+00 -.430209940045328D+03
 0.188044157507057D+03 0.162015597682143D+03 0.255267673125120D+02 0.120284698449066D+02
 0.115305180691099D+03 0.181420900085506D+02 0.997439149392895D+02 -.549299617414069D+02
 0.833421098729408D+02 -.559805349699789D+02 0.379679387986717D+02 -.486880129593377D+02
 0.265694962665143D+03 0.403583841563983D+02 0.228606923058290D+03 0.915895048558380D+02
 0.538117251997401D+03 -.164535536877113D+03 -.391845544108763D+03 0.330083782642986D+03
0.117699547968D-05 0.000000000000D+00 0.000000000000D+00 0.794990913357D-07 0.000000000000D+00  7 -2 2 23 -11 11 23 21 0 0.12211636D-01 0.11871166D+00 0.44784580D+05 0.44784580D+05 0.44784580D+05 0.11515274D+01  1  2  2  2  7  2        2 0.232165459171D-03 0.100000000000D+01
-.634405328999D-07 0.000000000000D+00 -.451997255200D-08 0.794990913357D-07 0.000000000000D+00  7 -2 2 23 -11 11 23 21 2 0.12211636D-01 0.11871166D+00 0.44784580D+05 0.44784580D+05 0.44784580D+05 0.11515274D+01  1  2  3  2  7  2        2 -.165935079817D-04 0.100000000000D+01
0.745067997358D-07 0.000000000000D+00 0.000000000000D+00 0.794990913357D-07 0.000000000000D+00  7 -2 2 23 -11 11 23 21 2 0.12211636D-01 0.11871166D+00 0.44784580D+05 0.44784580D+05 0.44784580D+05 0.11515274D+01  1  2 15  2  7  2        2 0.194880011184D-04 0.100000000000D+01
  </mgrwgt>
  </event>
  <event>
  8     66 0.53686478E-06 0.15625464E+03 0.75467711E-02 0.10199765E+00
       -2 -1    0    0    0  501 0.00000000E+00 0.00000000E+00 0.38396209E+02 0.38397543E+02 0.32000000E+00 0.0000E+00 0.9000E+01
        2 -1    0    0  501    0 0.00000000E+00 0.00000000E+00 -.18100038E+04 0.18100039E+04 0.32000000E+00 0.0000E+00 0.9000E+01
       25  2    1    2    0    0 -.39996663E+02 -.12213423E+03 -.14857507E+04 0.15212836E+04 0.30055323E+03 0.0000E+00 0.0000E+00
       23  2    1    2    0    0 0.39996663E+02 0.12213423E+03 -.28585694E+03 0.32711779E+03 0.93676855E+02 0.0000E+00 0.0000E+00
       23  1    3    3    0    0 -.12136090E+03 -.13608283E+03 -.92251165E+03 0.94476981E+03 0.91188000E+02 0.0000E+00 0.9000E+01
      -11  1    4    4    0    0 -.26042441E+02 0.33140903E+02 -.12392090E+03 0.13089277E+03 0.51099893E-03 0.0000E+00 0.9000E+01
       11  1    4    4    0    0 0.66039104E+02 0.88993330E+02 -.16193604E+03 0.19622502E+03 0.51099893E-03 0.0000E+00 0.9000E+01
       23  1    3    3    0    0 0.81364241E+02 0.13948598E+02 -.56323902E+03 0.57651379E+03 0.91188000E+02 0.0000E+00 0.9000E+01
#aMCatNLO 1  0  0  1  2 0.61205635D+02 0.00000000D+00  -5  7  0 0.00000000D+00 0.00000000D+00 0.00000000D+00 0.00000000D+00 0.00000000D+00
  <mgrwgt>
 0.3311909949D-03    9    2    0
 0.263625764716301D+03 0.000000000000000D+00 0.000000000000000D+00 0.263625764716301D+03
 0.263625764716301D+03 0.000000000000000D+00 0.000000000000000D+00 -.263625764716301D+03
 0.212394221775639D+03 -.121360903358539D+03 -.136082831632969D+03 -.595738883272817D+02
 0.424904818879782D+02 -.260424412711423D+02 0.331409031057767D+02 0.537706658367081D+01
 0.143793744969487D+03 0.660391040194968D+02 0.889933304407095D+02 0.916278613180650D+02
 0.128573080799499D+03 0.813642406101846D+02 0.139485980864831D+02 -.374310395744541D+02
 0.000000000000000D+00 -.000000000000000D+00 -.000000000000000D+00 0.000000000000000D+00
 0.296601450839253D+03 0.000000000000000D+00 0.000000000000000D+00 0.296601450839253D+03
 0.295407967412212D+03 0.000000000000000D+00 0.000000000000000D+00 -.295407967412212D+03
 0.192964455261047D+03 -.102995908881905D+03 -.121502363077232D+03 -.595738883272817D+02
 0.428002738681456D+02 -.221782973731509D+02 0.362087520327769D+02 0.537706658367081D+01
 0.157186872001448D+03 0.796751939353541D+02 0.998193930618728D+02 0.916278613180650D+02
 0.137840547447826D+03 0.934342543743637D+02 0.235313102609863D+02 -.374310395744541D+02
 0.612172696729984D+02 -.479352420546621D+02 -.380570922784039D+02 0.119348342704178D+01
0.155482048319D-05 0.000000000000D+00 0.000000000000D+00 0.242469811571D-07 0.000000000000D+00  7 -2 2 23 -11 11 23 21 0 0.59072138D-02 0.27846223D+00 0.57561741D+05 0.57561741D+05 0.57561741D+05 0.11419540D+01  1  2  2  1  7  1       -2 0.237749407003D-03 0.100000000000D+01
-.854464974120D-07 0.000000000000D+00 -.597092004908D-08 0.242469811571D-07 0.000000000000D+00  7 -2 2 23 -11 11 23 21 2 0.59072138D-02 0.27846223D+00 0.57561741D+05 0.57561741D+05 0.57561741D+05 0.11419540D+01  1  2  3  1  7  1       -2 -.170384727886D-04 0.100000000000D+01
0.102804753330D-06 0.000000000000D+00 0.000000000000D+00 0.242469811571D-07 0.000000000000D+00  7 -2 2 23 -11 11 23 21 2 0.59072138D-02 0.27846223D+00 0.57561741D+05 0.57561741D+05 0.57561741D+05 0.11419540D+01  1  2 15  1  7  1       -2 0.204997986484D-04 0.100000000000D+01
0.109242479506D-05 0.000000000000D+00 0.000000000000D+00 0.242469811571D-07 0.000000000000D+00  7 -2 2 23 -11 11 23 21 2 0.69605918D-02 0.27846223D+00 0.74962195D+05 0.74962195D+05 0.74962195D+05 0.11321397D+01  1  2 12  1  7  1       -2 0.167125429211D-03 0.100000000000D+01
-.920258599613D-06 0.000000000000D+00 0.000000000000D+00 0.242469811571D-07 0.000000000000D+00  7 -2 2 23 -11 11 23 21 2 0.59072138D-02 0.27846223D+00 0.57561741D+05 0.57561741D+05 0.57561741D+05 0.11419540D+01  1  2  4  1  7  1       -2 -.183504316535D-03 0.100000000000D+01
-.264661717644D-05 0.000000000000D+00 -.924959415950D-06 0.242469811571D-07 0.000000000000D+00  7 -2 2 23 -11 11 23 21 2 0.75958510D-02 0.27846223D+00 0.57561741D+05 0.57561741D+05 0.57561741D+05 0.11419540D+01  1  2  5  1  7  1       -2 -.362347561423D-03 0.100000000000D+01
0.281811782079D-05 0.000000000000D+00 0.896474083110D-06 0.242469811571D-07 0.000000000000D+00  7 -2 2 23 -11 11 23 21 2 0.59072138D-02 0.27846223D+00 0.57561741D+05 0.57561741D+05 0.57561741D+05 0.11419540D+01  1  2  6  1  7  1       -2 0.561947244870D-03 0.100000000000D+01
0.267819023793D-07 0.000000000000D+00 0.000000000000D+00 0.242469811571D-07 0.000000000000D+00  7 21 2 23 -11 11 23 2 2 0.69605918D-02 0.27846223D+00 0.74962195D+05 0.74962195D+05 0.74962195D+05 0.11321397D+01  1  2 12  3  7  1       -2 0.638807969382D-04 0.100000000000D+01
-.743005767073D-07 0.000000000000D+00 -.314353601378D-07 0.242469811571D-07 0.000000000000D+00  7 21 2 23 -11 11 23 2 2 0.75958510D-02 0.27846223D+00 0.57561741D+05 0.57561741D+05 0.57561741D+05 0.11419540D+01  1  2  5  3  7  1       -2 -.157121331019D-03 0.100000000000D+01
  </mgrwgt>
  </event>
  <event>
  9     66 0.53686478E-06 0.33439670E+03 0.75467711E-02 0.93995051E-01
       -2 -1    0    0    0  502 0.00000000E+00 0.00000000E+00 0.45510963E+03 0.45510974E+03 0.32000000E+00 0.0000E+00 0.9000E+01
        2 -1    0    0  501    0 0.00000000E+00 0.00000000E+00 -.14560016E+04 0.14560017E+04 0.32000000E+00 0.0000E+00 0.9000E+01
       25  2    1    2    0    0 -.14972540E+03 -.44975173E+03 -.49161354E+03 0.74725061E+03 0.30332374E+03 0.0000E+00 0.0000E+00
       23  2    1    2    0    0 -.56439609E+02 0.21287789E+03 -.73796557E+03 0.77538739E+03 0.90166524E+02 0.0000E+00 0.0000E+00
       23  1    3    3    0    0 -.24452821E+02 -.19024425E+03 -.35916124E+03 0.41725635E+03 0.91188000E+02 0.0000E+00 0.9000E+01
      -11  1    4    4    0    0 -.42145300E+02 0.21020192E+03 -.60956797E+03 0.64616885E+03 0.51099893E-03 0.0000E+00 0.9000E+01
       11  1    4    4    0    0 -.14294309E+02 0.26759679E+01 -.12839760E+03 0.12921854E+03 0.51099893E-03 0.0000E+00 0.9000E+01
       23  1    3    3    0    0 -.12527257E+03 -.25950748E+03 -.13245230E+03 0.32999426E+03 0.91188000E+02 0.0000E+00 0.9000E+01
       21  1    1    2  501  502 0.20616500E+03 0.23687384E+03 0.22868711E+03 0.38847340E+03 0.75000000E+00 0.0000E+00 0.9000E+01
#aMCatNLO 2  0  0  1  2 0.31402743D+03 0.00000000D+00  -5  7  0 0.00000000D+00 0.00000000D+00 0.00000000D+00 0.00000000D+00 0.00000000D+00
  <mgrwgt>
 0.4796305390D-04    2    2    0
 0.420698370044890D+03 0.000000000000000D+00 0.000000000000000D+00 0.420698370044890D+03
 0.420698370044890D+03 0.000000000000000D+00 0.000000000000000D+00 -.420698370044890D+03
 0.170678124511974D+03 0.213404321501997D+02 -.137629966983468D+03 -.376609743195395D+02
 0.327398053100571D+03 0.275878911160880D+02 0.290322056531729D+03 -.148800191293556D+03
 0.434574259057954D+02 -.401296096219463D+01 0.144887503435297D+02 -.407740128532435D+02
 0.299863136571439D+03 -.449153623040931D+02 -.167180839891791D+03 0.227235178466339D+03
 0.000000000000000D+00 0.000000000000000D+00 0.000000000000000D+00 0.000000000000000D+00
 0.139469697798861D+04 0.000000000000000D+00 0.000000000000000D+00 0.139469697798861D+04
 0.475114039012203D+03 0.000000000000000D+00 0.000000000000000D+00 -.475114039012203D+03
 0.215695190564334D+03 -.244528211795445D+02 -.190244249422285D+03 -.376609743195395D+02
 0.260964690200207D+03 -.421452998224078D+02 0.210201917938848D+03 -.148800191293556D+03
 0.432898162592745D+02 -.142943087704333D+02 0.267596793343996D+01 -.407740128532435D+02
 0.378138104721492D+03 -.125272574846777D+03 -.259507476880709D+03 0.227235178466339D+03
 0.971723215255507D+03 0.206165004619163D+03 0.236873840430706D+03 0.919582938976409D+03
-.587224651125D-07 0.000000000000D+00 0.000000000000D+00 0.190688972050D-07 0.000000000000D+00  7 -2 2 23 -11 11 23 21 2 0.67699166D-01 0.19834505D+00 0.27962056D+06 0.27962056D+06 0.27962056D+06 0.10868195D+01  1  2 13  1  7  1       -2 -.302129611270D-06 0.100000000000D+01
0.125016550892D-04 0.000000000000D+00 0.000000000000D+00 0.190688972050D-07 0.226538762213D-11  7 -2 2 23 -11 11 23 21 2 0.70016857D-01 0.22400020D+00 0.27962056D+06 0.27962056D+06 0.27962056D+06 0.10868195D+01  1  2  1  1  7  1       -2 0.482651835076D-04 0.100000000000D+01
  </mgrwgt>
  </event>
  <event>
  8     66 0.53686478E-06 0.27669385E+03 0.75467711E-02 0.93007238E-01
       -2 -1    0    0    0  501 0.00000000E+00 0.00000000E+00 0.16034388E+04 0.16034388E+04 0.32000000E+00 0.0000E+00 0.9000E+01
        2 -1    0    0  501    0 0.00000000E+00 0.00000000E+00 -.60060959E+02 0.60061811E+02 0.32000000E+00 0.0000E+00 0.9000E+01
       25  2    1    2    0    0 -.16623067E+03 0.95669705E+02 0.60689900E+03 0.70315426E+03 0.29885480E+03 0.0000E+00 0.0000E+00
       23  2    1    2    0    0 0.16623067E+03 -.95669705E+02 0.93647879E+03 0.96034633E+03 0.92126154E+02 0.0000E+00 0.0000E+00
       23  1    3    3    0    0 -.10061558E+03 -.61577514E+02 0.35971641E+03 0.38939239E+03 0.91188000E+02 0.0000E+00 0.9000E+01
      -13  1    4    4    0    0 0.53920594E+02 0.12230906E+02 0.30299647E+03 0.30799983E+03 0.10565837E+00 0.0000E+00 0.9000E+01
       13  1    4    4    0    0 0.11231007E+03 -.10790061E+03 0.63348232E+03 0.65234650E+03 0.10565837E+00 0.0000E+00 0.9000E+01
       23  1    3    3    0    0 -.65615081E+02 0.15724722E+03 0.24718259E+03 0.31376187E+03 0.91188000E+02 0.0000E+00 0.9000E+01
#aMCatNLO 1  0  0  2  1 0.45881305D+03 0.00000000D+00  -5  7  0 0.00000000D+00 0.00000000D+00 0.00000000D+00 0.00000000D+00 0.00000000D+00
  <mgrwgt>
 0.1814090664D-03    5    2    0
 0.310330153548437D+03 0.000000000000000D+00 0.000000000000000D+00 0.310330153548437D+03
 0.310330153548437D+03 0.000000000000000D+00 0.000000000000000D+00 -.310330153548437D+03
 0.149157521261213D+03 -.100615585261483D+03 -.615775139510123D+02 -.417475542891943D+01
 0.720519738153999D+02 0.539205170218351D+02 0.122310621606671D+02 0.462002802287493D+02
 0.173164492599161D+03 0.112310149675395D+03 -.107900767683274D+03 0.756954167065306D+02
 0.226286319421100D+03 -.656150814357470D+02 0.157247219473619D+03 -.117720941506361D+03
 0.000000000000000D+00 0.000000000000000D+00 0.000000000000000D+00 -.000000000000000D+00
 0.509423092799485D+03 0.000000000000000D+00 0.000000000000000D+00 0.509423092799485D+03
 0.812029712827577D+03 0.000000000000000D+00 0.000000000000000D+00 -.812029712827577D+03
 0.272572144939882D+03 -.222748054744320D+03 -.127852252142300D+03 -.417475542891943D+01
 0.502552159758597D+02 0.185004830003494D+02 -.698948984684276D+01 0.462002802287493D+02
 0.180413573938184D+03 0.991431205229148D+01 -.163465494729937D+03 0.756954167065306D+02
 0.268593654748544D+03 -.208931803466208D+03 0.794769240622328D+02 -.117720941506361D+03
 0.549618216024592D+03 0.403265063157887D+03 0.218830312656848D+03 -.302606620028092D+03
0.266394389770D-04 0.000000000000D+00 0.000000000000D+00 0.342567933470D-07 0.000000000000D+00  7 -2 2 23 -13 13 23 21 0 0.24668295D+00 0.92402155D-02 0.76559488D+05 0.76559488D+05 0.76559488D+05 0.11313674D+01  1  2  2  2  7  2        2 0.156900602677D-03 0.100000000000D+01
-.145628506652D-05 0.000000000000D+00 -.102302459997D-06 0.342567933470D-07 0.000000000000D+00  7 -2 2 23 -13 13 23 21 2 0.24668295D+00 0.92402155D-02 0.76559488D+05 0.76559488D+05 0.76559488D+05 0.11313674D+01  1  2  3  2  7  2        2 -.109787593365D-04 0.100000000000D+01
0.168351346609D-05 0.000000000000D+00 0.000000000000D+00 0.342567933470D-07 0.000000000000D+00  7 -2 2 23 -13 13 23 21 2 0.24668295D+00 0.92402155D-02 0.76559488D+05 0.76559488D+05 0.76559488D+05 0.11313674D+01  1  2 15  2  7  2        2 0.126918071255D-04 0.100000000000D+01
0.111568628198D-04 0.000000000000D+00 -.115445065343D-04 0.342567933470D-07 0.000000000000D+00  7 -2 2 23 -13 13 23 21 2 0.24668295D+00 0.42623760D-01 0.76559488D+05 0.76559488D+05 0.76559488D+05 0.11313674D+01  1  2  5  2  7  2        2 0.137716280655D-04 0.100000000000D+01
0.191359043206D-05 0.000000000000D+00 -.213876507565D-05 0.342567933470D-07 0.000000000000D+00  7 -2 21 23 -13 13 23 -2 2 0.24668295D+00 0.42623760D-01 0.76559488D+05 0.76559488D+05 0.76559488D+05 0.11313674D+01  1  2  5  4  7  2        2 0.902378789182D-05 0.100000000000D+01
  </mgrwgt>
  </event>
  <event>
  9     66 0.53686478E-06 0.26492201E+03 0.75467711E-02 0.10164658E+00
       -2 -1    0    0    0  502 0.00000000E+00 0.00000000E+00 0.76974965E+02 0.76975630E+02 0.32000000E+00 0.0000E+00 0.9000E+01
        2 -1    0    0  501    0 0.00000000E+00 0.00000000E+00 -.20200296E+04 0.20200297E+04 0.32000000E+00 0.0000E+00 0.9000E+01
       25  2    1    2    0    0 0.50513174E+02 -.18296886E+03 -.16801934E+04 0.17173117E+04 0.30013410E+03 0.0000E+00 0.0000E+00
       23  2    1    2    0    0 -.82068919E+02 0.17533519E+03 -.14907277E+03 0.26136174E+03 0.92787566E+02 0.0000E+00 0.0000E+00
       23  1    3    3    0    0 0.48197393E+02 -.21087304E+03 -.85558211E+03 0.88720146E+03 0.91188000E+02 0.0000E+00 0.9000E+01
      -11  1    4    4    0    0 -.15018384E+02 0.90041600E+02 -.21293243E+02 0.93736032E+02 0.51099893E-03 0.0000E+00 0.9000E+01
       11  1    4    4    0    0 -.67050536E+02 0.85293592E+02 -.12777952E+03 0.16762571E+03 0.51099893E-03 0.0000E+00 0.9000E+01
       23  1    3    3    0    0 0.23157812E+01 0.27904183E+02 -.82461130E+03 0.83011027E+03 0.91188000E+02 0.0000E+00 0.9000E+01
       21  1    1    2  501  502 0.31555745E+02 0.76336659E+01 -.11378850E+03 0.11833184E+03 0.75000000E+00 0.0000E+00 0.9000E+01
#aMCatNLO 2  0  0  1  1 0.32465950D+02 0.00000000D+00  -5  7  0 0.00000000D+00 0.00000000D+00 0.00000000D+00 0.00000000D+00 0.00000000D+00
  <mgrwgt>
 0.1670016482D-03    2    2    0
 0.376789028923240D+03 0.000000000000000D+00 0.000000000000000D+00 0.376789028923240D+03
 0.376789028923240D+03 0.000000000000000D+00 0.000000000000000D+00 -.376789028923240D+03
 0.252536194387811D+03 0.587648974966327D+02 -.208316649826746D+03 -.927908312229676D+02
 0.194718277413729D+03 -.687812063900787D+01 0.920108148658958D+02 0.171469848554080D+03
 0.128014676261236D+03 -.616543068811601D+02 0.865989961097239D+02 0.713240327944289D+02
 0.178308909783704D+03 0.976753002353534D+01 0.297068388511267D+02 -.150003050125541D+03
 0.000000000000000D+00 0.000000000000000D+00 0.000000000000000D+00 -.000000000000000D+00
 0.388602930790171D+03 0.000000000000000D+00 0.000000000000000D+00 0.388602930790171D+03
 0.400123593636382D+03 0.000000000000000D+00 0.000000000000000D+00 -.400123593636382D+03
 0.252419922787901D+03 0.481973926040250D+02 -.210873040153012D+03 -.927908312229676D+02
 0.194254859684459D+03 -.150183835045585D+02 0.900415998568438D+02 0.171469848554080D+03
 0.129837932723842D+03 -.670505356114149D+02 0.852935917532054D+02 0.713240327944289D+02
 0.177764373934484D+03 0.231578116887305D+01 0.279041826064017D+02 -.150003050125541D+03
 0.344494352958667D+02 0.315557453430753D+02 0.763366593656127D+01 -.115206628462114D+02
-.723859298790D-07 0.000000000000D+00 0.000000000000D+00 0.358223177247D-06 0.000000000000D+00  7 -2 2 23 -11 11 23 21 2 0.11482217D-01 0.29264697D+00 0.70183669D+05 0.70183669D+05 0.70183669D+05 0.11345629D+01  1  2  8  1  7  1       -2 -.463413568800D-05 0.100000000000D+01
0.328612584107D-05 0.000000000000D+00 0.000000000000D+00 0.358223177247D-06 0.231688569227D-08  7 -2 2 23 -11 11 23 21 2 0.11842232D-01 0.31077061D+00 0.79067998D+05 0.79067998D+05 0.79067998D+05 0.11301896D+01  1  2  1  1  7  1       -2 0.171635783841D-03 0.100000000000D+01
  </mgrwgt>
  </event>
  <event>
  8     66 0.53686478E-06 0.30175372E+03 0.75467711E-02 0.94242600E-01
       -2 -1    0    0    0  501 0.00000000E+00 0.00000000E+00 0.78176897E+03 0.78176903E+03 0.32000000E+00 0.0000E+00 0.9000E+01
        2 -1    0    0  501    0 0.00000000E+00 0.00000000E+00 -.10754202E+04 0.10754203E+04 0.32000000E+00 0.0000E+00 0.9000E+01
       25  2    1    2    0    0 -.15482022E+03 -.44355665E+03 0.61698757E+03 0.82814606E+03 0.29058637E+03 0.0000E+00 0.0000E+00
       23  2    1    2    0    0 0.15482022E+03 0.44355665E+03 -.91063885E+03 0.10290433E+04 0.94631545E+02 0.0000E+00 0.0000E+00
       23  1    3    3    0    0 -.16687728E+02 -.33017152E+03 0.31541285E+03 0.46593158E+03 0.91188000E+02 0.0000E+00 0.9000E+01
      -11  1    4    4    0    0 0.15121689E+03 0.44835191E+03 -.90109075E+03 0.10177674E+04 0.51099893E-03 0.0000E+00 0.9000E+01
       11  1    4    4    0    0 0.36033211E+01 -.47952622E+01 -.95481044E+01 0.11275849E+02 0.51099893E-03 0.0000E+00 0.9000E+01
       23  1    3    3    0    0 -.13813249E+03 -.11338512E+03 0.30157472E+03 0.36221448E+03 0.91188000E+02 0.0000E+00 0.9000E+01
#aMCatNLO 1  0  0  2  1 0.11150844D+02 0.00000000D+00  -5  7  0 0.00000000D+00 0.00000000D+00 0.00000000D+00 0.00000000D+00 0.00000000D+00
  <mgrwgt>
 0.1751265896D-02    9    2    0
 0.916913454719731D+03 0.000000000000000D+00 0.000000000000000D+00 0.916913454719731D+03
 0.916913454719731D+03 0.000000000000000D+00 0.000000000000000D+00 -.916913454719731D+03
 0.522374570591336D+03 -.166877284607362D+02 -.330171524038703D+03 0.394040892661236D+03
 0.886441535043419D+03 0.151216894815508D+03 0.448351909073177D+03 -.749594964899662D+03
 0.989055861019837D+01 0.360332110513341D+01 -.479526224461327D+01 -.786413928160337D+01
 0.415120245194509D+03 -.138132487459905D+03 -.113385122789861D+03 0.363418211520030D+03
 0.000000000000000D+00 0.000000000000000D+00 -.000000000000000D+00 -.000000000000000D+00
 0.918990918449762D+03 0.000000000000000D+00 0.000000000000000D+00 0.918990918449762D+03
 0.932016616135192D+03 0.000000000000000D+00 0.000000000000000D+00 -.932016616135192D+03
 0.520392956032908D+03 -.169628873605287D+02 -.327013169012807D+03 0.394040892661236D+03
 0.889094097037375D+03 0.150748377702545D+03 0.453729686712066D+03 -.749594964899662D+03
 0.985979155567408D+01 0.359810950764557D+01 -.473544199118484D+01 -.786413928160337D+01
 0.414513966642065D+03 -.138351406088584D+03 -.110872310187140D+03 0.363418211520030D+03
 0.171467233169327D+02 0.967806238921992D+00 -.111087655209348D+02 -.130256976854309D+02
0.365686285449D-03 0.000000000000D+00 0.000000000000D+00 0.335207645146D-08 0.000000000000D+00  7 -2 2 23 -11 11 23 21 0 0.12027216D+00 0.16544928D+00 0.26149514D+06 0.26149514D+06 0.26149514D+06 0.10889934D+01  1  2  2  2  7  2        2 0.554747006294D-03 0.100000000000D+01
-.118935082923D-04 0.000000000000D+00 -.140433162353D-05 0.335207645146D-08 0.000000000000D+00  7 -2 2 23 -11 11 23 21 2 0.12027216D+00 0.16544928D+00 0.26149514D+06 0.26149514D+06 0.26149514D+06 0.10889934D+01  1  2  3  2  7  2        2 -.213966980874D-04 0.100000000000D+01
0.217564549986D-04 0.000000000000D+00 0.000000000000D+00 0.335207645146D-08 0.000000000000D+00  7 -2 2 23 -11 11 23 21 2 0.12027216D+00 0.16544928D+00 0.26149514D+06 0.26149514D+06 0.26149514D+06 0.10889934D+01  1  2 15  2  7  2        2 0.391403686462D-04 0.100000000000D+01
0.531084781048D-03 0.000000000000D+00 0.000000000000D+00 0.335207645146D-08 0.000000000000D+00  7 -2 2 23 -11 11 23 21 2 0.12027216D+00 0.16836016D+00 0.26754717D+06 0.26754717D+06 0.26754717D+06 0.10882497D+01  1  2 12  2  7  2        2 0.928437651610D-03 0.100000000000D+01
-.540590671887D-03 0.000000000000D+00 0.000000000000D+00 0.335207645146D-08 0.000000000000D+00  7 -2 2 23 -11 11 23 21 2 0.12027216D+00 0.16544928D+00 0.26149514D+06 0.26149514D+06 0.26149514D+06 0.10889934D+01  1  2  4  2  7  2        2 -.972535194068D-03 0.100000000000D+01
-.258841097913D-01 0.000000000000D+00 -.250221213006D-02 0.335207645146D-08 0.000000000000D+00  7 -2 2 23 -11 11 23 21 2 0.12027216D+00 0.16836286D+00 0.26149514D+06 0.26149514D+06 0.26149514D+06 0.10889934D+01  1  2  5  2  7  2        2 -.453649021298D-01 0.100000000000D+01
0.259242216146D-01 0.000000000000D+00 0.250183091312D-02 0.335207645146D-08 0.000000000000D+00  7 -2 2 23 -11 11 23 21 2 0.12027216D+00 0.16544928D+00 0.26149514D+06 0.26149514D+06 0.26149514D+06 0.10889934D+01  1  2  6  2  7  2        2 0.466382777398D-01 0.100000000000D+01
0.348453200707D-04 0.000000000000D+00 0.000000000000D+00 0.335207645146D-08 0.000000000000D+00  7 -2 21 23 -11 11 23 -2 2 0.12027216D+00 0.16836016D+00 0.26754717D+06 0.26754717D+06 0.26754717D+06 0.10882497D+01  1  2 12  4  7  2        2 0.368823607946D-04 0.100000000000D+01
-.822675696935D-04 0.000000000000D+00 -.797983411937D-05 0.335207645146D-08 0.000000000000D+00  7 -2 21 23 -11 11 23 -2 2 0.12027216D+00 0.16836286D+00 0.26149514D+06 0.26149514D+06 0.26149514D+06 0.10889934D+01  1  2  5  4  7  2        2 -.873852088644D-04 0.100000000000D+01
  </mgrwgt>
  </event>
  <event>
  8     66 0.53686478E-06 0.13921283E+03 0.75467711E-02 0.10335534E+00
       -4 -1    0    0    0  501 0.00000000E+00 0.00000000E+00 0.21800096E+03 0.21800647E+03 0.15500000E+01 0.0000E+00 0.9000E+01
        4 -1    0    0  501    0 0.00000000E+00 0.00000000E+00 -.46844730E+03 0.46844986E+03 0.15500000E+01 0.0000E+00 0.9000E+01
       25  2    1    2    0    0 -.40630118E+02 0.19210160E+03 -.27904907E+01 0.35809631E+03 0.29945175E+03 0.0000E+00 0.0000E+00
       23  2    1    2    0    0 0.40630118E+02 -.19210160E+03 -.24765585E+03 0.32836003E+03 0.89067736E+02 0.0000E+00 0.0000E+00
       23  1    3    3    0    0 0.31652433E+02 0.74467875E+02 -.10728832E+03 0.16239882E+03 0.91188000E+02 0.0000E+00 0.9000E+01
      -11  1    4    4    0    0 0.51251804E+02 -.14643182E+03 -.13249497E+03 0.20401946E+03 0.51099893E-03 0.0000E+00 0.9000E+01
       11  1    4    4    0    0 -.10621686E+02 -.45669778E+02 -.11516088E+03 0.12434057E+03 0.51099893E-03 0.0000E+00 0.9000E+01
       23  1    3    3    0    0 -.72282551E+02 0.11763372E+03 0.10449783E+03 0.19569749E+03 0.91188000E+02 0.0000E+00 0.9000E+01
#aMCatNLO 1  0  0  1  2 0.54110111D+01 0.00000000D+00  -5  7  0 0.00000000D+00 0.00000000D+00 0.00000000D+00 0.00000000D+00 0.00000000D+00
  <mgrwgt>
 0.1015015515D-04    8    2    0
 0.319569607355177D+03 0.000000000000000D+00 0.000000000000000D+00 0.319569607355177D+03
 0.319569607355177D+03 0.000000000000000D+00 0.000000000000000D+00 -.319569607355177D+03
 0.132380753549173D+03 0.316524330955125D+02 0.744678748087148D+02 -.515952678726886D+02
 0.167205471381958D+03 0.512518035169137D+02 -.146431817537304D+03 -.623590018285102D+02
 0.884200955330116D+02 -.106216856917406D+02 -.456697782478690D+02 -.749637541877622D+02
 0.251132894246212D+03 -.722825509206856D+02 0.117633720976459D+03 0.188918023888961D+03
 0.000000000000000D+00 0.000000000000000D+00 0.000000000000000D+00 -.000000000000000D+00
 0.321598172791964D+03 0.000000000000000D+00 0.000000000000000D+00 0.321598172791964D+03
 0.323209889523902D+03 0.000000000000000D+00 0.000000000000000D+00 -.323209889523902D+03
 0.131708474066984D+03 0.313771812272467D+02 0.733844099821721D+02 -.515952678726886D+02
 0.168306162873400D+03 0.509021103280346D+02 -.147808303272421D+03 -.623590018285102D+02
 0.888201465652305D+02 -.108064176030336D+02 -.463969323612525D+02 -.749637541877622D+02
 0.250327335851933D+03 -.728052070942882D+02 0.115576406764419D+03 0.188918023888961D+03
 0.564594295831771D+01 0.133233314204056D+01 0.524441888708247D+01 -.161171673193844D+01
0.193421714621D-05 0.000000000000D+00 0.000000000000D+00 0.617310795786D-07 0.000000000000D+00  7 -4 4 23 -11 11 23 21 0 0.33539231D-01 0.72069436D-01 0.59879309D+05 0.59879309D+05 0.59879309D+05 0.11404706D+01  1  2  2  1  7  1       -4 0.671816370132D-05 0.100000000000D+01
-.981472430132D-07 0.000000000000D+00 -.742790313253D-08 0.617310795786D-07 0.000000000000D+00  7 -4 4 23 -11 11 23 21 2 0.33539231D-01 0.72069436D-01 0.59879309D+05 0.59879309D+05 0.59879309D+05 0.11404706D+01  1  2  3  1  7  1       -4 -.443395875632D-06 0.100000000000D+01
0.122144214216D-06 0.000000000000D+00 0.000000000000D+00 0.617310795786D-07 0.000000000000D+00  7 -4 4 23 -11 11 23 21 2 0.33539231D-01 0.72069436D-01 0.59879309D+05 0.59879309D+05 0.59879309D+05 0.11404706D+01  1  2 15  1  7  1       -4 0.551806032987D-06 0.100000000000D+01
0.392571118022D-06 0.000000000000D+00 0.000000000000D+00 0.617310795786D-07 0.000000000000D+00  7 -4 4 23 -11 11 23 21 2 0.33941480D-01 0.72069436D-01 0.61205815D+05 0.61205815D+05 0.61205815D+05 0.11396497D+01  1  2 12  1  7  1       -4 0.172989089117D-05 0.100000000000D+01
-.413321542242D-05 0.000000000000D+00 0.000000000000D+00 0.617310795786D-07 0.000000000000D+00  7 -4 4 23 -11 11 23 21 2 0.33539231D-01 0.72069436D-01 0.59879309D+05 0.59879309D+05 0.59879309D+05 0.11404706D+01  1  2  4  1  7  1       -4 -.186724620594D-04 0.100000000000D+01
0.391250974824D-05 0.000000000000D+00 0.000000000000D+00 0.617310795786D-07 0.146054422866D-07  7 -4 4 23 -11 11 23 21 2 0.33752131D-01 0.72890394D-01 0.61205815D+05 0.61205815D+05 0.61205815D+05 0.11396497D+01  1  2 11  1  7  1       -4 0.169556572152D-04 0.100000000000D+01
0.200219088783D-07 0.000000000000D+00 0.000000000000D+00 0.617310795786D-07 0.000000000000D+00  7 21 4 23 -11 11 23 4 2 0.33941480D-01 0.72069436D-01 0.61205815D+05 0.61205815D+05 0.61205815D+05 0.11396497D+01  1  2 12  3  7  1       -4 0.187161768314D-05 0.100000000000D+01
0.156560374028D-07 0.000000000000D+00 0.000000000000D+00 0.617310795786D-07 0.172149873418D-10  7 21 4 23 -11 11 23 4 2 0.33752131D-01 0.72890394D-01 0.61205815D+05 0.61205815D+05 0.61205815D+05 0.11396497D+01  1  2 11  3  7  1       -4 0.143887756520D-05 0.100000000000D+01
  </mgrwgt>
  </event>
  <event>
  9     66 0.53686478E-06 0.19554685E+03 0.75467711E-02 0.10216290E+00
       21 -1    0    0  502  501 0.00000000E+00 0.00000000E+00 0.87172496E+02 0.87175723E+02 0.75000000E+00 0.0000E+00 0.9000E+01
        2 -1    0    0  501    0 0.00000000E+00 0.00000000E+00 -.86128337E+03 0.86128343E+03 0.32000000E+00 0.0000E+00 0.9000E+01
       25  2    1    2    0    0 -.93713607E+02 -.34430378E+02 -.47244252E+03 0.56807047E+03 0.29922305E+03 0.0000E+00 0.0000E+00
       23  2    1    2    0    0 -.35818398E+02 0.26711433E+02 -.12335901E+03 0.15986102E+03 0.91332601E+02 0.0000E+00 0.0000E+00
       23  1    3    3    0    0 -.58952735E+02 0.99611591E+02 -.25655164E+03 0.29585789E+03 0.91188000E+02 0.0000E+00 0.9000E+01
      -11  1    4    4    0    0 0.24553300E+02 0.28315123E+02 -.27193688E+02 0.46304508E+02 0.51099893E-03 0.0000E+00 0.9000E+01
       11  1    4    4    0    0 -.60371698E+02 -.16036909E+01 -.96165319E+02 0.11355652E+03 0.51099893E-03 0.0000E+00 0.9000E+01
       23  1    3    3    0    0 -.34760872E+02 -.13404197E+03 -.21589089E+03 0.27221259E+03 0.91188000E+02 0.0000E+00 0.9000E+01
        2  1    1    2  502    0 0.12953201E+03 0.77189452E+01 -.17830935E+03 0.22052766E+03 0.32000000E+00 0.0000E+00 0.9000E+01
#aMCatNLO 2  0  0  1  2 0.12976179D+03 0.00000000D+00  -5  7  0 0.00000000D+00 0.00000000D+00 0.00000000D+00 0.00000000D+00 0.00000000D+00
  <mgrwgt>
 0.6216101530D-04    1    2    0
 0.198788002097240D+03 0.000000000000000D+00 0.000000000000000D+00 0.198788002097240D+03
 0.198788002097240D+03 0.000000000000000D+00 0.000000000000000D+00 -.198788002097240D+03
 0.139955733912345D+03 -.129976675108255D+02 0.102350085248431D+03 -.250574699413166D+02
 0.525772953697675D+02 0.395473204747309D+02 0.292086481556606D+02 0.186342776781804D+02
 0.441009313589420D+02 -.437388524043307D+02 -.612505700992326D+00 -.560622634617525D+01
 0.160942043553425D+03 0.171891994404253D+02 -.130946227703099D+03 0.120294186093115D+02
 0.000000000000000D+00 0.000000000000000D+00 0.000000000000000D+00 0.000000000000000D+00
 0.275922359470563D+03 0.000000000000000D+00 0.000000000000000D+00 0.275922359470563D+03
 0.272111589826755D+03 0.000000000000000D+00 0.000000000000000D+00 -.272111589826755D+03
 0.149469122268114D+03 -.589527294891225D+02 0.996115759012107D+02 -.250574699413166D+02
 0.418550756549058D+02 0.245532887924949D+02 0.283151384062078D+02 0.186342776781804D+02
 0.606526385854868D+02 -.603716905882169D+02 -.160367361322102D+01 -.560622634617525D+01
 0.166239377392231D+03 -.347608738052883D+02 -.134041985929675D+03 0.120294186093115D+02
 0.129817735396581D+03 0.129532005090133D+03 0.771894523547795D+01 0.381076964380876D+01
0.233766111642D-07 0.000000000000D+00 0.000000000000D+00 0.274776572596D-07 0.896675559875D-12  7 21 2 23 -11 11 23 2 2 0.13411396D-01 0.13250529D+00 0.73113533D+05 0.73113533D+05 0.73113533D+05 0.11330564D+01  1  2  1  3  7  1       -2 0.621610153048D-04 0.100000000000D+01
  </mgrwgt>
  </event>
  <event>
  8     66 0.53686478E-06 0.10964550E+04 0.75467711E-02 0.83738804E-01
       -2 -1    0    0    0  501 0.00000000E+00 0.00000000E+00 0.67819806E+03 0.67819814E+03 0.32000000E+00 0.0000E+00 0.9000E+01
        2 -1    0    0  501    0 0.00000000E+00 0.00000000E+00 -.28281834E+04 0.28281834E+04 0.32000000E+00 0.0000E+00 0.9000E+01
       25  2    1    2    0    0 -.40595497E+03 0.99706741E+03 -.21532118E+04 0.24259338E+04 0.29981839E+03 0.0000E+00 0.0000E+00
       23  2    1    2    0    0 0.40595497E+03 -.99706741E+03 0.32264275E+01 0.10804478E+04 0.91728245E+02 0.0000E+00 0.0000E+00
       23  1    3    3    0    0 -.17707708E+03 0.70439925E+03 -.13289945E+04 0.15172595E+04 0.91188000E+02 0.0000E+00 0.9000E+01
      -13  1    4    4    0    0 0.38832947E+03 -.97843789E+03 0.13632465E+02 0.10527708E+04 0.10565837E+00 0.0000E+00 0.9000E+01
       13  1    4    4    0    0 0.17625498E+02 -.18629519E+02 -.10406038E+02 0.27676957E+02 0.10565837E+00 0.0000E+00 0.9000E+01
       23  1    3    3    0    0 -.22887789E+03 0.29266816E+03 -.82421725E+03 0.90867435E+03 0.91188000E+02 0.0000E+00 0.9000E+01
#aMCatNLO 1  0  0  1  2 0.68937278D+03 0.00000000D+00  -5  7  0 0.00000000D+00 0.00000000D+00 0.00000000D+00 0.00000000D+00 0.00000000D+00
  <mgrwgt>
 0.3978384568D-03    3    2    0
 0.138494356356910D+04 0.000000000000000D+00 0.000000000000000D+00 0.138494356356910D+04
 0.138494356356910D+04 0.000000000000000D+00 0.000000000000000D+00 -.138494356356910D+04
 0.889123549619268D+03 -.177077080062460D+03 0.704399249310389D+03 -.504669040491965D+03
 0.134327876063343D+04 0.388329966449930D+03 -.978439167215604D+03 0.834418637126661D+03
 0.269571649152343D+02 0.176250061283723D+02 -.186282450780299D+02 0.830881366711547D+01
 0.510527651970261D+03 -.228877892515842D+03 0.292668162983245D+03 -.338058410301811D+03
 0.000000000000000D+00 -.000000000000000D+00 -.000000000000000D+00 -.000000000000000D+00
 0.150332685931790D+04 0.000000000000000D+00 0.000000000000000D+00 0.150332685931790D+04
 0.298769826400008D+04 0.000000000000000D+00 0.000000000000000D+00 -.298769826400008D+04
 0.105852350273134D+04 -.800703670841716D+02 0.922526232892347D+03 -.504669040491965D+03
 0.120102588822154D+04 0.515054482836470D+03 -.693489438927573D+03 0.834418637126661D+03
 0.253258029784650D+02 0.202290707888538D+02 -.127728073252804D+02 0.830881366711547D+01
 0.569509070721738D+03 -.175084361373869D+03 0.413627015458196D+03 -.338058410301811D+03
 0.163664085866490D+04 -.280128825167283D+03 -.629891002097689D+03 -.148437140468218D+04
0.201940023070D-02 0.000000000000D+00 0.000000000000D+00 0.193692536127D-04 0.000000000000D+00  7 -2 2 23 -13 13 23 21 0 0.10433817D+00 0.43510515D+00 0.12022136D+07 0.12022136D+07 0.12022136D+07 0.10425810D+01  1  2  2  1  7  1       -2 0.393900700328D-03 0.100000000000D+01
-.104746860029D-03 0.000000000000D+00 -.775502860618D-05 0.193692536127D-04 0.000000000000D+00  7 -2 2 23 -13 13 23 21 2 0.10433817D+00 0.43510515D+00 0.12022136D+07 0.12022136D+07 0.12022136D+07 0.10425810D+01  1  2  3  1  7  1       -2 -.222087933951D-04 0.100000000000D+01
0.123319126169D-03 0.000000000000D+00 0.000000000000D+00 0.193692536127D-04 0.000000000000D+00  7 -2 2 23 -13 13 23 21 2 0.10433817D+00 0.43510515D+00 0.12022136D+07 0.12022136D+07 0.12022136D+07 0.10425810D+01  1  2 15  1  7  1       -2 0.261465498250D-04 0.100000000000D+01
  </mgrwgt>
  </event>
  <event>
  7     66 0.53686478E-06 0.11162007E+04 0.75467711E-02 0.83085871E-01
       -2 -1    0    0    0  501 0.00000000E+00 0.00000000E+00 0.65772647E+03 0.65772654E+03 0.32000000E+00 0.0000E+00 0.9000E+01
        2 -1    0    0  501    0 0.00000000E+00 0.00000000E+00 -.19248307E+04 0.19248307E+04 0.32000000E+00 0.0000E+00 0.9000E+01
       23  2    1    2    0    0 0.67136611E+03 -.87008804E+03 -.76690386E+03 0.13430877E+04 0.89204510E+02 0.0000E+00 0.0000E+00
       23  1    1    2    0    0 -.34316180E+03 0.59915632E+03 -.26880592E+03 0.74653881E+03 0.91188000E+02 0.0000E+00 0.9000E+01
      -11  1    3    3    0    0 0.28580165E+03 -.42029158E+03 -.39367685E+03 0.64289117E+03 0.51099893E-03 0.0000E+00 0.9000E+01
       11  1    3    3    0    0 0.38556446E+03 -.44979646E+03 -.37322701E+03 0.70019655E+03 0.51099893E-03 0.0000E+00 0.9000E+01
       23  1    1    2    0    0 -.32820431E+03 0.27093173E+03 -.23139444E+03 0.49293073E+03 0.91188000E+02 0.0000E+00 0.9000E+01
#aMCatNLO 1  0  0  1  2 0.81754673D+03 0.00000000D+00  -5  7  0 0.00000000D+00 0.00000000D+00 0.00000000D+00 0.00000000D+00 0.00000000D+00
  <mgrwgt>
 0.4071925369D-03    3    2    0
 0.112517208547235D+04 0.000000000000000D+00 0.000000000000000D+00 0.112517208547235D+04
 0.112517208547235D+04 0.000000000000000D+00 0.000000000000000D+00 -.112517208547235D+04
 0.705391695580388D+03 -.343161799318512D+03 0.599156316217681D+03 0.111865459703676D+03
 0.516131567944774D+03 0.285801652947472D+03 -.420291580527465D+03 -.898008793907359D+02
 0.593411522838872D+03 0.385564456569878D+03 -.449796461404041D+03 -.340650638679398D+02
 0.435409384580672D+03 -.328204310198838D+03 0.270931725713825D+03 0.120004835550001D+02
 0.000000000000000D+00 -.000000000000000D+00 -.000000000000000D+00 -.000000000000000D+00
 0.155995238916832D+04 0.000000000000000D+00 0.000000000000000D+00 0.155995238916832D+04
 0.165766226421467D+04 0.000000000000000D+00 0.000000000000000D+00 -.165766226421467D+04
 0.706867325656779D+03 -.109247780201279D+03 0.683298767877965D+03 0.111865459703676D+03
 0.595156402051312D+03 0.469865504938800D+03 -.354080996711092D+03 -.898008793907359D+02
 0.707854369473405D+03 0.601094561340808D+03 -.372266985015817D+03 -.340650638679398D+02
 0.384371585497057D+03 -.192423084075940D+03 0.319774310260645D+03 0.120004835550001D+02
 0.823364970704434D+03 -.769289202002389D+03 -.276725096411701D+03 -.977098750463578D+02
0.570854783801D-03 0.000000000000D+00 0.000000000000D+00 0.832428653075D-09 0.000000000000D+00  7 -2 2 23 -11 11 23 21 0 0.10118870D+00 0.29612781D+00 0.12459040D+07 0.12459040D+07 0.12459040D+07 0.10415664D+01  1  2  2  1  7  1       -2 0.404330195629D-03 0.100000000000D+01
-.317116835463D-04 0.000000000000D+00 -.219223267931D-05 0.832428653075D-09 0.000000000000D+00  7 -2 2 23 -11 11 23 21 2 0.10118870D+00 0.29612781D+00 0.12459040D+07 0.12459040D+07 0.12459040D+07 0.10415664D+01  1  2  3  1  7  1       -2 -.243670947460D-04 0.100000000000D+01
0.354367751082D-04 0.000000000000D+00 0.000000000000D+00 0.832428653075D-09 0.000000000000D+00  7 -2 2 23 -11 11 23 21 2 0.10118870D+00 0.29612781D+00 0.12459040D+07 0.12459040D+07 0.12459040D+07 0.10415664D+01  1  2 15  1  7  1       -2 0.272294359678D-04 0.100000000000D+01
  </mgrwgt>
  </event>
  <event>
  8     66 0.53686478E-06 0.12729926E+03 0.75467711E-02 0.10233506E+00
       -2 -1    0    0    0  501 0.00000000E+00 0.00000000E+00 0.53784728E+03 0.53784737E+03 0.32000000E+00 0.0000E+00 0.9000E+01
        2 -1    0    0  501    0 0.00000000E+00 0.00000000E+00 -.20233321E+03 0.20233346E+03 0.32000000E+00 0.0000E+00 0.9000E+01
       25  2    1    2    0    0 -.12489713E+03 -.59878694E+02 -.37388334E+02 0.33203176E+03 0.29943689E+03 0.0000E+00 0.0000E+00
       23  2    1    2    0    0 0.12489713E+03 0.59878694E+02 0.37290240E+03 0.40814907E+03 0.91349380E+02 0.0000E+00 0.0000E+00
       23  1    3    3    0    0 -.39738968E+02 0.86692367E+02 0.14323316E+02 0.13272212E+03 0.91188000E+02 0.0000E+00 0.9000E+01
      -11  1    4    4    0    0 0.13608498E+03 0.57234404E+02 0.30012852E+03 0.33447276E+03 0.51099893E-03 0.0000E+00 0.9000E+01
       11  1    4    4    0    0 -.11187852E+02 0.26442902E+01 0.72773881E+02 0.73676306E+02 0.51099893E-03 0.0000E+00 0.9000E+01
       23  1    3    3    0    0 -.85158165E+02 -.14657106E+03 -.51711649E+02 0.19930965E+03 0.91188000E+02 0.0000E+00 0.9000E+01
#aMCatNLO 1  0  0  1  2 0.48522116D+02 0.00000000D+00  -5  7  0 0.00000000D+00 0.00000000D+00 0.00000000D+00 0.00000000D+00 0.00000000D+00
  <mgrwgt>
 0.2816482531D-03    9    2    0
 0.329885576820889D+03 0.000000000000000D+00 0.000000000000000D+00 0.329885576820889D+03
 0.329885576820889D+03 0.000000000000000D+00 0.000000000000000D+00 -.329885576820889D+03
 0.141613791219031D+03 -.397389678297621D+02 0.866923670892735D+02 -.514243370760490D+02
 0.222612016453566D+03 0.136084984196786D+03 0.572344038188495D+02 0.166616955815380D+03
 0.456478406468432D+02 -.111878518198388D+02 0.264429020259313D+01 0.441765215550228D+02
 0.249897505322338D+03 -.851581645471848D+02 -.146571061110716D+03 -.159369140294354D+03
 0.000000000000000D+00 0.000000000000000D+00 0.000000000000000D+00 0.000000000000000D+00
 0.364980191697719D+03 0.000000000000000D+00 0.000000000000000D+00 0.364980191697719D+03
 0.347985137080973D+03 0.000000000000000D+00 0.000000000000000D+00 -.347985137080973D+03
 0.138004695679150D+03 -.449790658053422D+02 0.778618384130661D+02 -.514243370760490D+02
 0.214485947491061D+03 0.127893694052116D+03 0.434305736510308D+02 0.166616955815380D+03
 0.460237703693327D+02 -.129057933931331D+02 -.250757256008004D+00 0.441765215550228D+02
 0.263038585785687D+03 -.947706740862836D+02 -.162769907302315D+03 -.159369140294354D+03
 0.514123294534615D+02 0.247618392326426D+02 0.417282524942257D+02 0.169950546167459D+02
0.621651009127D-05 0.000000000000D+00 0.000000000000D+00 0.407761287533D-06 0.000000000000D+00  7 -2 2 23 -11 11 23 21 0 0.82745761D-01 0.31128213D-01 0.58457186D+05 0.58457186D+05 0.58457186D+05 0.11413732D+01  1  2  2  1  7  1       -2 0.170988717371D-03 0.100000000000D+01
-.304820473336D-06 0.000000000000D+00 -.238730355952D-07 0.407761287533D-06 0.000000000000D+00  7 -2 2 23 -11 11 23 21 2 0.82745761D-01 0.31128213D-01 0.58457186D+05 0.58457186D+05 0.58457186D+05 0.11413732D+01  1  2  3  1  7  1       -2 -.109224551770D-04 0.100000000000D+01
0.370878457172D-06 0.000000000000D+00 0.000000000000D+00 0.407761287533D-06 0.000000000000D+00  7 -2 2 23 -11 11 23 21 2 0.82745761D-01 0.31128213D-01 0.58457186D+05 0.58457186D+05 0.58457186D+05 0.11413732D+01  1  2 15  1  7  1       -2 0.132894725878D-04 0.100000000000D+01
0.929934848983D-05 0.000000000000D+00 0.000000000000D+00 0.407761287533D-06 0.000000000000D+00  7 -2 2 23 -11 11 23 21 2 0.93630480D-01 0.31128213D-01 0.71242345D+05 0.71242345D+05 0.71242345D+05 0.11340107D+01  1  2 12  1  7  1       -2 0.247468722132D-03 0.100000000000D+01
-.883602870308D-05 0.000000000000D+00 0.000000000000D+00 0.407761287533D-06 0.000000000000D+00  7 -2 2 23 -11 11 23 21 2 0.82745761D-01 0.31128213D-01 0.58457186D+05 0.58457186D+05 0.58457186D+05 0.11413732D+01  1  2  4  1  7  1       -2 -.316616290225D-03 0.100000000000D+01
-.224171592602D-04 0.000000000000D+00 -.558382054242D-05 0.407761287533D-06 0.000000000000D+00  7 -2 2 23 -11 11 23 21 2 0.95440951D-01 0.31128213D-01 0.58457186D+05 0.58457186D+05 0.58457186D+05 0.11413732D+01  1  2  5  1  7  1       -2 -.579466447396D-03 0.100000000000D+01
0.230355140826D-04 0.000000000000D+00 0.552741908961D-05 0.407761287533D-06 0.000000000000D+00  7 -2 2 23 -11 11 23 21 2 0.82745761D-01 0.31128213D-01 0.58457186D+05 0.58457186D+05 0.58457186D+05 0.11413732D+01  1  2  6  1  7  1       -2 0.825418211885D-03 0.100000000000D+01
0.180852661760D-06 0.000000000000D+00 0.000000000000D+00 0.407761287533D-06 0.000000000000D+00  7 21 2 23 -11 11 23 2 2 0.93630480D-01 0.31128213D-01 0.71242345D+05 0.71242345D+05 0.71242345D+05 0.11340107D+01  1  2 12  3  7  1       -2 0.470253460915D-04 0.100000000000D+01
-.455686942582D-06 0.000000000000D+00 -.122332958010D-06 0.407761287533D-06 0.000000000000D+00  7 21 2 23 -11 11 23 2 2 0.95440951D-01 0.31128213D-01 0.58457186D+05 0.58457186D+05 0.58457186D+05 0.11413732D+01  1  2  5  3  7  1       -2 -.115537024145D-03 0.100000000000D+01
  </mgrwgt>
  </event>
  <event>
  9     66 0.53686478E-06 0.18497272E+03 0.75467711E-02 0.10350609E+00
       -2 -1    0    0    0  502 0.00000000E+00 0.00000000E+00 0.50315555E+02 0.50316572E+02 0.32000000E+00 0.0000E+00 0.9000E+01
        2 -1    0    0  501    0 0.00000000E+00 0.00000000E+00 -.29541069E+04 0.29541070E+04 0.32000000E+00 0.0000E+00 0.9000E+01
       25  2    1    2    0    0 -.50408764E+02 -.70868989E+01 -.63569167E+03 0.70461821E+03 0.29965255E+03 0.0000E+00 0.0000E+00
       23  2    1    2    0    0 0.67592885E+02 -.86279946E+02 -.21142741E+04 0.21190415E+04 0.90383000E+02 0.0000E+00 0.0000E+00
       23  1    3    3    0    0 -.13097075E+03 -.25675389E+02 -.47789472E+03 0.50449101E+03 0.91188000E+02 0.0000E+00 0.9000E+01
      -11  1    4    4    0    0 0.20013634E+02 -.28514657E+02 -.18114912E+03 0.18446852E+03 0.51099893E-03 0.0000E+00 0.9000E+01
       11  1    4    4    0    0 0.47579251E+02 -.57765289E+02 -.19331250E+04 0.19345730E+04 0.51099893E-03 0.0000E+00 0.9000E+01
       23  1    3    3    0    0 0.80561988E+02 0.18588490E+02 -.15779695E+03 0.20012720E+03 0.91188000E+02 0.0000E+00 0.9000E+01
       21  1    1    2  501  502 -.17184121E+02 0.93366845E+02 -.15382564E+03 0.18076380E+03 0.75000000E+00 0.0000E+00 0.9000E+01
#aMCatNLO 2  0  0  1  2 0.94935040D+02 0.00000000D+00  -5  7  0 0.00000000D+00 0.00000000D+00 0.00000000D+00 0.00000000D+00 0.00000000D+00
  <mgrwgt>
 0.6043995618D-04    2    2    0
 0.316910870866625D+03 0.000000000000000D+00 0.000000000000000D+00 0.316910870866625D+03
 0.316910870866625D+03 0.000000000000000D+00 0.000000000000000D+00 -.316910870866625D+03
 0.173818940322792D+03 -.135634411593368D+03 -.336232803602069D+00 0.591689615437104D+02
 0.311068786521546D+02 0.191163365912275D+02 -.236393521167054D+02 -.658669919710816D+01
 0.221414783188844D+03 0.415118536119220D+02 -.247991707880974D+02 -.216070065840894D+03
 0.207481139569458D+03 0.750062213902182D+02 0.487747557084048D+02 0.163487803494291D+03
 0.000000000000000D+00 -.000000000000000D+00 0.000000000000000D+00 0.000000000000000D+00
 0.437580884611355D+03 0.000000000000000D+00 0.000000000000000D+00 0.437580884611355D+03
 0.339681696655685D+03 0.000000000000000D+00 0.000000000000000D+00 -.339681696655685D+03
 0.172130128068022D+03 -.130970752532012D+03 -.256753893008661D+02 0.591689615437104D+02
 0.354544187222307D+02 0.200136339855507D+02 -.285146568506529D+02 -.658669919710816D+01
 0.228663261489261D+03 0.475792512237837D+02 -.577652893648282D+02 -.216070065840894D+03
 0.204644274744231D+03 0.805619884047651D+02 0.185884903764308D+02 0.163487803494291D+03
 0.136370498243295D+03 -.171841210820874D+02 0.933668451399165D+02 0.978991879556699D+02
-.403929635946D-05 0.000000000000D+00 0.000000000000D+00 0.534404873478D-06 0.000000000000D+00  7 -2 2 23 -11 11 23 21 2 0.78836421D-02 0.42401054D+00 0.59863402D+05 0.59863402D+05 0.59863402D+05 0.11404806D+01  1  2 13  1  7  1       -2 -.156899451413D-03 0.100000000000D+01
0.715597908587D-05 0.000000000000D+00 0.000000000000D+00 0.534404873478D-06 0.430233581174D-09  7 -2 2 23 -11 11 23 21 2 0.77409116D-02 0.45447675D+00 0.59863402D+05 0.59863402D+05 0.59863402D+05 0.11404806D+01  1  2  1  1  7  1       -2 0.217339407597D-03 0.100000000000D+01
  </mgrwgt>
  </event>
  <event>
  8     66 0.53686478E-06 0.30394121E+03 0.75467711E-02 0.93835695E-01
       -2 -1    0    0    0  501 0.00000000E+00 0.00000000E+00 0.62744245E+03 0.62744253E+03 0.32000000E+00 0.0000E+00 0.9000E+01
        2 -1    0    0  501    0 0.00000000E+00 0.00000000E+00 -.84638693E+03 0.84638699E+03 0.32000000E+00 0.0000E+00 0.9000E+01
       25  2    1    2    0    0 0.26051364E+03 -.28335425E+02 -.76361594E+03 0.86134848E+03 0.30023599E+03 0.0000E+00 0.0000E+00
       23  2    1    2    0    0 -.26051364E+03 0.28335425E+02 0.54467147E+03 0.61248104E+03 0.98973541E+02 0.0000E+00 0.0000E+00
       23  1    3    3    0    0 0.15566284E+03 0.25291880E+02 -.16944073E+03 0.24878909E+03 0.91188000E+02 0.0000E+00 0.9000E+01
      -11  1    4    4    0    0 -.20013731E+03 0.59536503E+02 0.44845140E+03 0.49467989E+03 0.51099893E-03 0.0000E+00 0.9000E+01
       11  1    4    4    0    0 -.60376333E+02 -.31201078E+02 0.96220069E+02 0.11780115E+03 0.51099893E-03 0.0000E+00 0.9000E+01
       23  1    3    3    0    0 0.10485080E+03 -.53627304E+02 -.59417521E+03 0.61255939E+03 0.91188000E+02 0.0000E+00 0.9000E+01
#aMCatNLO 1  0  0  1  2 0.34879845D+03 0.00000000D+00  -5  7  0 0.00000000D+00 0.00000000D+00 0.00000000D+00 0.00000000D+00 0.00000000D+00
  <mgrwgt>
 0.3553629315D-03    4    2    0
 0.728738083297627D+03 0.000000000000000D+00 0.000000000000000D+00 0.728738083297627D+03
 0.728738083297627D+03 0.000000000000000D+00 0.000000000000000D+00 -.728738083297627D+03
 0.226126918339605D+03 0.155662840221054D+03 0.252918795215697D+02 -.133968402462473D+03
 0.567597467340262D+03 -.200137311170221D+03 0.595365030393820D+02 0.527794795744024D+03
 0.133577252999525D+03 -.603763325589746D+02 -.312010783097301D+02 0.114995972529203D+03
 0.530174527915863D+03 0.104850803508141D+03 -.536273042512216D+02 -.508822365810754D+03
 0.000000000000000D+00 0.000000000000000D+00 0.000000000000000D+00 -.000000000000000D+00
 0.817500685341416D+03 0.000000000000000D+00 0.000000000000000D+00 0.817500685341416D+03
 0.119538428801949D+04 0.000000000000000D+00 0.000000000000000D+00 -.119538428801949D+04
 0.204562469464751D+03 0.123992715040182D+03 -.144508244793907D+02 -.133968402462473D+03
 0.602331400340560D+03 -.286166349129705D+03 -.484209670237973D+02 0.527794795744024D+03
 0.152193470609057D+03 -.813900720333808D+02 -.575711296788047D+02 0.114995972529203D+03
 0.539544413224503D+03 0.261905584833557D+02 -.152337707724814D+03 -.508822365810754D+03
 0.514253219722031D+03 0.217373147639548D+03 0.272780628906807D+03 -.377883602678070D+03
0.972947777038D-04 0.000000000000D+00 0.000000000000D+00 0.139954866648D-06 0.000000000000D+00  7 -2 2 23 -11 11 23 21 0 0.96529619D-01 0.13021338D+00 0.92380257D+05 0.92380257D+05 0.92380257D+05 0.11245577D+01  1  2  2  1  7  1       -2 0.370214333446D-03 0.100000000000D+01
-.379544240018D-06 0.000000000000D+00 -.373637564686D-06 0.139954866648D-06 0.000000000000D+00  7 -2 2 23 -11 11 23 21 2 0.96529619D-01 0.13021338D+00 0.92380257D+05 0.92380257D+05 0.92380257D+05 0.11245577D+01  1  2  3  1  7  1       -2 -.182637335198D-05 0.100000000000D+01
0.555524350541D-05 0.000000000000D+00 0.000000000000D+00 0.139954866648D-06 0.000000000000D+00  7 -2 2 23 -11 11 23 21 2 0.96529619D-01 0.13021338D+00 0.92380257D+05 0.92380257D+05 0.92380257D+05 0.11245577D+01  1  2 15  1  7  1       -2 0.267319264326D-04 0.100000000000D+01
-.826201458917D-05 0.000000000000D+00 0.000000000000D+00 0.139954866648D-06 0.000000000000D+00  7 -2 2 23 -11 11 23 21 2 0.96529619D-01 0.13021338D+00 0.92380257D+05 0.92380257D+05 0.92380257D+05 0.11245577D+01  1  2  4  1  7  1       -2 -.397569550223D-04 0.100000000000D+01
  </mgrwgt>
  </event>
  <event>
  9     66 0.53686478E-06 0.47481684E+03 0.75467711E-02 0.91397561E-01
       21 -1    0    0  502  501 0.00000000E+00 0.00000000E+00 0.63707435E+03 0.63707479E+03 0.75000000E+00 0.0000E+00 0.9000E+01
        2 -1    0    0  501    0 0.00000000E+00 0.00000000E+00 -.18401866E+04 0.18401866E+04 0.32000000E+00 0.0000E+00 0.9000E+01
       25  2    1    2    0    0 -.30682355E+03 -.19780759E+03 -.14977751E+03 0.49495353E+03 0.29879284E+03 0.0000E+00 0.0000E+00
       23  2    1    2    0    0 0.19460680E+03 0.51721268E+03 0.26723573E+03 0.61903290E+03 0.80037728E+02 0.0000E+00 0.0000E+00
       23  1    3    3    0    0 -.16478108E+02 -.17128920E+02 -.10024336E+03 0.13758238E+03 0.91188000E+02 0.0000E+00 0.9000E+01
      -11  1    4    4    0    0 0.16601380E+03 0.35929445E+03 0.21402727E+03 0.44995639E+03 0.51099893E-03 0.0000E+00 0.9000E+01
       11  1    4    4    0    0 0.28593007E+02 0.15791823E+03 0.53208464E+02 0.16907651E+03 0.51099893E-03 0.0000E+00 0.9000E+01
       23  1    3    3    0    0 -.29034544E+03 -.18067867E+03 -.49534148E+02 0.35737116E+03 0.91188000E+02 0.0000E+00 0.9000E+01
        2  1    1    2  502    0 0.11221675E+03 -.31940508E+03 -.13205705E+04 0.13632750E+04 0.32000000E+00 0.0000E+00 0.9000E+01
#aMCatNLO 2  0  0  1  1 0.33854425D+03 0.00000000D+00  -5  7  0 0.00000000D+00 0.00000000D+00 0.00000000D+00 0.00000000D+00 0.00000000D+00
  <mgrwgt>
 0.1278484474D-03    1    2    0
 0.527389120287767D+03 0.000000000000000D+00 0.000000000000000D+00 0.527389120287767D+03
 0.527389120287767D+03 0.000000000000000D+00 0.000000000000000D+00 -.527389120287767D+03
 0.159902095605915D+03 -.449835324551259D+00 -.627505564551424D+02 -.115393215346111D+03
 0.360241701687860D+03 0.207008938453683D+03 0.242609045373251D+03 0.167517862147069D+03
 0.127863747548785D+03 0.437579070313305D+02 0.114754027160417D+03 0.355794429400354D+02
 0.406770695732975D+03 -.250317010160462D+03 -.294612516078525D+03 -.877040897409932D+02
 0.000000000000000D+00 0.000000000000000D+00 -.000000000000000D+00 -.000000000000000D+00
 0.573096316074537D+03 0.000000000000000D+00 0.000000000000000D+00 0.573096316074537D+03
 0.204561809716803D+04 0.000000000000000D+00 0.000000000000000D+00 -.204561809716803D+04
 0.148982460173157D+03 -.164781077988786D+02 -.171289203016686D+02 -.115393215346111D+03
 0.429785199106552D+03 0.166013795799033D+03 0.359294451442172D+03 0.167517862147069D+03
 0.164382550201266D+03 0.285930073873950D+02 0.157918225608360D+03 0.355794429400354D+02
 0.364626547270662D+03 -.290345444620781D+03 -.180678673509601D+03 -.877040897409932D+02
 0.151093765649093D+04 0.112216749233231D+03 -.319405083239262D+03 -.147252178109350D+04
0.134080779114D-04 0.000000000000D+00 0.000000000000D+00 0.244207276540D-08 0.481109604096D-14  7 21 2 23 -11 11 23 2 2 0.98011472D-01 0.28310566D+00 0.45089930D+06 0.45089930D+06 0.45089930D+06 0.10716975D+01  1  2  1  3  7  1       -2 0.127848447429D-03 0.100000000000D+01
  </mgrwgt>
  </event>
  <event>
  8     66 0.53686478E-06 0.19607871E+03 0.75467711E-02 0.96944579E-01
       -2 -1    0    0    0  501 0.00000000E+00 0.00000000E+00 0.49288895E+02 0.49289934E+02 0.32000000E+00 0.0000E+00 0.9000E+01
        2 -1    0    0  501    0 0.00000000E+00 0.00000000E+00 -.11989491E+04 0.11989491E+04 0.32000000E+00 0.0000E+00 0.9000E+01
       25  2    1    2    0    0 -.15966555E+02 -.80990458E+02 -.52383212E+03 0.60944172E+03 0.30034104E+03 0.0000E+00 0.0000E+00
       23  2    1    2    0    0 0.15966555E+02 0.80990458E+02 -.62582807E+03 0.63879734E+03 0.97912605E+02 0.0000E+00 0.0000E+00
       23  1    3    3    0    0 0.96780594E+02 -.89176694E+02 -.33427862E+03 0.37064324E+03 0.91188000E+02 0.0000E+00 0.9000E+01
      -11  1    4    4    0    0 0.22851225E+02 0.48683385E+02 -.11556033E+03 0.12746153E+03 0.51099893E-03 0.0000E+00 0.9000E+01
       11  1    4    4    0    0 -.68846696E+01 0.32307073E+02 -.51026774E+03 0.51133581E+03 0.51099893E-03 0.0000E+00 0.9000E+01
       23  1    3    3    0    0 -.11274715E+03 0.81862358E+01 -.18955350E+03 0.23879848E+03 0.91188000E+02 0.0000E+00 0.9000E+01
#aMCatNLO 1  0  0  1  1 0.30435468D+03 0.00000000D+00  -5  7  0 0.00000000D+00 0.00000000D+00 0.00000000D+00 0.00000000D+00 0.00000000D+00
  <mgrwgt>
 0.2180203168D-03    3    2    0
 0.243095764179452D+03 0.000000000000000D+00 0.000000000000000D+00 0.243095764179452D+03
 0.243095764179452D+03 0.000000000000000D+00 0.000000000000000D+00 -.243095764179452D+03
 0.161139277419689D+03 0.967805943590484D+02 -.891766939945975D+02 0.182112379327370D+02
 0.539856034292121D+02 0.228512250250358D+02 0.486833846333966D+02 0.471115199373725D+01
 0.106202645755556D+03 -.688466947711484D+01 0.323070736582883D+02 -.100934911122510D+03
 0.164864001754447D+03 -.112747149906969D+03 0.818623570291255D+01 0.780125211960357D+02
 0.000000000000000D+00 0.000000000000000D+00 -.000000000000000D+00 -.000000000000000D+00
 0.432151149040875D+03 0.000000000000000D+00 0.000000000000000D+00 0.432151149040875D+03
 0.446121388342428D+03 0.000000000000000D+00 0.000000000000000D+00 -.446121388342428D+03
 0.116690426674226D+03 0.199619443682151D+02 -.676112115215404D+02 0.182112379327370D+02
 0.581556371989913D+02 -.815531814301859D+01 0.573879253057536D+02 0.471115199373725D+01
 0.134911035089036D+03 -.735515059739827D+02 0.510226133635412D+02 -.100934911122510D+03
 0.263840299167369D+03 -.231281939948518D+03 0.414627894746015D+02 0.780125211960357D+02
 0.304675139253680D+03 0.293026819697304D+03 -.822621166223558D+02 -.139702393015526D+02
0.962795770254D-06 0.000000000000D+00 0.000000000000D+00 0.878584727858D-08 0.000000000000D+00  7 -2 2 23 -11 11 23 21 0 0.75829901D-02 0.18445379D+00 0.38446859D+05 0.38446859D+05 0.38446859D+05 0.11574697D+01  1  2  2  1  7  1       -2 0.215385281713D-03 0.100000000000D+01
-.504841351842D-07 0.000000000000D+00 -.369738926772D-08 0.878584727858D-08 0.000000000000D+00  7 -2 2 23 -11 11 23 21 2 0.75829901D-02 0.18445379D+00 0.38446859D+05 0.38446859D+05 0.38446859D+05 0.11574697D+01  1  2  3  1  7  1       -2 -.151305961584D-04 0.100000000000D+01
0.592760865773D-07 0.000000000000D+00 0.000000000000D+00 0.878584727858D-08 0.000000000000D+00  7 -2 2 23 -11 11 23 21 2 0.75829901D-02 0.18445379D+00 0.38446859D+05 0.38446859D+05 0.38446859D+05 0.11574697D+01  1  2 15  1  7  1       -2 0.177656312143D-04 0.100000000000D+01
  </mgrwgt>
  </event>
  <event>
  8     66 0.53686478E-06 0.15583142E+03 0.75467711E-02 0.92605367E-01
       -2 -1    0    0    0  501 0.00000000E+00 0.00000000E+00 0.10261364E+03 0.10261414E+03 0.32000000E+00 0.0000E+00 0.9000E+01
        2 -1    0    0  501    0 0.00000000E+00 0.00000000E+00 -.20994660E+04 0.20994660E+04 0.32000000E+00 0.0000E+00 0.9000E+01
       25  2    1    2    0    0 -.34483813E+02 -.39999093E+03 -.89103583E+03 0.10222713E+04 0.29985302E+03 0.0000E+00 0.0000E+00
       23  2    1    2    0    0 0.34483813E+02 0.39999093E+03 -.11058165E+04 0.11798089E+04 0.89089511E+02 0.0000E+00 0.0000E+00
       23  1    3    3    0    0 -.13336297E+02 -.34331005E+03 -.81462797E+03 0.88880461E+03 0.91188000E+02 0.0000E+00 0.9000E+01
      -11  1    4    4    0    0 0.12781864E+02 0.34412013E+03 -.85087366E+03 0.91791504E+03 0.51099893E-03 0.0000E+00 0.9000E+01
       11  1    4    4    0    0 0.21701949E+02 0.55870806E+02 -.25494286E+03 0.26189384E+03 0.51099893E-03 0.0000E+00 0.9000E+01
       23  1    3    3    0    0 -.21147516E+02 -.56680885E+02 -.76407862E+02 0.13346667E+03 0.91188000E+02 0.0000E+00 0.9000E+01
#aMCatNLO 1  0  0  2  1 0.28609318D+03 0.00000000D+00  -5  7  0 0.00000000D+00 0.00000000D+00 0.00000000D+00 0.00000000D+00 0.00000000D+00
  <mgrwgt>
 0.2093379288D-03    7    2    0
 0.464149145641422D+03 0.000000000000000D+00 0.000000000000000D+00 0.464149145641422D+03
 0.464149145641422D+03 0.000000000000000D+00 0.000000000000000D+00 -.464149145641422D+03
 0.356057114319614D+03 -.133362972168463D+02 -.343310048403187D+03 -.205370678422201D+02
 0.347144270395730D+03 0.127818638220951D+02 0.344120128033705D+03 -.438988144245778D+02
 0.728515608144343D+02 0.217019491620468D+02 0.558708056484420D+02 -.414104864963111D+02
 0.152245345753066D+03 -.211475157672955D+02 -.566808852789598D+02 0.105846368763109D+03
 0.000000000000000D+00 0.000000000000000D+00 -.000000000000000D+00 -.000000000000000D+00
 0.530718759316649D+03 0.000000000000000D+00 0.000000000000000D+00 0.530718759316649D+03
 0.940140588601795D+03 0.000000000000000D+00 0.000000000000000D+00 -.940140588601795D+03
 0.287517237971535D+03 -.679844609630290D+02 -.263262706623613D+03 -.205370678422201D+02
 0.448624880423297D+03 -.547896960191297D+02 0.443097355709855D+03 -.438988144245778D+02
 0.866826479909503D+02 0.815533790434663D+01 0.757135624213242D+02 -.414104864963111D+02
 0.148559312148479D+03 -.466898981541894D+02 -.192670057882501D+02 0.105846368763109D+03
 0.499475269384183D+03 0.161308717232001D+03 -.236281205719315D+03 -.409421829285146D+03
0.920002522356D-05 0.000000000000D+00 0.000000000000D+00 0.313022005251D-06 0.000000000000D+00  7 -2 2 23 -11 11 23 21 0 0.15786755D-01 0.32299481D+00 0.18887309D+06 0.18887309D+06 0.18887309D+06 0.10997398D+01  1  2  2  2  7  2        2 0.210174577509D-03 0.100000000000D+01
-.508422673535D-06 0.000000000000D+00 -.353305192807D-07 0.313022005251D-06 0.000000000000D+00  7 -2 2 23 -11 11 23 21 2 0.15786755D-01 0.32299481D+00 0.18887309D+06 0.18887309D+06 0.18887309D+06 0.10997398D+01  1  2  3  2  7  2        2 -.140474005547D-04 0.100000000000D+01
0.603625480511D-06 0.000000000000D+00 0.000000000000D+00 0.313022005251D-06 0.000000000000D+00  7 -2 2 23 -11 11 23 21 2 0.15786755D-01 0.32299481D+00 0.18887309D+06 0.18887309D+06 0.18887309D+06 0.10997398D+01  1  2 15  2  7  2        2 0.166777945814D-04 0.100000000000D+01
0.201452767851D-05 0.000000000000D+00 0.000000000000D+00 0.313022005251D-06 0.000000000000D+00  7 -2 2 23 -11 11 23 21 2 0.15786755D-01 0.65547992D+00 0.35984495D+06 0.35984495D+06 0.35984495D+06 0.10787555D+01  1  2 12  2  7  2        2 0.176566049832D-05 0.100000000000D+01
-.635368142239D-05 0.000000000000D+00 -.218408095301D-05 0.313022005251D-06 0.000000000000D+00  7 -2 2 23 -11 11 23 21 2 0.15786755D-01 0.66672019D+00 0.18887309D+06 0.18887309D+06 0.18887309D+06 0.10997398D+01  1  2  5  2  7  2        2 -.523056338645D-05 0.100000000000D+01
0.154195782718D-06 0.000000000000D+00 0.000000000000D+00 0.313022005251D-06 0.000000000000D+00  7 -2 21 23 -11 11 23 -2 2 0.15786755D-01 0.65547992D+00 0.35984495D+06 0.35984495D+06 0.35984495D+06 0.10787555D+01  1  2 12  4  7  2        2 0.194634573295D-08 0.100000000000D+01
-.363931358321D-06 0.000000000000D+00 -.171158305935D-06 0.313022005251D-06 0.000000000000D+00  7 -2 21 23 -11 11 23 -2 2 0.15786755D-01 0.66672019D+00 0.18887309D+06 0.18887309D+06 0.18887309D+06 0.10997398D+01  1  2  5  4  7  2        2 -.408619161303D-08 0.100000000000D+01
  </mgrwgt>
  </event>
  <event>
  8     66 0.53686478E-06 0.21133874E+03 0.75467711E-02 0.10270360E+00
       -2 -1    0    0    0  501 0.00000000E+00 0.00000000E+00 0.34239437E+03 0.34239452E+03 0.32000000E+00 0.0000E+00 0.9000E+01
        2 -1    0    0  501    0 0.00000000E+00 0.00000000E+00 -.26577429E+03 0.26577448E+03 0.32000000E+00 0.0000E+00 0.9000E+01
       25  2    1    2    0    0 -.21868309E+02 -.12195647E+03 0.22337353E+03 0.39415828E+03 0.30018896E+03 0.0000E+00 0.0000E+00
       23  2    1    2    0    0 0.21868309E+02 0.12195647E+03 -.14675345E+03 0.21401072E+03 0.94405559E+02 0.0000E+00 0.0000E+00
       23  1    3    3    0    0 -.52629244E+02 -.13814614E+03 0.23887235E+03 0.29534631E+03 0.91188000E+02 0.0000E+00 0.9000E+01
      -11  1    4    4    0    0 0.46345474E+02 0.27656709E+02 -.77661989E+02 0.94573681E+02 0.51099893E-03 0.0000E+00 0.9000E+01
       11  1    4    4    0    0 -.24477165E+02 0.94299759E+02 -.69091463E+02 0.11943704E+03 0.51099893E-03 0.0000E+00 0.9000E+01
       23  1    3    3    0    0 0.30760936E+02 0.16189672E+02 -.15498819E+02 0.98811970E+02 0.91188000E+02 0.0000E+00 0.9000E+01
#aMCatNLO 1  0  0  2  1 0.87831500D+02 0.00000000D+00  -5  7  0 0.00000000D+00 0.00000000D+00 0.00000000D+00 0.00000000D+00 0.00000000D+00
  <mgrwgt>
 0.2255273076D-03    3    2    0
 0.301661606993945D+03 0.000000000000000D+00 0.000000000000000D+00 0.301661606993945D+03
 0.301661606993945D+03 0.000000000000000D+00 0.000000000000000D+00 -.301661606993945D+03
 0.267382475898600D+03 -.526292441664505D+02 -.138146138781270D+03 0.203282916330811D+03
 0.105196099956414D+03 0.463454735874790D+02 0.276567086513364D+02 -.902963066274983D+02
 0.129170727843627D+03 -.244771649859484D+02 0.942997586249896D+02 -.848145084827580D+02
 0.101573910289249D+03 0.307609355649200D+02 0.161896715049439D+02 -.281721012205545D+02
 0.000000000000000D+00 -.000000000000000D+00 -.000000000000000D+00 0.000000000000000D+00
 0.103739383163741D+04 0.000000000000000D+00 0.000000000000000D+00 0.103739383163741D+04
 0.307474167457716D+03 0.000000000000000D+00 0.000000000000000D+00 -.307474167457716D+03
 0.260152543086788D+03 -.147144030041348D+02 -.133505193167890D+03 0.203282916330811D+03
 0.113491134841011D+03 0.620628979729113D+02 0.295805914771387D+02 -.902963066274983D+02
 0.128663292712142D+03 -.594619437016821D+01 0.965680320544576D+02 -.848145084827580D+02
 0.107375957526236D+03 0.457785187849837D+02 0.180278906516456D+02 -.281721012205545D+02
 0.735185070928949D+03 -.871808193835920D+02 -.106713210153520D+02 0.729919664179693D+03
0.422085560302D-05 0.000000000000D+00 0.000000000000D+00 0.456188781021D-07 0.000000000000D+00  7 -2 2 23 -11 11 23 21 0 0.52676084D-01 0.40888379D-01 0.44664063D+05 0.44664063D+05 0.44664063D+05 0.11516316D+01  1  2  2  2  7  2        2 0.221697857773D-03 0.100000000000D+01
-.198390257125D-06 0.000000000000D+00 -.162091968924D-07 0.456188781021D-07 0.000000000000D+00  7 -2 2 23 -11 11 23 21 2 0.52676084D-01 0.40888379D-01 0.44664063D+05 0.44664063D+05 0.44664063D+05 0.11516316D+01  1  2  3  2  7  2        2 -.138200130749D-04 0.100000000000D+01
0.253363109526D-06 0.000000000000D+00 0.000000000000D+00 0.456188781021D-07 0.000000000000D+00  7 -2 2 23 -11 11 23 21 2 0.52676084D-01 0.40888379D-01 0.44664063D+05 0.44664063D+05 0.44664063D+05 0.11516316D+01  1  2 15  2  7  2        2 0.176494629177D-04 0.100000000000D+01
  </mgrwgt>
  </event>
  <event>
  8     66 0.53686478E-06 0.13146992E+03 0.75467711E-02 0.93902234E-01
       -2 -1    0    0    0  501 0.00000000E+00 0.00000000E+00 0.21590457E+03 0.21590481E+03 0.32000000E+00 0.0000E+00 0.9000E+01
        2 -1    0    0  501    0 0.00000000E+00 0.00000000E+00 -.96739386E+03 0.96739392E+03 0.32000000E+00 0.0000E+00 0.9000E+01
       25  2    1    2    0    0 -.10246379E+03 -.32886162E+03 -.13822152E+03 0.47413431E+03 0.29504128E+03 0.0000E+00 0.0000E+00
       23  2    1    2    0    0 0.10246379E+03 0.32886162E+03 -.61326776E+03 0.70916442E+03 0.90377154E+02 0.0000E+00 0.0000E+00
       23  1    3    3    0    0 0.69503861E+02 -.92911266E+02 -.49347110E+02 0.15560745E+03 0.91188000E+02 0.0000E+00 0.9000E+01
      -13  1    4    4    0    0 0.10278127E+02 0.91744161E+02 -.24276383E+03 0.25972470E+03 0.10565837E+00 0.0000E+00 0.9000E+01
       13  1    4    4    0    0 0.92185667E+02 0.23711746E+03 -.37050394E+03 0.44943972E+03 0.10565837E+00 0.0000E+00 0.9000E+01
       23  1    3    3    0    0 -.17196765E+03 -.23595036E+03 -.88874415E+02 0.31852686E+03 0.91188000E+02 0.0000E+00 0.9000E+01
#aMCatNLO 1  0  0  1  2 0.23073425D+03 0.00000000D+00  -5  7  0 0.00000000D+00 0.00000000D+00 0.00000000D+00 0.00000000D+00 0.00000000D+00
  <mgrwgt>
 0.6582374064D-03    9    2    0
 0.457017430771837D+03 0.000000000000000D+00 0.000000000000000D+00 0.457017430771837D+03
 0.457017430771837D+03 0.000000000000000D+00 0.000000000000000D+00 -.457017430771837D+03
 0.160876001301715D+03 0.695038606065731D+02 -.929112661148842D+02 0.640511236477598D+02
 0.136643925773423D+03 0.102780155935973D+02 0.917439622694230D+02 -.100742097622282D+03
 0.277223441492023D+03 0.921857786891109D+02 0.237117660387391D+03 -.110135524934390D+03
 0.339291492976513D+03 -.171967654889281D+03 -.235950356541929D+03 0.146826498908912D+03
 0.000000000000000D+00 0.000000000000000D+00 -.000000000000000D+00 0.000000000000000D+00
 0.645278608638547D+03 0.000000000000000D+00 0.000000000000000D+00 0.645278608638547D+03
 0.547878826499565D+03 0.000000000000000D+00 0.000000000000000D+00 -.547878826499565D+03
 0.138493124124170D+03 0.381865689583692D+02 -.728308560729568D+02 0.640511236477598D+02
 0.151246916604335D+03 -.198385218441402D+02 0.111054457812466D+03 -.100742097622282D+03
 0.298638661722683D+03 0.319442911614068D+02 0.275744045602324D+03 -.110135524934390D+03
 0.354329111845508D+03 -.244527972335219D+03 -.189425230951434D+03 0.146826498908912D+03
 0.250449620841416D+03 0.194235634059583D+03 -.124542416390400D+03 0.973997821389822D+02
0.213033914777D-04 0.000000000000D+00 0.000000000000D+00 0.102522885776D-07 0.000000000000D+00  7 -2 2 23 -13 13 23 21 0 0.33216111D-01 0.14882985D+00 0.16007102D+06 0.16007102D+06 0.16007102D+06 0.11053317D+01  1  2  2  1  7  1       -2 0.589874368524D-03 0.100000000000D+01
-.115805401625D-05 0.000000000000D+00 -.818106325863D-07 0.102522885776D-07 0.000000000000D+00  7 -2 2 23 -13 13 23 21 2 0.33216111D-01 0.14882985D+00 0.16007102D+06 0.16007102D+06 0.16007102D+06 0.11053317D+01  1  2  3  1  7  1       -2 -.391764281464D-04 0.100000000000D+01
0.138867909029D-05 0.000000000000D+00 0.000000000000D+00 0.102522885776D-07 0.000000000000D+00  7 -2 2 23 -13 13 23 21 2 0.33216111D-01 0.14882985D+00 0.16007102D+06 0.16007102D+06 0.16007102D+06 0.11053317D+01  1  2 15  1  7  1       -2 0.469783670156D-04 0.100000000000D+01
0.503232580946D-05 0.000000000000D+00 0.000000000000D+00 0.102522885776D-07 0.000000000000D+00  7 -2 2 23 -13 13 23 21 2 0.49108290D-01 0.14882985D+00 0.28430393D+06 0.28430393D+06 0.28430393D+06 0.10862828D+01  1  2 12  1  7  1       -2 0.776458203228D-04 0.100000000000D+01
-.107458876013D-04 0.000000000000D+00 0.000000000000D+00 0.102522885776D-07 0.000000000000D+00  7 -2 2 23 -13 13 23 21 2 0.33216111D-01 0.14882985D+00 0.16007102D+06 0.16007102D+06 0.16007102D+06 0.11053317D+01  1  2  4  1  7  1       -2 -.363528373956D-03 0.100000000000D+01
-.128425226390D-04 0.000000000000D+00 -.752060574442D-05 0.102522885776D-07 0.000000000000D+00  7 -2 2 23 -13 13 23 21 2 0.55386653D-01 0.14882985D+00 0.16007102D+06 0.16007102D+06 0.16007102D+06 0.11053317D+01  1  2  5  1  7  1       -2 -.164226258258D-03 0.100000000000D+01
0.155030749154D-04 0.000000000000D+00 0.663433553106D-05 0.102522885776D-07 0.000000000000D+00  7 -2 2 23 -13 13 23 21 2 0.33216111D-01 0.14882985D+00 0.16007102D+06 0.16007102D+06 0.16007102D+06 0.11053317D+01  1  2  6  1  7  1       -2 0.524461805710D-03 0.100000000000D+01
0.235575415638D-06 0.000000000000D+00 0.000000000000D+00 0.102522885776D-07 0.000000000000D+00  7 21 2 23 -13 13 23 2 2 0.49108290D-01 0.14882985D+00 0.28430393D+06 0.28430393D+06 0.28430393D+06 0.10862828D+01  1  2 12  3  7  1       -2 0.381158614384D-04 0.100000000000D+01
-.389345817413D-06 0.000000000000D+00 -.431652156519D-06 0.102522885776D-07 0.000000000000D+00  7 21 2 23 -13 13 23 2 2 0.55386653D-01 0.14882985D+00 0.16007102D+06 0.16007102D+06 0.16007102D+06 0.11053317D+01  1  2  5  3  7  1       -2 -.519077562795D-04 0.100000000000D+01
  </mgrwgt>
  </event>
  <event>
  8     66 0.53686478E-06 0.24480912E+03 0.75467711E-02 0.94730419E-01
       -2 -1    0    0    0  501 0.00000000E+00 0.00000000E+00 0.88972078E+03 0.88972084E+03 0.32000000E+00 0.0000E+00 0.9000E+01
        2 -1    0    0  501    0 0.00000000E+00 0.00000000E+00 -.20228564E+03 0.20228589E+03 0.32000000E+00 0.0000E+00 0.9000E+01
       25  2    1    2    0    0 -.31233240E+03 0.71699958E+02 0.60732587E+03 0.74949627E+03 0.30034569E+03 0.0000E+00 0.0000E+00
       23  2    1    2    0    0 0.31233240E+03 -.71699958E+02 0.80109269E+02 0.34251046E+03 0.90573219E+02 0.0000E+00 0.0000E+00
       23  1    3    3    0    0 -.24276669E+02 -.56154988E+02 0.12808178E+03 0.16870961E+03 0.91188000E+02 0.0000E+00 0.9000E+01
      -11  1    4    4    0    0 0.27031349E+02 -.36129874E+02 0.16525416E+02 0.48053626E+02 0.51099893E-03 0.0000E+00 0.9000E+01
       11  1    4    4    0    0 0.28530105E+03 -.35570084E+02 0.63583853E+02 0.29445683E+03 0.51099893E-03 0.0000E+00 0.9000E+01
       23  1    3    3    0    0 -.28805573E+03 0.12785495E+03 0.47924409E+03 0.58078666E+03 0.91188000E+02 0.0000E+00 0.9000E+01
#aMCatNLO 1  0  0  1  2 0.19671400D+03 0.00000000D+00  -5  7  0 0.00000000D+00 0.00000000D+00 0.00000000D+00 0.00000000D+00 0.00000000D+00
  <mgrwgt>
 0.2373914465D-03    9    2    0
 0.424238027945342D+03 0.000000000000000D+00 0.000000000000000D+00 0.424238027945342D+03
 0.424238027945342D+03 0.000000000000000D+00 0.000000000000000D+00 -.424238027945342D+03
 0.113361023485503D+03 -.242766687567373D+02 -.561549875679148D+02 0.281554795200457D+02
 0.484571497371682D+02 0.270313491071247D+02 -.361298737799155D+02 -.176644769734758D+02
 0.327456578132704D+03 0.285301048747969D+03 -.355700837965747D+02 -.156735099082475D+03
 0.359201304535309D+03 -.288055729098357D+03 0.127854945144405D+03 0.146244096535905D+03
 0.000000000000000D+00 -.000000000000000D+00 0.000000000000000D+00 0.000000000000000D+00
 0.553998065397170D+03 0.000000000000000D+00 0.000000000000000D+00 0.553998065397170D+03
 0.517123313584494D+03 0.000000000000000D+00 0.000000000000000D+00 -.517123313584494D+03
 0.122921734616649D+03 -.722852246189144D+01 -.771331247466366D+02 0.281554795200457D+02
 0.601954575152867D+02 0.348707935026208D+02 -.457764909011799D+02 -.176644769734758D+02
 0.384257693180910D+03 0.336652273504871D+03 -.987589501175621D+02 -.156735099082475D+03
 0.303606179589457D+03 -.240233200508300D+03 0.690082208352129D+02 0.146244096535905D+03
 0.200140314079360D+03 -.124061344037300D+03 0.152660344930166D+03 0.368747518126763D+02
0.222258573849D-04 0.000000000000D+00 0.000000000000D+00 0.675088699719D-06 0.000000000000D+00  7 -2 2 23 -11 11 23 21 0 0.13688014D+00 0.31120891D-01 0.14842687D+06 0.14842687D+06 0.14842687D+06 0.11079134D+01  1  2  2  1  7  1       -2 0.176264777814D-03 0.100000000000D+01
-.122082676612D-05 0.000000000000D+00 -.853531445607D-07 0.675088699719D-06 0.000000000000D+00  7 -2 2 23 -11 11 23 21 2 0.13688014D+00 0.31120891D-01 0.14842687D+06 0.14842687D+06 0.14842687D+06 0.11079134D+01  1  2  3  1  7  1       -2 -.118842749694D-04 0.100000000000D+01
0.148102017628D-05 0.000000000000D+00 0.000000000000D+00 0.675088699719D-06 0.000000000000D+00  7 -2 2 23 -11 11 23 21 2 0.13688014D+00 0.31120891D-01 0.14842687D+06 0.14842687D+06 0.14842687D+06 0.11079134D+01  1  2 15  1  7  1       -2 0.144171568798D-04 0.100000000000D+01
0.617246530662D-05 0.000000000000D+00 0.000000000000D+00 0.675088699719D-06 0.000000000000D+00  7 -2 2 23 -11 11 23 21 2 0.18989790D+00 0.31120891D-01 0.24542853D+06 0.24542853D+06 0.24542853D+06 0.10910626D+01  1  2 12  1  7  1       -2 0.227236318788D-04 0.100000000000D+01
-.941351650706D-05 0.000000000000D+00 0.000000000000D+00 0.675088699719D-06 0.000000000000D+00  7 -2 2 23 -11 11 23 21 2 0.13688014D+00 0.31120891D-01 0.14842687D+06 0.14842687D+06 0.14842687D+06 0.11079134D+01  1  2  4  1  7  1       -2 -.916369313842D-04 0.100000000000D+01
-.165738155598D-04 0.000000000000D+00 -.812246162294D-05 0.675088699719D-06 0.000000000000D+00  7 -2 2 23 -11 11 23 21 2 0.20402940D+00 0.31120891D-01 0.14842687D+06 0.14842687D+06 0.14842687D+06 0.11079134D+01  1  2  5  1  7  1       -2 -.512499416963D-04 0.100000000000D+01
0.188971744944D-04 0.000000000000D+00 0.751573804326D-05 0.675088699719D-06 0.000000000000D+00  7 -2 2 23 -11 11 23 21 2 0.13688014D+00 0.31120891D-01 0.14842687D+06 0.14842687D+06 0.14842687D+06 0.11079134D+01  1  2  6  1  7  1       -2 0.183956662869D-03 0.100000000000D+01
0.254108522293D-06 0.000000000000D+00 0.000000000000D+00 0.675088699719D-06 0.000000000000D+00  7 21 2 23 -11 11 23 2 2 0.18989790D+00 0.31120891D-01 0.24542853D+06 0.24542853D+06 0.24542853D+06 0.10910626D+01  1  2 12  3  7  1       -2 0.755680859459D-05 0.100000000000D+01
-.511245879168D-06 0.000000000000D+00 -.386030293271D-06 0.675088699719D-06 0.000000000000D+00  7 21 2 23 -11 11 23 2 2 0.20402940D+00 0.31120891D-01 0.14842687D+06 0.14842687D+06 0.14842687D+06 0.11079134D+01  1  2  5  3  7  1       -2 -.127564434671D-04 0.100000000000D+01
  </mgrwgt>
  </event>
  <event>
  9     66 0.53686478E-06 0.25339176E+03 0.75467711E-02 0.98901166E-01
       -2 -1    0    0    0  501 0.00000000E+00 0.00000000E+00 0.55422360E+03 0.55422369E+03 0.32000000E+00 0.0000E+00 0.9000E+01
        2 -1    0    0  502    0 0.00000000E+00 0.00000000E+00 -.88331770E+03 0.88331776E+03 0.32000000E+00 0.0000E+00 0.9000E+01
       25  2    1    2    0    0 -.12084582E+03 -.21006252E+03 0.45122256E+03 0.59447938E+03 0.30178462E+03 0.0000E+00 0.0000E+00
       23  2    1    2    0    0 0.50988746E+02 0.43977904E+02 -.41556649E+03 0.43623610E+03 0.11433513E+03 0.0000E+00 0.0000E+00
       23  1    3    3    0    0 -.12492563E+03 -.24252383E+03 0.30661507E+03 0.42041916E+03 0.91188000E+02 0.0000E+00 0.9000E+01
      -13  1    4    4    0    0 0.69059649E+02 0.71725220E+02 -.30973945E+03 0.32534947E+03 0.10565837E+00 0.0000E+00 0.9000E+01
       13  1    4    4    0    0 -.18070903E+02 -.27747316E+02 -.10582704E+03 0.11088663E+03 0.10565837E+00 0.0000E+00 0.9000E+01
       23  1    3    3    0    0 0.40798066E+01 0.32461309E+02 0.14460749E+03 0.17406022E+03 0.91188000E+02 0.0000E+00 0.9000E+01
       21  1    1    2  502  501 0.69857074E+02 0.16608462E+03 -.36475018E+03 0.40682596E+03 0.75000000E+00 0.0000E+00 0.9000E+01
#aMCatNLO 2  0  0  2  1 0.18017800D+03 0.00000000D+00  -5  7  0 0.00000000D+00 0.00000000D+00 0.00000000D+00 0.00000000D+00 0.00000000D+00
  <mgrwgt>
 0.2129079152D-03    2    2    0
 0.507109196490217D+03 0.000000000000000D+00 0.000000000000000D+00 0.507109196490217D+03
 0.507109196490217D+03 0.000000000000000D+00 0.000000000000000D+00 -.507109196490217D+03
 0.368158820053108D+03 -.983329180319089D+02 -.179299882855203D+03 0.292246222693018D+03
 0.358033150142722D+03 0.927848319852056D+02 0.128131587491214D+03 -.321186873706849D+03
 0.110622068348556D+03 -.103742572597749D+02 -.944854771060741D+01 -.109728491004756D+03
 0.177404354436047D+03 0.159223433064782D+02 0.606168430745956D+02 0.138669142018588D+03
 0.000000000000000D+00 0.000000000000000D+00 0.000000000000000D+00 -.000000000000000D+00
 0.535371241956413D+03 0.000000000000000D+00 0.000000000000000D+00 0.535371241956413D+03
 0.914421604208656D+03 0.000000000000000D+00 0.000000000000000D+00 -.914421604208656D+03
 0.410057713526963D+03 -.124925628945137D+03 -.242523833124264D+03 0.292246222693018D+03
 0.336265911908511D+03 0.690596945102719D+02 0.717252693562803D+02 -.321186873706849D+03
 0.114615953159345D+03 -.180709449221049D+02 -.277473589746219D+02 -.109728491004756D+03
 0.169158989013781D+03 0.407980539086002D+01 0.324613071204149D+02 0.138669142018588D+03
 0.419694278556468D+03 0.698570739661095D+02 0.166084615622191D+03 -.379050362252243D+03
-.775424951978D-05 0.000000000000D+00 0.000000000000D+00 0.612566788094D-09 0.000000000000D+00  7 -2 2 23 -13 13 23 21 2 0.80764015D-01 0.13646965D+00 0.12158579D+06 0.12158579D+06 0.12158579D+06 0.11148223D+01  1  2 13  2  7  2        2 -.513982671566D-04 0.100000000000D+01
0.448152901872D-04 0.000000000000D+00 0.000000000000D+00 0.612566788094D-09 0.150127179694D-12  7 -2 2 23 -13 13 23 21 2 0.85265129D-01 0.13589496D+00 0.12158579D+06 0.12158579D+06 0.12158579D+06 0.11148223D+01  1  2  1  2  7  2        2 0.264306182322D-03 0.100000000000D+01
  </mgrwgt>
  </event>
  <event>
  8     66 0.53686478E-06 0.23141266E+03 0.75467711E-02 0.86569241E-01
       -2 -1    0    0    0  501 0.00000000E+00 0.00000000E+00 0.10176459E+03 0.10176509E+03 0.32000000E+00 0.0000E+00 0.9000E+01
        2 -1    0    0  501    0 0.00000000E+00 0.00000000E+00 -.67409081E+03 0.67409089E+03 0.32000000E+00 0.0000E+00 0.9000E+01
       25  2    1    2    0    0 -.17706827E+02 -.14942517E+03 -.25151451E+03 0.40954810E+03 0.28605714E+03 0.0000E+00 0.0000E+00
       23  2    1    2    0    0 0.17706827E+02 0.14942517E+03 -.32081172E+03 0.36630788E+03 0.92843354E+02 0.0000E+00 0.0000E+00
       23  1    3    3    0    0 -.95808887E+02 -.13659427E+03 -.20644609E+03 0.28066452E+03 0.91188000E+02 0.0000E+00 0.9000E+01
      -11  1    4    4    0    0 0.17641827E+02 0.60620851E+02 -.23306515E+03 0.24146529E+03 0.51099893E-03 0.0000E+00 0.9000E+01
       11  1    4    4    0    0 0.65000096E-01 0.88804322E+02 -.87746572E+02 0.12484259E+03 0.51099893E-03 0.0000E+00 0.9000E+01
       23  1    3    3    0    0 0.78102060E+02 -.12830908E+02 -.45068419E+02 0.12888358E+03 0.91188000E+02 0.0000E+00 0.9000E+01
#aMCatNLO 1  0  0  1  1 0.10341935D+04 0.00000000D+00  -5  7  0 0.00000000D+00 0.00000000D+00 0.00000000D+00 0.00000000D+00 0.00000000D+00
  <mgrwgt>
 0.7304756690D-03    5    2    0
 0.261913725305463D+03 0.000000000000000D+00 0.000000000000000D+00 0.261913725305463D+03
 0.261913725305463D+03 0.000000000000000D+00 0.000000000000000D+00 -.261913725305463D+03
 0.190140358786755D+03 -.958088869866314D+02 -.136594265183337D+03 0.876692057127372D+00
 0.102997639852838D+03 0.176418272754359D+02 0.606208507526881D+02 -.813780818135868D+02
 0.890373492608746D+02 0.650001025657385D-01 0.888043224449237D+02 0.643720851671419D+01
 0.141652102710460D+03 0.781020596086298D+02 -.128309080142752D+02 0.740641812397452D+02
 0.000000000000000D+00 -.000000000000000D+00 -.000000000000000D+00 0.000000000000000D+00
 0.116026085133802D+04 0.000000000000000D+00 0.000000000000000D+00 0.116026085133802D+04
 0.104017092887996D+04 0.000000000000000D+00 0.000000000000000D+00 -.104017092887996D+04
 0.975650193771812D+02 0.316768090597058D+02 -.141241934602174D+02 0.876692057127372D+00
 0.335977675167616D+03 0.212157042596349D+03 0.247483323252595D+03 -.813780818135868D+02
 0.318604694467644D+03 0.180696067947497D+03 0.262328886536818D+03 0.643720851671419D+01
 0.407141818177933D+03 0.321279213393325D+03 0.220779013640078D+03 0.740641812397452D+02
 0.104114257302760D+04 -.745809132996876D+03 -.716467029969274D+03 0.120089922458060D+03
0.444837999790D-05 0.000000000000D+00 0.000000000000D+00 0.332895695947D-09 0.000000000000D+00  7 -2 2 23 -11 11 23 21 0 0.15656135D-01 0.10370632D+00 0.53551821D+05 0.53551821D+05 0.53551821D+05 0.11446830D+01  1  2  2  1  7  1       -2 0.698599752848D-03 0.100000000000D+01
-.242526044779D-06 0.000000000000D+00 -.170829504773D-07 0.332895695947D-09 0.000000000000D+00  7 -2 2 23 -11 11 23 21 2 0.15656135D-01 0.10370632D+00 0.53551821D+05 0.53551821D+05 0.53551821D+05 0.11446830D+01  1  2  3  1  7  1       -2 -.499063041139D-04 0.100000000000D+01
0.289988492208D-06 0.000000000000D+00 0.000000000000D+00 0.332895695947D-09 0.000000000000D+00  7 -2 2 23 -11 11 23 21 2 0.15656135D-01 0.10370632D+00 0.53551821D+05 0.53551821D+05 0.53551821D+05 0.11446830D+01  1  2 15  1  7  1       -2 0.596729885025D-04 0.100000000000D+01
0.163623128415D-04 0.000000000000D+00 -.482481283264D-05 0.332895695947D-09 0.000000000000D+00  7 -2 2 23 -11 11 23 21 2 0.24983179D+00 0.10370632D+00 0.53551821D+05 0.53551821D+05 0.53551821D+05 0.11446830D+01  1  2  5  1  7  1       -2 0.754863423008D-05 0.100000000000D+01
0.394957839842D-05 0.000000000000D+00 -.149083149199D-05 0.332895695947D-09 0.000000000000D+00  7 21 2 23 -11 11 23 2 2 0.24983179D+00 0.10370632D+00 0.53551821D+05 0.53551821D+05 0.53551821D+05 0.11446830D+01  1  2  5  3  7  1       -2 0.145605975348D-04 0.100000000000D+01
  </mgrwgt>
  </event>
  <event>
  8     66 -.53686478E-06 0.55086288E+03 0.75467711E-02 0.93122874E-01
       -2 -1    0    0    0  502 0.00000000E+00 0.00000000E+00 0.31315010E+03 0.31315026E+03 0.32000000E+00 0.0000E+00 0.9000E+01
        2 -1    0    0  501    0 0.00000000E+00 0.00000000E+00 -.22460842E+04 0.22460842E+04 0.32000000E+00 0.0000E+00 0.9000E+01
       23  2    1    2    0    0 0.35295976E+03 0.39091965E+03 -.55181604E+03 0.76866571E+03 0.94590045E+02 0.0000E+00 0.0000E+00
       23  1    1    2    0    0 -.42855409E+02 -.20118414E+03 -.13350121E+04 0.13538405E+04 0.91188000E+02 0.0000E+00 0.9000E+01
      -11  1    3    3    0    0 0.32272650E+03 0.31866826E+03 -.43805772E+03 0.63055247E+03 0.51099893E-03 0.0000E+00 0.9000E+01
       11  1    3    3    0    0 0.30233264E+02 0.72251384E+02 -.11375832E+03 0.13811324E+03 0.51099893E-03 0.0000E+00 0.9000E+01
       23  1    1    2    0    0 -.28621122E+03 -.13849227E+03 0.40554410E+02 0.33325198E+03 0.91188000E+02 0.0000E+00 0.9000E+01
       21  1    1    2  501  502 -.23893136E+02 -.51243241E+02 -.86660368E+02 0.10347625E+03 0.75000000E+00 0.0000E+00 0.9000E+01
#aMCatNLO 2  0  0  1  2 0.56539824D+02 0.00000000D+00  -5  7  0 0.00000000D+00 0.00000000D+00 0.00000000D+00 0.00000000D+00 0.00000000D+00
  <mgrwgt>
 -.3463322144D-02    3    2    0
 0.809139215183662D+03 0.000000000000000D+00 0.000000000000000D+00 0.809139215183662D+03
 0.809139215183662D+03 0.000000000000000D+00 0.000000000000000D+00 -.809139215183662D+03
 0.538374947592468D+03 -.507477669618880D+02 -.218110760956388D+03 -.481024628220427D+03
 0.442241220329643D+03 0.316091425475420D+03 0.304438122090407D+03 0.545979625776989D+02
 0.770689224512244D+02 0.290759043032844D+02 0.697692124489841D+02 -.150488401874556D+02
 0.560593339993989D+03 -.294419562816816D+03 -.156096573583003D+03 0.441475505830184D+03
 0.000000000000000D+00 -.000000000000000D+00 -.000000000000000D+00 -.000000000000000D+00
 0.831968550019594D+03 0.000000000000000D+00 0.000000000000000D+00 0.831968550019594D+03
 0.845413762506835D+03 0.000000000000000D+00 0.000000000000000D+00 -.845413762506835D+03
 0.531047633609517D+03 -.428554087278906D+02 -.201184141538126D+03 -.481024628220427D+03
 0.456818118970433D+03 0.322726499864257D+03 0.318668264167323D+03 0.545979625776989D+02
 0.797545004824289D+02 0.302332640364994D+02 0.722513840830295D+02 -.150488401874556D+02
 0.551645577470881D+03 -.286211219237087D+03 -.138492265249671D+03 0.441475505830184D+03
 0.581164819931695D+02 -.238931359357781D+02 -.512432414625553D+02 -.134452124872416D+02
-.233052776761D-02 0.000000000000D+00 0.000000000000D+00 0.265074033419D-10 0.000000000000D+00  7 -2 2 23 -11 11 23 21 2 0.49190068D-01 0.33072374D+00 0.32728968D+06 0.32728968D+06 0.32728968D+06 0.10817655D+01  1  2 13  1  7  1       -2 -.764368870535D-02 0.100000000000D+01
-.286347202005D-03 0.000000000000D+00 0.000000000000D+00 0.265074033419D-10 0.000000000000D+00  7 -2 2 23 -11 11 23 21 2 0.46854835D-01 0.33072374D+00 0.30344991D+06 0.30344991D+06 0.30344991D+06 0.10841847D+01  1  2  8  1  7  1       -2 -.104232057356D-02 0.100000000000D+01
0.173002386541D-02 0.000000000000D+00 0.000000000000D+00 0.265074033419D-10 0.518192092835D-13  7 -2 2 23 -11 11 23 21 2 0.48176813D-01 0.34555043D+00 0.32728968D+06 0.32728968D+06 0.32728968D+06 0.10817655D+01  1  2  1  1  7  1       -2 0.522268713500D-02 0.100000000000D+01
  </mgrwgt>
  </event>
  <event>
  8     66 0.53686478E-06 0.18820816E+03 0.75467711E-02 0.10119153E+00
       -2 -1    0    0    0  501 0.00000000E+00 0.00000000E+00 0.26907121E+03 0.26907140E+03 0.32000000E+00 0.0000E+00 0.9000E+01
        2 -1    0    0  501    0 0.00000000E+00 0.00000000E+00 -.39310903E+03 0.39310916E+03 0.32000000E+00 0.0000E+00 0.9000E+01
       25  2    1    2    0    0 0.84393654E+02 -.47524727E+02 0.15729431E+03 0.35111435E+03 0.29859487E+03 0.0000E+00 0.0000E+00
       23  2    1    2    0    0 -.84393654E+02 0.47524727E+02 -.28133213E+03 0.31106620E+03 0.90738798E+02 0.0000E+00 0.0000E+00
       23  1    3    3    0    0 0.31715144E+02 -.11612486E+03 0.16043896E+01 0.15102536E+03 0.91188000E+02 0.0000E+00 0.9000E+01
      -13  1    4    4    0    0 -.11360372E+02 0.17254254E+02 -.19923097E+01 0.20754464E+02 0.10565837E+00 0.0000E+00 0.9000E+01
       13  1    4    4    0    0 -.73033283E+02 0.30270473E+02 -.27933982E+03 0.29031174E+03 0.10565837E+00 0.0000E+00 0.9000E+01
       23  1    3    3    0    0 0.52678511E+02 0.68600130E+02 0.15568992E+03 0.20008899E+03 0.91188000E+02 0.0000E+00 0.9000E+01
#aMCatNLO 1  0  0  2  2 0.20455180D+03 0.00000000D+00  -5  7  0 0.00000000D+00 0.00000000D+00 0.00000000D+00 0.00000000D+00 0.00000000D+00
  <mgrwgt>
 0.2455113131D-03    4    2    0
 0.325229805802668D+03 0.000000000000000D+00 0.000000000000000D+00 0.325229805802668D+03
 0.325229805802668D+03 0.000000000000000D+00 0.000000000000000D+00 -.325229805802668D+03
 0.154052699446335D+03 0.317151438653863D+02 -.116124857019844D+03 0.304327142138408D+02
 0.207482298084994D+02 -.113602882120151D+02 0.172542362013882D+02 0.192982513015019D+01
 0.242275277654607D+03 -.730333663310566D+02 0.302704907698444D+02 -.229013394703286D+03
 0.233383404695895D+03 0.526785106776855D+02 0.686001300486115D+02 0.196650855359295D+03
 0.000000000000000D+00 -.000000000000000D+00 0.000000000000000D+00 0.000000000000000D+00
 0.518875920108553D+03 0.000000000000000D+00 0.000000000000000D+00 0.518875920108553D+03
 0.399716896150361D+03 0.000000000000000D+00 0.000000000000000D+00 -.399716896150361D+03
 0.176765252849449D+03 0.819449314268701D+02 -.123651046861536D+03 0.304327142138408D+02
 0.174128858566065D+02 -.556609016543008D+01 0.163860614270955D+02 0.192982513015019D+01
 0.229848551664292D+03 -.134838223382317D+01 0.195295574450907D+02 -.229013394703286D+03
 0.257837772996243D+03 0.127263143192178D+03 0.574247273477781D+02 0.196650855359295D+03
 0.236728352892324D+03 -.202293602219795D+03 0.303107006415716D+02 0.119159023958192D+03
0.540482050392D-05 0.000000000000D+00 0.000000000000D+00 0.134432363633D-06 0.000000000000D+00  7 -2 2 23 -13 13 23 21 0 0.41395595D-01 0.60478336D-01 0.35422312D+05 0.35422312D+05 0.35422312D+05 0.11606998D+01  1  2  2  2  7  2        2 0.295151409738D-03 0.100000000000D+01
-.191038638543D-06 0.000000000000D+00 -.207559338570D-07 0.134432363633D-06 0.000000000000D+00  7 -2 2 23 -13 13 23 21 2 0.41395595D-01 0.60478336D-01 0.35422312D+05 0.35422312D+05 0.35422312D+05 0.11606998D+01  1  2  3  2  7  2        2 -.140547987867D-04 0.100000000000D+01
0.329744907526D-06 0.000000000000D+00 0.000000000000D+00 0.134432363633D-06 0.000000000000D+00  7 -2 2 23 -13 13 23 21 2 0.41395595D-01 0.60478336D-01 0.35422312D+05 0.35422312D+05 0.35422312D+05 0.11606998D+01  1  2 15  2  7  2        2 0.242594815456D-04 0.100000000000D+01
-.813434994890D-06 0.000000000000D+00 0.000000000000D+00 0.134432363633D-06 0.000000000000D+00  7 -2 2 23 -13 13 23 21 2 0.41395595D-01 0.60478336D-01 0.35422312D+05 0.35422312D+05 0.35422312D+05 0.11606998D+01  1  2  4  2  7  2        2 -.598447793935D-04 0.100000000000D+01
  </mgrwgt>
  </event>
  <event>
  8     66 0.53686478E-06 0.23841016E+03 0.75467711E-02 0.98418429E-01
       -2 -1    0    0    0  501 0.00000000E+00 0.00000000E+00 0.49901497E+02 0.49902523E+02 0.32000000E+00 0.0000E+00 0.9000E+01
        2 -1    0    0  501    0 0.00000000E+00 0.00000000E+00 -.28242853E+04 0.28242853E+04 0.32000000E+00 0.0000E+00 0.9000E+01
       25  2    1    2    0    0 -.22087312E+03 0.19726684E+03 -.19025702E+04 0.19487442E+04 0.30021903E+03 0.0000E+00 0.0000E+00
       23  2    1    2    0    0 0.22087312E+03 -.19726684E+03 -.87181366E+03 0.92544370E+03 0.93208532E+02 0.0000E+00 0.0000E+00
       23  1    3    3    0    0 -.20453221E+03 0.23200491E+03 -.14867347E+04 0.15213004E+04 0.91188000E+02 0.0000E+00 0.9000E+01
      -11  1    4    4    0    0 0.13761556E+03 -.11482797E+03 -.38417896E+03 0.42393039E+03 0.51099893E-03 0.0000E+00 0.9000E+01
       11  1    4    4    0    0 0.83257559E+02 -.82438867E+02 -.48763471E+03 0.50151331E+03 0.51099893E-03 0.0000E+00 0.9000E+01
       23  1    3    3    0    0 -.16340908E+02 -.34738071E+02 -.41583550E+03 0.42744377E+03 0.91188000E+02 0.0000E+00 0.9000E+01
#aMCatNLO 1  0  0  2  1 0.74199271D+01 0.00000000D+00  -5  7  0 0.00000000D+00 0.00000000D+00 0.00000000D+00 0.00000000D+00 0.00000000D+00
  <mgrwgt>
 0.5411635994D-03   11    2    0
 0.375416524164224D+03 0.000000000000000D+00 0.000000000000000D+00 0.375416524164224D+03
 0.375416524164224D+03 0.000000000000000D+00 0.000000000000000D+00 -.375416524164224D+03
 0.329940926224390D+03 -.204532214923110D+03 0.232004907608027D+03 -.699003530623838D+02
 0.203235197383543D+03 0.137615563923231D+03 -.114827969424667D+03 0.958177408386712D+02
 0.117945810011511D+03 0.832575593267047D+02 -.824388669959603D+02 -.135361044120537D+02
 0.997111147090035D+02 -.163409083268259D+02 -.347380711873999D+02 -.123812833642337D+02
 0.000000000000000D+00 -.000000000000000D+00 -.000000000000000D+00 -.000000000000000D+00
 0.377380052660320D+03 0.000000000000000D+00 0.000000000000000D+00 0.377380052660320D+03
 0.382510655484295D+03 0.000000000000000D+00 0.000000000000000D+00 -.382510655484295D+03
 0.331489316259470D+03 -.203494489747405D+03 0.235103910504203D+03 -.699003530623838D+02
 0.202600910150107D+03 0.138252284651960D+03 -.112926503190077D+03 0.958177408386712D+02
 0.117440301436984D+03 0.836268591835484D+02 -.813360111024059D+02 -.135361044120537D+02
 0.993391824093257D+02 -.160286161283689D+02 -.338054596924403D+02 -.123812833642337D+02
 0.902099788872745D+01 -.235603795973470D+01 -.703593651927964D+01 -.513060282397512D+01
0.430461455742D-05 0.000000000000D+00 0.000000000000D+00 0.260542662411D-06 0.000000000000D+00  7 -2 2 23 -11 11 23 21 0 0.76772337D-02 0.43450551D+00 0.12880480D+06 0.12880480D+06 0.12880480D+06 0.11128109D+01  1  2  2  2  7  2        2 0.118597386797D-03 0.100000000000D+01
-.238556205079D-06 0.000000000000D+00 -.165308533315D-07 0.260542662411D-06 0.000000000000D+00  7 -2 2 23 -11 11 23 21 2 0.76772337D-02 0.43450551D+00 0.12880480D+06 0.12880480D+06 0.12880480D+06 0.11128109D+01  1  2  3  2  7  2        2 -.813906180318D-05 0.100000000000D+01
0.272858614952D-06 0.000000000000D+00 0.000000000000D+00 0.260542662411D-06 0.000000000000D+00  7 -2 2 23 -11 11 23 21 2 0.76772337D-02 0.43450551D+00 0.12880480D+06 0.12880480D+06 0.12880480D+06 0.11128109D+01  1  2 15  2  7  2        2 0.930939159554D-05 0.100000000000D+01
0.378273562377D-05 0.000000000000D+00 0.000000000000D+00 0.260542662411D-06 0.000000000000D+00  7 -2 2 23 -11 11 23 21 2 0.76772337D-02 0.44383861D+00 0.13147460D+06 0.13147460D+06 0.13147460D+06 0.11120982D+01  1  2 12  2  7  2        2 0.118322480248D-03 0.100000000000D+01
-.459851125881D-05 0.000000000000D+00 0.000000000000D+00 0.260542662411D-06 0.000000000000D+00  7 -2 2 23 -11 11 23 21 2 0.76772337D-02 0.43450551D+00 0.12880480D+06 0.12880480D+06 0.12880480D+06 0.11128109D+01  1  2  4  2  7  2        2 -.156892030227D-03 0.100000000000D+01
-.159489820584D-03 0.000000000000D+00 -.171484278637D-04 0.260542662411D-06 0.000000000000D+00  7 -2 2 23 -11 11 23 21 2 0.76772337D-02 0.44343730D+00 0.12880480D+06 0.12880480D+06 0.12880480D+06 0.11128109D+01  1  2  5  2  7  2        2 -.501740951767D-02 0.100000000000D+01
0.159809218271D-03 0.000000000000D+00 0.171448784738D-04 0.260542662411D-06 0.000000000000D+00  7 -2 2 23 -11 11 23 21 2 0.76772337D-02 0.43450551D+00 0.12880480D+06 0.12880480D+06 0.12880480D+06 0.11128109D+01  1  2  6  2  7  2        2 0.545237171172D-02 0.100000000000D+01
0.831427783742D-06 0.000000000000D+00 0.000000000000D+00 0.260542662411D-06 0.312194077994D-07  7 -2 2 23 -11 11 23 21 2 0.77173877D-02 0.44271623D+00 0.13147460D+06 0.13147460D+06 0.13147460D+06 0.11120982D+01  1  2 11  2  7  2        2 0.260672487704D-04 0.100000000000D+01
0.166764889302D-06 0.000000000000D+00 0.000000000000D+00 0.260542662411D-06 0.000000000000D+00  7 -2 21 23 -11 11 23 -2 2 0.76772337D-02 0.44383861D+00 0.13147460D+06 0.13147460D+06 0.13147460D+06 0.11120982D+01  1  2 12  4  7  2        2 0.418900547132D-06 0.100000000000D+01
-.587737721249D-06 0.000000000000D+00 -.634729097056D-07 0.260542662411D-06 0.000000000000D+00  7 -2 21 23 -11 11 23 -2 2 0.76772337D-02 0.44343730D+00 0.12880480D+06 0.12880480D+06 0.12880480D+06 0.11128109D+01  1  2  5  4  7  2        2 -.149118784747D-05 0.100000000000D+01
0.326008964234D-08 0.000000000000D+00 0.000000000000D+00 0.260542662411D-06 0.106716775483D-09  7 -2 21 23 -11 11 23 -2 2 0.77173877D-02 0.44271623D+00 0.13147460D+06 0.13147460D+06 0.13147460D+06 0.11120982D+01  1  2 11  4  7  2        2 0.827722722564D-08 0.100000000000D+01
  </mgrwgt>
  </event>
  <event>
  8     66 0.53686478E-06 0.32334328E+03 0.75467711E-02 0.86616051E-01
       -2 -1    0    0    0  501 0.00000000E+00 0.00000000E+00 0.13458604E+04 0.13458604E+04 0.32000000E+00 0.0000E+00 0.9000E+01
        2 -1    0    0  501    0 0.00000000E+00 0.00000000E+00 -.10315235E+04 0.10315236E+04 0.32000000E+00 0.0000E+00 0.9000E+01
       25  2    1    2    0    0 -.62488769E+03 -.76502263E+03 -.44922150E+03 0.11256955E+04 0.29940966E+03 0.0000E+00 0.0000E+00
       23  2    1    2    0    0 0.62488769E+03 0.76502263E+03 0.76355837E+03 0.12516885E+04 0.89210334E+02 0.0000E+00 0.0000E+00
       23  1    3    3    0    0 -.22414381E+03 -.15391769E+03 -.61070979E+02 0.29321667E+03 0.91188000E+02 0.0000E+00 0.9000E+01
      -11  1    4    4    0    0 0.25873002E+03 0.26511012E+03 0.25040175E+03 0.44713045E+03 0.51099893E-03 0.0000E+00 0.9000E+01
       11  1    4    4    0    0 0.36615767E+03 0.49991251E+03 0.51315662E+03 0.80455806E+03 0.51099893E-03 0.0000E+00 0.9000E+01
       23  1    3    3    0    0 -.40074388E+03 -.61110494E+03 -.38815052E+03 0.83247882E+03 0.91188000E+02 0.0000E+00 0.9000E+01
#aMCatNLO 1  0  0  1  2 0.14770373D+03 0.00000000D+00  -5  7  0 0.00000000D+00 0.00000000D+00 0.00000000D+00 0.00000000D+00 0.00000000D+00
  <mgrwgt>
 0.2811935668D-03    9    2    0
 0.117825581154462D+04 0.000000000000000D+00 0.000000000000000D+00 0.117825581154462D+04
 0.117825581154462D+04 0.000000000000000D+00 0.000000000000000D+00 -.117825581154462D+04
 0.303960092840557D+03 -.224143811951119D+03 -.153917685731543D+03 -.100724298353016D+03
 0.417689546241369D+03 0.258730021101512D+03 0.265110121076420D+03 0.192976570917244D+03
 0.743233938569820D+03 0.366157670203635D+03 0.499912508120105D+03 0.410381203539001D+03
 0.891628045437486D+03 -.400743879354028D+03 -.611104943464982D+03 -.502633476103230D+03
 0.000000000000000D+00 0.000000000000000D+00 -.000000000000000D+00 0.000000000000000D+00
 0.131068768106653D+04 0.000000000000000D+00 0.000000000000000D+00 0.131068768106653D+04
 0.122248403898183D+04 0.000000000000000D+00 0.000000000000000D+00 -.122248403898183D+04
 0.309218264034895D+03 -.238925666021192D+03 -.141668010878874D+03 -.100724298353016D+03
 0.416625387847955D+03 0.238617240756436D+03 0.281777517361244D+03 0.192976570917244D+03
 0.747014704043536D+03 0.330232335076863D+03 0.529683717617236D+03 0.410381203539001D+03
 0.888277688633206D+03 -.443651960705083D+03 -.575547154664559D+03 -.502633476103230D+03
 0.172035675488765D+03 0.113728050892976D+03 -.942460694350474D+02 0.882036420846935D+02
0.483134967455D-03 0.000000000000D+00 0.000000000000D+00 0.844883053076D-06 0.000000000000D+00  7 -2 2 23 -11 11 23 21 0 0.20705545D+00 0.15869593D+00 0.10133846D+07 0.10133846D+07 0.10133846D+07 0.10474798D+01  1  2  2  1  7  1       -2 0.153317978939D-03 0.100000000000D+01
-.260324489220D-04 0.000000000000D+00 -.185536548738D-05 0.844883053076D-06 0.000000000000D+00  7 -2 2 23 -11 11 23 21 2 0.20705545D+00 0.15869593D+00 0.10133846D+07 0.10133846D+07 0.10133846D+07 0.10474798D+01  1  2  3  1  7  1       -2 -.906423072087D-05 0.100000000000D+01
0.297791518371D-04 0.000000000000D+00 0.000000000000D+00 0.844883053076D-06 0.000000000000D+00  7 -2 2 23 -11 11 23 21 2 0.20705545D+00 0.15869593D+00 0.10133846D+07 0.10133846D+07 0.10133846D+07 0.10474798D+01  1  2 15  1  7  1       -2 0.103687941051D-04 0.100000000000D+01
0.923607197736D-03 0.000000000000D+00 0.000000000000D+00 0.844883053076D-06 0.000000000000D+00  7 -2 2 23 -11 11 23 21 2 0.23390305D+00 0.15869593D+00 0.11727596D+07 0.11727596D+07 0.11727596D+07 0.10432878D+01  1  2 12  1  7  1       -2 0.208711953484D-03 0.100000000000D+01
-.914725534993D-03 0.000000000000D+00 0.000000000000D+00 0.844883053076D-06 0.000000000000D+00  7 -2 2 23 -11 11 23 21 2 0.20705545D+00 0.15869593D+00 0.10133846D+07 0.10133846D+07 0.10133846D+07 0.10474798D+01  1  2  4  1  7  1       -2 -.318498014547D-03 0.100000000000D+01
-.215307116694D-02 0.000000000000D+00 -.423227717948D-03 0.844883053076D-06 0.000000000000D+00  7 -2 2 23 -11 11 23 21 2 0.23465841D+00 0.15869593D+00 0.10133846D+07 0.10133846D+07 0.10133846D+07 0.10474798D+01  1  2  5  1  7  1       -2 -.489635210297D-03 0.100000000000D+01
0.219214023835D-02 0.000000000000D+00 0.419935104091D-03 0.844883053076D-06 0.000000000000D+00  7 -2 2 23 -11 11 23 21 2 0.20705545D+00 0.15869593D+00 0.10133846D+07 0.10133846D+07 0.10133846D+07 0.10474798D+01  1  2  6  1  7  1       -2 0.763280663775D-03 0.100000000000D+01
0.177594701919D-04 0.000000000000D+00 0.000000000000D+00 0.844883053076D-06 0.000000000000D+00  7 21 2 23 -11 11 23 2 2 0.23390305D+00 0.15869593D+00 0.11727596D+07 0.11727596D+07 0.11727596D+07 0.10432878D+01  1  2 12  3  7  1       -2 0.289679540176D-04 0.100000000000D+01
-.402001517499D-04 0.000000000000D+00 -.831771615474D-05 0.844883053076D-06 0.000000000000D+00  7 21 2 23 -11 11 23 2 2 0.23465841D+00 0.15869593D+00 0.10133846D+07 0.10133846D+07 0.10133846D+07 0.10474798D+01  1  2  5  3  7  1       -2 -.662563219433D-04 0.100000000000D+01
  </mgrwgt>
  </event>
  <event>
  8     66 0.53686478E-06 0.21169546E+03 0.75467711E-02 0.91667930E-01
       -2 -1    0    0    0  501 0.00000000E+00 0.00000000E+00 0.33246174E+02 0.33247714E+02 0.32000000E+00 0.0000E+00 0.9000E+01
        2 -1    0    0  501    0 0.00000000E+00 0.00000000E+00 -.20927648E+04 0.20927648E+04 0.32000000E+00 0.0000E+00 0.9000E+01
       25  2    1    2    0    0 -.10736094E+03 0.12461583E+03 -.14203445E+04 0.14607682E+04 0.29901455E+03 0.0000E+00 0.0000E+00
       23  2    1    2    0    0 0.10736094E+03 -.12461583E+03 -.63917417E+03 0.66524440E+03 0.83372758E+02 0.0000E+00 0.0000E+00
       23  1    3    3    0    0 -.97518567E+02 0.85961568E+02 -.12735607E+04 0.12834217E+04 0.91188000E+02 0.0000E+00 0.9000E+01
      -13  1    4    4    0    0 0.18553962E+02 -.14156329E+02 -.22235803E+02 0.32234969E+02 0.10565837E+00 0.0000E+00 0.9000E+01
       13  1    4    4    0    0 0.88806981E+02 -.11045951E+03 -.61693837E+03 0.63300944E+03 0.10565837E+00 0.0000E+00 0.9000E+01
       23  1    3    3    0    0 -.98423757E+01 0.38654266E+02 -.14678382E+03 0.17734645E+03 0.91188000E+02 0.0000E+00 0.9000E+01
#aMCatNLO 1  0  0  2  2 0.58519974D+03 0.00000000D+00  -5  7  0 0.00000000D+00 0.00000000D+00 0.00000000D+00 0.00000000D+00 0.00000000D+00
  <mgrwgt>
 0.5019856566D-03    3    2    0
 0.263776584721586D+03 0.000000000000000D+00 0.000000000000000D+00 0.263776584721586D+03
 0.263776584721586D+03 0.000000000000000D+00 0.000000000000000D+00 -.263776584721586D+03
 0.200261775450486D+03 -.975185696918180D+02 0.859615715072499D+02 -.122025670052849D+03
 0.430986171297765D+02 0.185538515958240D+02 -.141561794029194D+02 0.362332440470291D+02
 0.142525953342609D+03 0.888070957853072D+02 -.110459660826969D+03 -.150203343634467D+02
 0.141666823520302D+03 -.984237768931317D+01 0.386542687226386D+02 0.100812760369267D+03
 0.000000000000000D+00 0.000000000000000D+00 -.000000000000000D+00 0.000000000000000D+00
 0.764499810386946D+03 0.000000000000000D+00 0.000000000000000D+00 0.764499810386946D+03
 0.624989805179658D+03 0.000000000000000D+00 0.000000000000000D+00 -.624989805179658D+03
 0.439692257567990D+03 -.263973430158034D+03 0.316925533903455D+03 -.122025670052849D+03
 0.395941984214777D+02 -.295491366536029D+01 0.156882459088980D+02 0.362332440470291D+02
 0.558582314338229D+02 0.372064962236328D+02 -.388613974695401D+02 -.150203343634467D+02
 0.252745582599054D+03 -.112430780354863D+03 0.181000511476792D+03 0.100812760369267D+03
 0.601599345544261D+03 0.342152627954625D+03 -.474752893819605D+03 0.139510005207288D+03
0.368305869612D-05 0.000000000000D+00 0.000000000000D+00 0.174752050190D-08 0.000000000000D+00  7 -2 2 23 -13 13 23 21 0 0.51149164D-02 0.32196394D+00 0.44814968D+05 0.44814968D+05 0.44814968D+05 0.11515012D+01  1  2  2  2  7  2        2 0.494804744872D-03 0.100000000000D+01
-.192578423443D-06 0.000000000000D+00 -.141439151647D-07 0.174752050190D-08 0.000000000000D+00  7 -2 2 23 -13 13 23 21 2 0.51149164D-02 0.32196394D+00 0.44814968D+05 0.44814968D+05 0.44814968D+05 0.11515012D+01  1  2  3  2  7  2        2 -.343053337362D-04 0.100000000000D+01
0.232889608666D-06 0.000000000000D+00 0.000000000000D+00 0.174752050190D-08 0.000000000000D+00  7 -2 2 23 -13 13 23 21 2 0.51149164D-02 0.32196394D+00 0.44814968D+05 0.44814968D+05 0.44814968D+05 0.11515012D+01  1  2 15  2  7  2        2 0.414862454793D-04 0.100000000000D+01
  </mgrwgt>
  </event>
  <event>
  8     66 0.53686478E-06 0.13756080E+03 0.75467711E-02 0.10433684E+00
       -2 -1    0    0    0  501 0.00000000E+00 0.00000000E+00 0.82718708E+03 0.82718714E+03 0.32000000E+00 0.0000E+00 0.9000E+01
        2 -1    0    0  501    0 0.00000000E+00 0.00000000E+00 -.72254324E+03 0.72254331E+03 0.32000000E+00 0.0000E+00 0.9000E+01
       25  2    1    2    0    0 0.10013866E+03 0.29107331E+02 0.78806404E+03 0.84963741E+03 0.29993966E+03 0.0000E+00 0.0000E+00
       23  2    1    2    0    0 -.10013866E+03 -.29107331E+02 -.68342020E+03 0.70009305E+03 0.11041793E+03 0.0000E+00 0.0000E+00
       23  1    3    3    0    0 0.12231077E+03 0.96484857E+02 0.61965086E+03 0.64540816E+03 0.91188000E+02 0.0000E+00 0.9000E+01
      -13  1    4    4    0    0 -.24505643E+02 0.33874891E+02 -.34884174E+03 0.35133831E+03 0.10565837E+00 0.0000E+00 0.9000E+01
       13  1    4    4    0    0 -.75633016E+02 -.62982221E+02 -.33457846E+03 0.34875474E+03 0.10565837E+00 0.0000E+00 0.9000E+01
       23  1    3    3    0    0 -.22172114E+02 -.67377526E+02 0.16841319E+03 0.20422925E+03 0.91188000E+02 0.0000E+00 0.9000E+01
#aMCatNLO 1  0  0  2  1 0.29231367D+02 0.00000000D+00  -5  7  0 0.00000000D+00 0.00000000D+00 0.00000000D+00 0.00000000D+00 0.00000000D+00
  <mgrwgt>
 0.3398148091D-03    9    2    0
 0.773096717068214D+03 0.000000000000000D+00 0.000000000000000D+00 0.773096717068214D+03
 0.773096717068214D+03 0.000000000000000D+00 0.000000000000000D+00 -.773096717068214D+03
 0.604947611126245D+03 0.122310774135782D+03 0.964848570223075D+02 0.577388177709798D+03
 0.375751057126189D+03 -.245055992379956D+02 0.338749743055380D+02 -.373417753532467D+03
 0.372196257756735D+03 -.756330605653476D+02 -.629823050965783D+02 -.358946964999508D+03
 0.193298508127258D+03 -.221721143324386D+02 -.673775262312673D+02 0.154976540822177D+03
 0.000000000000000D+00 -.000000000000000D+00 0.000000000000000D+00 -.000000000000000D+00
 0.787271003047029D+03 0.000000000000000D+00 0.000000000000000D+00 0.787271003047029D+03
 0.788454017609067D+03 0.000000000000000D+00 0.000000000000000D+00 -.788454017609067D+03
 0.603654695795183D+03 0.124267642127265D+03 0.852301928465704D+02 0.577388177709798D+03
 0.375107885562481D+03 -.232898711009136D+02 0.268828767438218D+02 -.373417753532467D+03
 0.373190930259143D+03 -.744261918367867D+02 -.699234489566992D+02 -.358946964999508D+03
 0.194516212820118D+03 -.215441971013511D+02 -.709889080908533D+02 0.154976540822177D+03
 0.292552962191722D+02 -.500738208821389D+01 0.287992874571604D+02 -.118301456203716D+01
0.587705754714D-04 0.000000000000D+00 0.000000000000D+00 0.235910405134D-07 0.000000000000D+00  7 -2 2 23 -13 13 23 21 0 0.12725956D+00 0.11116051D+00 0.47583309D+05 0.47583309D+05 0.47583309D+05 0.11491927D+01  1  2  2  2  7  2        2 0.141723217589D-03 0.100000000000D+01
0.309041350614D-05 0.000000000000D+00 -.225694484458D-06 0.235910405134D-07 0.000000000000D+00  7 -2 2 23 -13 13 23 21 2 0.12725956D+00 0.11116051D+00 0.47583309D+05 0.47583309D+05 0.47583309D+05 0.11491927D+01  1  2  3  2  7  2        2 0.984200006093D-05 0.100000000000D+01
0.331185339336D-05 0.000000000000D+00 0.000000000000D+00 0.235910405134D-07 0.000000000000D+00  7 -2 2 23 -13 13 23 21 2 0.12725956D+00 0.11116051D+00 0.47583309D+05 0.47583309D+05 0.47583309D+05 0.11491927D+01  1  2 15  2  7  2        2 0.105472168156D-04 0.100000000000D+01
0.773694922452D-04 0.000000000000D+00 0.000000000000D+00 0.235910405134D-07 0.000000000000D+00  7 -2 2 23 -13 13 23 21 2 0.12725956D+00 0.11436839D+00 0.53038962D+05 0.53038962D+05 0.53038962D+05 0.11450482D+01  1  2 12  2  7  2        2 0.235253020060D-03 0.100000000000D+01
-.606981603237D-04 0.000000000000D+00 0.000000000000D+00 0.235910405134D-07 0.000000000000D+00  7 -2 2 23 -13 13 23 21 2 0.12725956D+00 0.11116051D+00 0.47583309D+05 0.47583309D+05 0.47583309D+05 0.11491927D+01  1  2  4  2  7  2        2 -.193304648849D-03 0.100000000000D+01
-.101246208543D-02 0.000000000000D+00 -.221303312955D-03 0.235910405134D-07 0.000000000000D+00  7 -2 2 23 -13 13 23 21 2 0.12725956D+00 0.11501420D+00 0.47583309D+05 0.47583309D+05 0.47583309D+05 0.11491927D+01  1  2  5  2  7  2        2 -.309487435489D-02 0.100000000000D+01
0.101954050939D-02 0.000000000000D+00 0.221174855991D-03 0.235910405134D-07 0.000000000000D+00  7 -2 2 23 -13 13 23 21 2 0.12725956D+00 0.11116051D+00 0.47583309D+05 0.47583309D+05 0.47583309D+05 0.11491927D+01  1  2  6  2  7  2        2 0.324691751949D-02 0.100000000000D+01
0.152987597731D-05 0.000000000000D+00 0.000000000000D+00 0.235910405134D-07 0.000000000000D+00  7 -2 21 23 -13 13 23 -2 2 0.12725956D+00 0.11436839D+00 0.53038962D+05 0.53038962D+05 0.53038962D+05 0.11450482D+01  1  2 12  4  7  2        2 0.548526841787D-05 0.100000000000D+01
-.605906719999D-05 0.000000000000D+00 -.134456936595D-05 0.235910405134D-07 0.000000000000D+00  7 -2 21 23 -13 13 23 -2 2 0.12725956D+00 0.11501420D+00 0.47583309D+05 0.47583309D+05 0.47583309D+05 0.11491927D+01  1  2  5  4  7  2        2 -.217744295535D-04 0.100000000000D+01
  </mgrwgt>
  </event>
  <event>
  8     66 0.53686478E-06 0.24416767E+03 0.75467711E-02 0.10334879E+00
       -2 -1    0    0    0  501 0.00000000E+00 0.00000000E+00 0.34181124E+03 0.34181139E+03 0.32000000E+00 0.0000E+00 0.9000E+01
        2 -1    0    0  501    0 0.00000000E+00 0.00000000E+00 -.35116261E+03 0.35116276E+03 0.32000000E+00 0.0000E+00 0.9000E+01
       25  2    1    2    0    0 0.68189367E+02 0.16700120E+03 -.20995303E+03 0.40794971E+03 0.29967232E+03 0.0000E+00 0.0000E+00
       23  2    1    2    0    0 -.68189367E+02 -.16700120E+03 0.20060166E+03 0.28502443E+03 0.91971260E+02 0.0000E+00 0.0000E+00
       23  1    3    3    0    0 -.34414727E+02 0.48739808E+02 -.19844614E+03 0.22639802E+03 0.91188000E+02 0.0000E+00 0.9000E+01
      -11  1    4    4    0    0 -.87426029E+02 -.13494324E+03 0.13695776E+03 0.21121178E+03 0.51099893E-03 0.0000E+00 0.9000E+01
       11  1    4    4    0    0 0.19236662E+02 -.32057959E+02 0.63643899E+02 0.73812653E+02 0.51099893E-03 0.0000E+00 0.9000E+01
       23  1    3    3    0    0 0.10260409E+03 0.11826139E+03 -.11506898E+02 0.18155169E+03 0.91188000E+02 0.0000E+00 0.9000E+01
#aMCatNLO 1  0  0  2  2 0.66046458D+01 0.00000000D+00  -5  7  0 0.00000000D+00 0.00000000D+00 0.00000000D+00 0.00000000D+00 0.00000000D+00
  <mgrwgt>
 0.1600736244D-03    6    2    0
 0.346455522617082D+03 0.000000000000000D+00 0.000000000000000D+00 0.346455522617082D+03
 0.346455522617082D+03 0.000000000000000D+00 0.000000000000000D+00 -.346455522617082D+03
 0.223740447972501D+03 -.344147265810918D+02 0.487398079462311D+02 -.195408788007727D+03
 0.213079367196121D+03 -.874260291793940D+02 -.134943242123405D+03 0.139820697866400D+03
 0.746782988414520D+02 0.192366619648471D+02 -.320579590361046D+02 0.646458538248421D+02
 0.181412931224090D+03 0.102604093795639D+03 0.118261393213278D+03 -.905776368351525D+01
 0.000000000000000D+00 -.000000000000000D+00 0.000000000000000D+00 0.000000000000000D+00
 0.354650012801557D+03 0.000000000000000D+00 0.000000000000000D+00 0.354650012801557D+03
 0.347804634816019D+03 0.000000000000000D+00 0.000000000000000D+00 -.347804634816019D+03
 0.223198043291527D+03 -.336326758626422D+02 0.467585700041811D+02 -.195408788007727D+03
 0.213979493902787D+03 -.866787637375698D+02 -.136836355461450D+03 0.139820697866400D+03
 0.750332396592015D+02 0.194986264600363D+02 -.327216167568824D+02 0.646458538248421D+02
 0.180731744538460D+03 0.103237772723273D+03 0.116656038592550D+03 -.905776368351525D+01
 0.951212622560080D+01 -.242495958309759D+01 0.614336362160171D+01 0.684537798553785D+01
0.496910722696D-05 0.000000000000D+00 0.000000000000D+00 0.383674978896D-06 0.000000000000D+00  7 -2 2 23 -11 11 23 21 0 0.52586367D-01 0.54025040D-01 0.59617849D+05 0.59617849D+05 0.59617849D+05 0.11406348D+01  1  2  2  2  7  2        2 0.193344574242D-03 0.100000000000D+01
-.234967975578D-06 0.000000000000D+00 -.190826801475D-07 0.383674978896D-06 0.000000000000D+00  7 -2 2 23 -11 11 23 21 2 0.52586367D-01 0.54025040D-01 0.59617849D+05 0.59617849D+05 0.59617849D+05 0.11406348D+01  1  2  3  2  7  2        2 -.118947549991D-04 0.100000000000D+01
0.317696786589D-06 0.000000000000D+00 0.000000000000D+00 0.383674978896D-06 0.000000000000D+00  7 -2 2 23 -11 11 23 21 2 0.52586367D-01 0.54025040D-01 0.59617849D+05 0.59617849D+05 0.59617849D+05 0.11406348D+01  1  2 15  2  7  2        2 0.160827254488D-04 0.100000000000D+01
-.131459869687D-05 0.000000000000D+00 0.000000000000D+00 0.383674978896D-06 0.000000000000D+00  7 -2 2 23 -11 11 23 21 2 0.52586367D-01 0.54025040D-01 0.59617849D+05 0.59617849D+05 0.59617849D+05 0.11406348D+01  1  2  4  2  7  2        2 -.665487685416D-04 0.100000000000D+01
0.585432855812D-06 0.000000000000D+00 0.000000000000D+00 0.383674978896D-06 0.609287342022D-07  7 -2 2 23 -11 11 23 21 2 0.53830158D-01 0.54235416D-01 0.61264890D+05 0.61264890D+05 0.61264890D+05 0.11396136D+01  1  2 11  2  7  2        2 0.281204657457D-04 0.100000000000D+01
0.671206969210D-08 0.000000000000D+00 0.000000000000D+00 0.383674978896D-06 0.443419288550D-10  7 -2 21 23 -11 11 23 -2 2 0.53830158D-01 0.54235416D-01 0.61264890D+05 0.61264890D+05 0.61264890D+05 0.11396136D+01  1  2 11  4  7  2        2 0.969382506667D-06 0.100000000000D+01
  </mgrwgt>
  </event>
  <event>
  8     66 0.53686478E-06 0.24411886E+03 0.75467711E-02 0.10298211E+00
       -2 -1    0    0    0  501 0.00000000E+00 0.00000000E+00 0.31802281E+03 0.31802297E+03 0.32000000E+00 0.0000E+00 0.9000E+01
        2 -1    0    0  501    0 0.00000000E+00 0.00000000E+00 -.11331086E+04 0.11331086E+04 0.32000000E+00 0.0000E+00 0.9000E+01
       25  2    1    2    0    0 0.15210964E+03 0.79176616E+02 -.10741490E+04 0.11282703E+04 0.29965233E+03 0.0000E+00 0.0000E+00
       23  2    1    2    0    0 -.15210964E+03 -.79176616E+02 0.25906321E+03 0.32286131E+03 0.87860097E+02 0.0000E+00 0.0000E+00
       23  1    3    3    0    0 0.15551770E+03 0.11785311E+03 -.48267795E+03 0.52855309E+03 0.91188000E+02 0.0000E+00 0.9000E+01
      -13  1    4    4    0    0 -.15205110E+03 -.80754059E+02 0.20049077E+03 0.26426750E+03 0.10565837E+00 0.0000E+00 0.9000E+01
       13  1    4    4    0    0 -.58547406E-01 0.15774428E+01 0.58572444E+02 0.58593806E+02 0.10565837E+00 0.0000E+00 0.9000E+01
       23  1    3    3    0    0 -.34080523E+01 -.38676490E+02 -.59147105E+03 0.59971722E+03 0.91188000E+02 0.0000E+00 0.9000E+01
#aMCatNLO 1  0  0  1  1 0.16938227D+02 0.00000000D+00  -5  7  0 0.00000000D+00 0.00000000D+00 0.00000000D+00 0.00000000D+00 0.00000000D+00
  <mgrwgt>
 0.2673708678D-03    4    2    0
 0.600295368575091D+03 0.000000000000000D+00 0.000000000000000D+00 0.600295368575091D+03
 0.600295368575091D+03 0.000000000000000D+00 0.000000000000000D+00 -.600295368575091D+03
 0.311160282588579D+03 0.155517695058045D+03 0.117853106318526D+03 -.224567054510476D+03
 0.455529673593174D+03 -.152051315170931D+03 -.807541783720843D+02 0.421742153162502D+03
 0.110585803893263D+03 -.583276285138581D-01 0.157756188866328D+01 0.110574535581636D+03
 0.323314977075166D+03 -.340805225860014D+01 -.386764898351054D+02 -.307749634233662D+03
 0.000000000000000D+00 0.000000000000000D+00 -.000000000000000D+00 -.000000000000000D+00
 0.604047237873599D+03 0.000000000000000D+00 0.000000000000000D+00 0.604047237873599D+03
 0.619781801926144D+03 0.000000000000000D+00 0.000000000000000D+00 -.619781801926144D+03
 0.309073580590317D+03 0.151147069146563D+03 0.118048415456592D+03 -.224567054510476D+03
 0.457667183745709D+03 -.158486374724940D+03 -.804666163705885D+02 0.421742153162502D+03
 0.110598624650746D+03 -.161695648127595D+01 0.164721197173209D+01 0.110574535581636D+03
 0.323370826536040D+03 -.796507808006077D+01 -.384728510878507D+02 -.307749634233662D+03
 0.231188242769297D+02 0.169213401397130D+02 -.756159969885087D+00 -.157345640525448D+02
0.317078898468D-04 0.000000000000D+00 0.000000000000D+00 0.337593673935D-06 0.000000000000D+00  7 -2 2 23 -13 13 23 21 0 0.48926602D-01 0.17432442D+00 0.59594020D+05 0.59594020D+05 0.59594020D+05 0.11406498D+01  1  2  2  1  7  1       -2 0.348919579395D-03 0.100000000000D+01
-.276015774737D-07 0.000000000000D+00 -.121766645891D-06 0.337593673935D-06 0.000000000000D+00  7 -2 2 23 -13 13 23 21 2 0.48926602D-01 0.17432442D+00 0.59594020D+05 0.59594020D+05 0.59594020D+05 0.11406498D+01  1  2  3  1  7  1       -2 -.395181432206D-06 0.100000000000D+01
0.182882194371D-05 0.000000000000D+00 0.000000000000D+00 0.337593673935D-06 0.000000000000D+00  7 -2 2 23 -13 13 23 21 2 0.48926602D-01 0.17432442D+00 0.59594020D+05 0.59594020D+05 0.59594020D+05 0.11406498D+01  1  2 15  1  7  1       -2 0.261838829921D-04 0.100000000000D+01
-.749701702669D-05 0.000000000000D+00 0.000000000000D+00 0.337593673935D-06 0.000000000000D+00  7 -2 2 23 -13 13 23 21 2 0.48926602D-01 0.17432442D+00 0.59594020D+05 0.59594020D+05 0.59594020D+05 0.11406498D+01  1  2  4  1  7  1       -2 -.107337413186D-03 0.100000000000D+01
  </mgrwgt>
  </event>
  <event>
  8     66 0.53686478E-06 0.16372237E+03 0.75467711E-02 0.10572294E+00
       -2 -1    0    0    0  501 0.00000000E+00 0.00000000E+00 0.21271771E+02 0.21274178E+02 0.32000000E+00 0.0000E+00 0.9000E+01
        2 -1    0    0  501    0 0.00000000E+00 0.00000000E+00 -.22424344E+04 0.22424344E+04 0.32000000E+00 0.0000E+00 0.9000E+01
       25  2    1    2    0    0 0.70805274E+02 -.17182066E+02 -.17753293E+04 0.18021612E+04 0.30113446E+03 0.0000E+00 0.0000E+00
       23  2    1    2    0    0 -.70805274E+02 0.17182066E+02 -.44583325E+03 0.46154741E+03 0.94605020E+02 0.0000E+00 0.0000E+00
       23  1    3    3    0    0 0.10093165E+03 0.15335047E+02 -.39372993E+03 0.41684634E+03 0.91188000E+02 0.0000E+00 0.9000E+01
      -11  1    4    4    0    0 -.56064622E+02 0.34961734E+02 -.13962178E+03 0.15446619E+03 0.51099893E-03 0.0000E+00 0.9000E+01
       11  1    4    4    0    0 -.14740652E+02 -.17779668E+02 -.30621147E+03 0.30708121E+03 0.51099893E-03 0.0000E+00 0.9000E+01
       23  1    3    3    0    0 -.30126378E+02 -.32517114E+02 -.13815994E+04 0.13853148E+04 0.91188000E+02 0.0000E+00 0.9000E+01
#aMCatNLO 1  0  0  1  1 0.85630714D+02 0.00000000D+00  -5  7  0 0.00000000D+00 0.00000000D+00 0.00000000D+00 0.00000000D+00 0.00000000D+00
  <mgrwgt>
 0.4925925618D-03    3    2    0
 0.218410852891461D+03 0.000000000000000D+00 0.000000000000000D+00 0.218410852891461D+03
 0.218410852891461D+03 0.000000000000000D+00 0.000000000000000D+00 -.218410852891461D+03
 0.158143328230537D+03 0.100931654051315D+03 0.153350469080163D+02 0.791940557531050D+02
 0.905261336140056D+02 -.560646245687565D+02 0.349617332991565D+02 0.618822748756365D+02
 0.343318449693323D+02 -.147406532120143D+02 -.177796661124478D+02 -.254022084632670D+02
 0.153820398969047D+03 -.301263762705444D+02 -.325171140947250D+02 -.115674122165475D+03
 0.000000000000000D+00 -.000000000000000D+00 -.000000000000000D+00 -.000000000000000D+00
 0.231016500609798D+03 0.000000000000000D+00 0.000000000000000D+00 0.231016500609798D+03
 0.439544349222913D+03 0.000000000000000D+00 0.000000000000000D+00 -.439544349222913D+03
 0.181146913556552D+03 0.133685534398575D+03 0.188529141780937D+02 0.791940557531050D+02
 0.820534321764658D+02 -.394044034598031D+02 0.367510921760305D+02 0.618822748756365D+02
 0.317399788762907D+02 -.836231294155409D+01 -.170946127924449D+02 -.254022084632670D+02
 0.150195409510263D+03 -.777764998501382D+00 -.293649831740055D+02 -.115674122165475D+03
 0.225425115713140D+03 -.851410529987163D+02 -.914441038767381D+01 -.208527848613115D+03
0.224030590296D-05 0.000000000000D+00 0.000000000000D+00 0.475321870893D-08 0.000000000000D+00  7 -2 2 23 -11 11 23 21 0 0.32727671D-02 0.34499009D+00 0.26805014D+05 0.26805014D+05 0.26805014D+05 0.11719008D+01  1  2  2  1  7  1       -2 0.484414455763D-03 0.100000000000D+01
-.111891828863D-06 0.000000000000D+00 -.860336455346D-08 0.475321870893D-08 0.000000000000D+00  7 -2 2 23 -11 11 23 21 2 0.32727671D-02 0.34499009D+00 0.26805014D+05 0.26805014D+05 0.26805014D+05 0.11719008D+01  1  2  3  1  7  1       -2 -.332269013161D-04 0.100000000000D+01
0.139431659619D-06 0.000000000000D+00 0.000000000000D+00 0.475321870893D-08 0.000000000000D+00  7 -2 2 23 -11 11 23 21 2 0.32727671D-02 0.34499009D+00 0.26805014D+05 0.26805014D+05 0.26805014D+05 0.11719008D+01  1  2 15  1  7  1       -2 0.414050073322D-04 0.100000000000D+01
  </mgrwgt>
  </event>
  <event>
  8     66 0.53686478E-06 0.39390965E+03 0.75467711E-02 0.86938473E-01
       -2 -1    0    0    0  501 0.00000000E+00 0.00000000E+00 0.36485038E+03 0.36485052E+03 0.32000000E+00 0.0000E+00 0.9000E+01
        2 -1    0    0  501    0 0.00000000E+00 0.00000000E+00 -.10661965E+04 0.10661966E+04 0.32000000E+00 0.0000E+00 0.9000E+01
       25  2    1    2    0    0 0.24260832E+03 -.23427039E+03 0.17729893E+03 0.48470494E+03 0.29960399E+03 0.0000E+00 0.0000E+00
       23  2    1    2    0    0 -.24260832E+03 0.23427039E+03 -.87864506E+03 0.94634215E+03 0.99019687E+02 0.0000E+00 0.0000E+00
       23  1    3    3    0    0 0.26219898E+03 -.13510793E+03 0.84969105E+02 0.32021470E+03 0.91188000E+02 0.0000E+00 0.9000E+01
      -11  1    4    4    0    0 -.35421386E+01 -.40543395E+01 -.33299611E+00 0.53940060E+01 0.51099893E-03 0.0000E+00 0.9000E+01
       11  1    4    4    0    0 -.23906618E+03 0.23832473E+03 -.87831207E+03 0.94094814E+03 0.51099893E-03 0.0000E+00 0.9000E+01
       23  1    3    3    0    0 -.19590657E+02 -.99162464E+02 0.92329828E+02 0.16449023E+03 0.91188000E+02 0.0000E+00 0.9000E+01
#aMCatNLO 1  0  0  2  2 0.90924822D+03 0.00000000D+00  -5  7  0 0.00000000D+00 0.00000000D+00 0.00000000D+00 0.00000000D+00 0.00000000D+00
  <mgrwgt>
 0.3954887488D-03    3    2    0
 0.623700521562424D+03 0.000000000000000D+00 0.000000000000000D+00 0.623700521562424D+03
 0.623700521562424D+03 0.000000000000000D+00 0.000000000000000D+00 -.623700521562424D+03
 0.415131184466914D+03 0.262198979650713D+03 -.135107927699646D+03 0.277517912783544D+03
 0.600090166649023D+01 -.354213855295418D+01 -.405433946747078D+01 0.265073702299372D+01
 0.585649922558222D+03 -.239066183608389D+03 0.238324730672942D+03 -.478575505429437D+03
 0.240619034433222D+03 -.195906574893703D+02 -.991624635058253D+02 0.198406855622900D+03
 0.000000000000000D+00 -.000000000000000D+00 -.000000000000000D+00 0.000000000000000D+00
 0.143406130575956D+04 0.000000000000000D+00 0.000000000000000D+00 0.143406130575956D+04
 0.108389661037443D+04 0.000000000000000D+00 0.000000000000000D+00 -.108389661037443D+04
 0.486138071932023D+03 0.362108223439787D+03 0.140983744592528D+03 0.277517912783544D+03
 0.376842197037502D+01 -.245917058310490D+01 -.106163902760169D+01 0.265073702299372D+01
 0.828776153286797D+03 -.822714869848166D+02 0.671615068539358D+03 -.478575505429437D+03
 0.224930545491139D+03 0.320173454978921D+02 0.434523667945014D+02 0.198406855622900D+03
 0.974344723453652D+03 -.309394911369758D+03 -.854989540898786D+03 0.350164695385127D+03
0.436816548404D-04 0.000000000000D+00 0.000000000000D+00 0.989925916810D-07 0.000000000000D+00  7 -2 2 23 -11 11 23 21 0 0.56130843D-01 0.16403025D+00 0.15516481D+06 0.15516481D+06 0.15516481D+06 0.11063936D+01  1  2  2  2  7  2        2 0.387758587454D-03 0.100000000000D+01
-.180363924258D-05 0.000000000000D+00 -.167749056231D-06 0.989925916810D-07 0.000000000000D+00  7 -2 2 23 -11 11 23 21 2 0.56130843D-01 0.16403025D+00 0.15516481D+06 0.15516481D+06 0.15516481D+06 0.11063936D+01  1  2  3  2  7  2        2 -.195988822189D-04 0.100000000000D+01
0.251502789564D-05 0.000000000000D+00 0.000000000000D+00 0.989925916810D-07 0.000000000000D+00  7 -2 2 23 -11 11 23 21 2 0.56130843D-01 0.16403025D+00 0.15516481D+06 0.15516481D+06 0.15516481D+06 0.11063936D+01  1  2 15  2  7  2        2 0.273290436026D-04 0.100000000000D+01
  </mgrwgt>
  </event>
  <event>
  8     66 0.53686478E-06 0.20377896E+03 0.75467711E-02 0.98354772E-01
       -2 -1    0    0    0  501 0.00000000E+00 0.00000000E+00 0.67204631E+02 0.67205393E+02 0.32000000E+00 0.0000E+00 0.9000E+01
        2 -1    0    0  501    0 0.00000000E+00 0.00000000E+00 -.19930713E+04 0.19930713E+04 0.32000000E+00 0.0000E+00 0.9000E+01
       25  2    1    2    0    0 0.52340690E+02 0.22914420E+03 -.60424167E+03 0.71459710E+03 0.30049029E+03 0.0000E+00 0.0000E+00
       23  2    1    2    0    0 -.52340690E+02 -.22914420E+03 -.13216250E+04 0.13456796E+04 0.94415954E+02 0.0000E+00 0.0000E+00
       23  1    3    3    0    0 0.32737075E+00 0.25704548E+03 -.44057731E+03 0.51816610E+03 0.91188000E+02 0.0000E+00 0.9000E+01
      -11  1    4    4    0    0 -.58373805E+02 -.15074279E+03 -.66510604E+03 0.68446836E+03 0.51099893E-03 0.0000E+00 0.9000E+01
       11  1    4    4    0    0 0.60331151E+01 -.78401410E+02 -.65651897E+03 0.66121127E+03 0.51099893E-03 0.0000E+00 0.9000E+01
       23  1    3    3    0    0 0.52013319E+02 -.27901279E+02 -.16366436E+03 0.19643100E+03 0.91188000E+02 0.0000E+00 0.9000E+01
#aMCatNLO 1  0  0  2  1 0.97118867D+02 0.00000000D+00  -5  7  0 0.00000000D+00 0.00000000D+00 0.00000000D+00 0.00000000D+00 0.00000000D+00
  <mgrwgt>
 0.4183663183D-03    9    2    0
 0.365984197453720D+03 0.000000000000000D+00 0.000000000000000D+00 0.365984197453720D+03
 0.365984197453720D+03 0.000000000000000D+00 0.000000000000000D+00 -.365984197453720D+03
 0.299292141853160D+03 0.327370751335550D+00 0.257045480666753D+03 0.123239800909612D+03
 0.176631493927881D+03 -.583738048211602D+02 -.150742791823057D+03 -.711884419782214D+02
 0.133762843896491D+03 0.603311514044963D+01 -.784014098323551D+02 -.108209606159888D+03
 0.122281915229909D+03 0.520133189293751D+02 -.279012790113407D+02 0.561582472284971D+02
 0.000000000000000D+00 -.000000000000000D+00 0.000000000000000D+00 -.000000000000000D+00
 0.411125173195424D+03 0.000000000000000D+00 0.000000000000000D+00 0.411125173195424D+03
 0.425423880084724D+03 0.000000000000000D+00 0.000000000000000D+00 -.425423880084724D+03
 0.289991444822492D+03 0.367767834965853D+02 0.243391056519423D+03 0.123239800909612D+03
 0.177942940515287D+03 -.364420385168562D+02 -.158958716768463D+03 -.711884419782214D+02
 0.139333964962223D+03 0.229251829505458D+02 -.847293981655710D+02 -.108209606159888D+03
 0.131114887254668D+03 0.676868670324050D+02 -.337727940118186D+02 0.561582472284971D+02
 0.981658157254781D+02 -.909467949626799D+02 0.340698524264292D+02 -.142987068893002D+02
0.456363876042D-05 0.000000000000D+00 0.000000000000D+00 0.558160908951D-07 0.000000000000D+00  7 -2 2 23 -11 11 23 21 0 0.10339235D-01 0.30662642D+00 0.96611750D+05 0.96611750D+05 0.96611750D+05 0.11229526D+01  1  2  2  2  7  2        2 0.237062976574D-03 0.100000000000D+01
-.245308816381D-06 0.000000000000D+00 -.175255744737D-07 0.558160908951D-07 0.000000000000D+00  7 -2 2 23 -11 11 23 21 2 0.10339235D-01 0.30662642D+00 0.96611750D+05 0.96611750D+05 0.96611750D+05 0.11229526D+01  1  2  3  2  7  2        2 -.160689858018D-04 0.100000000000D+01
0.296384206827D-06 0.000000000000D+00 0.000000000000D+00 0.558160908951D-07 0.000000000000D+00  7 -2 2 23 -11 11 23 21 2 0.10339235D-01 0.30662642D+00 0.96611750D+05 0.96611750D+05 0.96611750D+05 0.11229526D+01  1  2 15  2  7  2        2 0.194146858709D-04 0.100000000000D+01
0.310953674946D-05 0.000000000000D+00 0.000000000000D+00 0.558160908951D-07 0.000000000000D+00  7 -2 2 23 -11 11 23 21 2 0.10339235D-01 0.37268781D+00 0.13284501D+06 0.13284501D+06 0.13284501D+06 0.11117385D+01  1  2 12  2  7  2        2 0.114882975860D-03 0.100000000000D+01
-.296435576115D-05 0.000000000000D+00 0.000000000000D+00 0.558160908951D-07 0.000000000000D+00  7 -2 2 23 -11 11 23 21 2 0.10339235D-01 0.30662642D+00 0.96611750D+05 0.96611750D+05 0.96611750D+05 0.11229526D+01  1  2  4  2  7  2        2 -.194180508227D-03 0.100000000000D+01
-.822565866422D-05 0.000000000000D+00 -.249602942112D-05 0.558160908951D-07 0.000000000000D+00  7 -2 2 23 -11 11 23 21 2 0.10339235D-01 0.37556498D+00 0.96611750D+05 0.96611750D+05 0.96611750D+05 0.11229526D+01  1  2  5  2  7  2        2 -.305800402588D-03 0.100000000000D+01
0.860476322228D-05 0.000000000000D+00 0.244556570935D-05 0.558160908951D-07 0.000000000000D+00  7 -2 2 23 -11 11 23 21 2 0.10339235D-01 0.30662642D+00 0.96611750D+05 0.96611750D+05 0.96611750D+05 0.11229526D+01  1  2  6  2  7  2        2 0.563656129799D-03 0.100000000000D+01
0.873080172082D-07 0.000000000000D+00 0.000000000000D+00 0.558160908951D-07 0.000000000000D+00  7 -2 21 23 -11 11 23 -2 2 0.10339235D-01 0.37268781D+00 0.13284501D+06 0.13284501D+06 0.13284501D+06 0.11117385D+01  1  2 12  4  7  2        2 0.428464107056D-06 0.100000000000D+01
-.208472680302D-06 0.000000000000D+00 -.721935189848D-07 0.558160908951D-07 0.000000000000D+00  7 -2 21 23 -11 11 23 -2 2 0.10339235D-01 0.37556498D+00 0.96611750D+05 0.96611750D+05 0.96611750D+05 0.11229526D+01  1  2  5  4  7  2        2 -.102901731112D-05 0.100000000000D+01
  </mgrwgt>
  </event>
  <event>
  8     66 0.53686478E-06 0.97420969E+02 0.75467711E-02 0.10353615E+00
       -4 -1    0    0    0  501 0.00000000E+00 0.00000000E+00 0.46578855E+03 0.46579112E+03 0.15500000E+01 0.0000E+00 0.9000E+01
        4 -1    0    0  501    0 0.00000000E+00 0.00000000E+00 -.13141269E+03 0.13142183E+03 0.15500000E+01 0.0000E+00 0.9000E+01
       25  2    1    2    0    0 -.12391415E+03 0.21474093E+02 0.28653854E+03 0.43424557E+03 0.30107976E+03 0.0000E+00 0.0000E+00
       23  2    1    2    0    0 0.12391415E+03 -.21474093E+02 0.47837317E+02 0.16296738E+03 0.91946205E+02 0.0000E+00 0.0000E+00
       23  1    3    3    0    0 -.15873970E+03 0.61989523E+02 0.26229528E+03 0.32581446E+03 0.91188000E+02 0.0000E+00 0.9000E+01
      -11  1    4    4    0    0 0.91292564E+02 0.63618915E+01 0.69509041E+02 0.11491872E+03 0.51099893E-03 0.0000E+00 0.9000E+01
       11  1    4    4    0    0 0.32621591E+02 -.27835984E+02 -.21671724E+02 0.48048661E+02 0.51099893E-03 0.0000E+00 0.9000E+01
       23  1    3    3    0    0 0.34825547E+02 -.40515430E+02 0.24243262E+02 0.10843111E+03 0.91188000E+02 0.0000E+00 0.9000E+01
#aMCatNLO 1  0  0  2  1 0.53676016D+02 0.00000000D+00  -5  7  0 0.00000000D+00 0.00000000D+00 0.00000000D+00 0.00000000D+00 0.00000000D+00
  <mgrwgt>
 0.2590207436D-04    9    2    0
 0.247414678013019D+03 0.000000000000000D+00 0.000000000000000D+00 0.247414678013019D+03
 0.247414678013019D+03 0.000000000000000D+00 0.000000000000000D+00 -.247414678013019D+03
 0.215984360406557D+03 -.158739701516103D+03 0.619895227942894D+02 0.964002013615352D+02
 0.917261738889777D+02 0.912925638434330D+02 0.636189144988285D+01 0.623579188103602D+01
 0.726347042576265D+02 0.326215910347428D+02 -.278359840988919D+02 -.586241422129236D+02
 0.114484117472877D+03 0.348255466379267D+02 -.405154301452803D+02 -.440118510296476D+02
 0.000000000000000D+00 0.000000000000000D+00 -.000000000000000D+00 -.000000000000000D+00
 0.272075316486912D+03 0.000000000000000D+00 0.000000000000000D+00 0.272075316486912D+03
 0.279900105980275D+03 0.000000000000000D+00 0.000000000000000D+00 -.279900105980275D+03
 0.227756973273164D+03 -.164260914083638D+03 0.853424912480063D+02 0.964002013615352D+02
 0.906573680221029D+02 0.890232726431730D+02 0.159602695531965D+02 0.623579188103602D+01
 0.693081550744365D+02 0.308554794752961D+02 -.203658954129356D+02 -.586241422129236D+02
 0.110009566415231D+03 0.320323036949335D+02 -.287009032576823D+02 -.440118510296476D+02
 0.542433596822527D+02 0.123498582702349D+02 -.522359621305849D+02 -.782478949336314D+01
0.214827953835D-05 0.000000000000D+00 0.000000000000D+00 0.397666776809D-07 0.000000000000D+00  7 -4 4 23 -11 11 23 21 0 0.71660678D-01 0.20218238D-01 0.46950541D+05 0.46950541D+05 0.46950541D+05 0.11497071D+01  1  2  2  2  7  2        4 0.198508946437D-04 0.100000000000D+01
-.116795845006D-06 0.000000000000D+00 -.824995908225D-08 0.397666776809D-07 0.000000000000D+00  7 -4 4 23 -11 11 23 21 2 0.71660678D-01 0.20218238D-01 0.46950541D+05 0.46950541D+05 0.46950541D+05 0.11497071D+01  1  2  3  2  7  2        4 -.142656340059D-05 0.100000000000D+01
0.136448264162D-06 0.000000000000D+00 0.000000000000D+00 0.397666776809D-07 0.000000000000D+00  7 -4 4 23 -11 11 23 21 2 0.71660678D-01 0.20218238D-01 0.46950541D+05 0.46950541D+05 0.46950541D+05 0.11497071D+01  1  2 15  2  7  2        4 0.166660123670D-05 0.100000000000D+01
0.209210712104D-05 0.000000000000D+00 0.000000000000D+00 0.397666776809D-07 0.000000000000D+00  7 -4 4 23 -11 11 23 21 2 0.71660678D-01 0.23765975D-01 0.59599717D+05 0.59599717D+05 0.59599717D+05 0.11406462D+01  1  2 12  2  7  2        4 0.187969822240D-04 0.100000000000D+01
-.187969541449D-05 0.000000000000D+00 0.000000000000D+00 0.397666776809D-07 0.000000000000D+00  7 -4 4 23 -11 11 23 21 2 0.71660678D-01 0.20218238D-01 0.46950541D+05 0.46950541D+05 0.46950541D+05 0.11497071D+01  1  2  4  2  7  2        4 -.229589047662D-04 0.100000000000D+01
-.513679903587D-05 0.000000000000D+00 -.158305962998D-05 0.397666776809D-07 0.000000000000D+00  7 -4 4 23 -11 11 23 21 2 0.71660678D-01 0.25052889D-01 0.46950541D+05 0.46950541D+05 0.46950541D+05 0.11497071D+01  1  2  5  2  7  2        4 -.420250071675D-04 0.100000000000D+01
0.538760839138D-05 0.000000000000D+00 0.154735784461D-05 0.397666776809D-07 0.000000000000D+00  7 -4 4 23 -11 11 23 21 2 0.71660678D-01 0.20218238D-01 0.46950541D+05 0.46950541D+05 0.46950541D+05 0.11497071D+01  1  2  6  2  7  2        4 0.658051230118D-04 0.100000000000D+01
0.506860013712D-07 0.000000000000D+00 0.000000000000D+00 0.397666776809D-07 0.000000000000D+00  7 -4 21 23 -11 11 23 -4 2 0.71660678D-01 0.23765975D-01 0.59599717D+05 0.59599717D+05 0.59599717D+05 0.11406462D+01  1  2 12  4  7  2        4 0.955095186643D-05 0.100000000000D+01
-.134467233806D-06 0.000000000000D+00 -.477676374067D-07 0.397666776809D-07 0.000000000000D+00  7 -4 21 23 -11 11 23 -4 2 0.71660678D-01 0.25052889D-01 0.46950541D+05 0.46950541D+05 0.46950541D+05 0.11497071D+01  1  2  5  4  7  2        4 -.233580032893D-04 0.100000000000D+01
  </mgrwgt>
  </event>
  <event>
  8     66 0.53686478E-06 0.33527408E+03 0.75467711E-02 0.92926637E-01
       -2 -1    0    0    0  501 0.00000000E+00 0.00000000E+00 0.17486163E+03 0.17486192E+03 0.32000000E+00 0.0000E+00 0.9000E+01
        2 -1    0    0  501    0 0.00000000E+00 0.00000000E+00 -.82184305E+03 0.82184311E+03 0.32000000E+00 0.0000E+00 0.9000E+01
       25  2    1    2    0    0 0.17195466E+03 0.21364600E+03 -.17474356E+03 0.44259587E+03 0.30023786E+03 0.0000E+00 0.0000E+00
       23  2    1    2    0    0 -.17195466E+03 -.21364600E+03 -.47223786E+03 0.55410916E+03 0.93890107E+02 0.0000E+00 0.0000E+00
       23  1    3    3    0    0 0.10104194E+03 -.18123945E+02 -.14513436E+02 0.13807187E+03 0.91188000E+02 0.0000E+00 0.9000E+01
      -11  1    4    4    0    0 -.35443816E+02 -.41474054E+02 -.35143110E+02 0.64895296E+02 0.51099893E-03 0.0000E+00 0.9000E+01
       11  1    4    4    0    0 -.13651084E+03 -.17217194E+03 -.43709475E+03 0.48921387E+03 0.51099893E-03 0.0000E+00 0.9000E+01
       23  1    3    3    0    0 0.70912721E+02 0.23176994E+03 -.16023013E+03 0.30452400E+03 0.91188000E+02 0.0000E+00 0.9000E+01
#aMCatNLO 1  0  0  2  1 0.40593722D+03 0.00000000D+00  -5  7  0 0.00000000D+00 0.00000000D+00 0.00000000D+00 0.00000000D+00 0.00000000D+00
  <mgrwgt>
 0.2317859058D-03    5    2    0
 0.379089684533102D+03 0.000000000000000D+00 0.000000000000000D+00 0.379089684533102D+03
 0.379089684533102D+03 0.000000000000000D+00 0.000000000000000D+00 -.379089684533102D+03
 0.169124891920988D+03 0.101041935493062D+03 -.181239453475008D+02 0.987422280493133D+02
 0.553226981509210D+02 -.354438157702740D+02 -.414740540216363D+02 0.917821863714207D+01
 0.270133621609826D+03 -.136510840809662D+03 -.172171943137424D+03 -.157142565404041D+03
 0.263598157384470D+03 0.709127210868742D+02 0.231769942506561D+03 0.492221187175852D+02
 0.000000000000000D+00 0.000000000000000D+00 -.000000000000000D+00 -.000000000000000D+00
 0.493224468644047D+03 0.000000000000000D+00 0.000000000000000D+00 0.493224468644047D+03
 0.108165618960063D+04 0.000000000000000D+00 0.000000000000000D+00 -.108165618960063D+04
 0.180901062638050D+03 0.990322730291519D+02 0.696600632939174D+02 0.987422280493133D+02
 0.409877209517473D+02 -.359967788623909D+02 -.173200890009046D+02 0.917821863714207D+01
 0.215930185572596D+03 -.139301560113865D+03 -.502706129811042D+02 -.157142565404041D+03
 0.422193228899041D+03 0.669752724801748D+02 0.403761522546858D+03 0.492221187175852D+02
 0.714868460183237D+03 0.929079346692952D+01 -.405830883858766D+03 -.588431720956578D+03
0.479682842756D-05 0.000000000000D+00 0.000000000000D+00 0.196973545782D-06 0.000000000000D+00  7 -2 2 23 -11 11 23 21 0 0.26901816D-01 0.12643742D+00 0.11240871D+06 0.11240871D+06 0.11240871D+06 0.11175770D+01  1  2  2  2  7  2        2 0.240660135049D-03 0.100000000000D+01
-.261602447494D-06 0.000000000000D+00 -.184210841958D-07 0.196973545782D-06 0.000000000000D+00  7 -2 2 23 -11 11 23 21 2 0.26901816D-01 0.12643742D+00 0.11240871D+06 0.11240871D+06 0.11240871D+06 0.11175770D+01  1  2  3  2  7  2        2 -.163925565563D-04 0.100000000000D+01
0.302739957060D-06 0.000000000000D+00 0.000000000000D+00 0.196973545782D-06 0.000000000000D+00  7 -2 2 23 -11 11 23 21 2 0.26901816D-01 0.12643742D+00 0.11240871D+06 0.11240871D+06 0.11240871D+06 0.11175770D+01  1  2 15  2  7  2        2 0.189703189534D-04 0.100000000000D+01
-.170553994153D-05 0.000000000000D+00 -.150359979811D-05 0.196973545782D-06 0.000000000000D+00  7 -2 2 23 -11 11 23 21 2 0.26901816D-01 0.39340388D+00 0.11240871D+06 0.11240871D+06 0.11240871D+06 0.11175770D+01  1  2  5  2  7  2        2 -.113343594513D-04 0.100000000000D+01
-.152127274519D-06 0.000000000000D+00 -.195531164087D-06 0.196973545782D-06 0.000000000000D+00  7 -2 21 23 -11 11 23 -2 2 0.26901816D-01 0.39340388D+00 0.11240871D+06 0.11240871D+06 0.11240871D+06 0.11175770D+01  1  2  5  4  7  2        2 -.117632164880D-06 0.100000000000D+01
  </mgrwgt>
  </event>
  <event>
  8     66 0.53686478E-06 0.10868170E+03 0.75467711E-02 0.10579888E+00
       -2 -1    0    0    0  501 0.00000000E+00 0.00000000E+00 0.81293407E+02 0.81294037E+02 0.32000000E+00 0.0000E+00 0.9000E+01
        2 -1    0    0  501    0 0.00000000E+00 0.00000000E+00 -.72312607E+03 0.72312614E+03 0.32000000E+00 0.0000E+00 0.9000E+01
       25  2    1    2    0    0 0.12927140E+02 -.12547869E+03 -.48342682E+03 0.58304654E+03 0.30054911E+03 0.0000E+00 0.0000E+00
       23  2    1    2    0    0 -.12927140E+02 0.12547869E+03 -.15840585E+03 0.22137364E+03 0.89453126E+02 0.0000E+00 0.0000E+00
       23  1    3    3    0    0 0.10733998E+02 -.12114091E+03 -.46589019E+03 0.49006046E+03 0.91188000E+02 0.0000E+00 0.9000E+01
      -13  1    4    4    0    0 0.11610889E+02 0.12095274E+03 -.98293250E+02 0.15628804E+03 0.10565837E+00 0.0000E+00 0.9000E+01
       13  1    4    4    0    0 -.24538030E+02 0.45259511E+01 -.60112596E+02 0.65085594E+02 0.10565837E+00 0.0000E+00 0.9000E+01
       23  1    3    3    0    0 0.21931419E+01 -.43377839E+01 -.17536628E+02 0.92986079E+02 0.91188000E+02 0.0000E+00 0.9000E+01
#aMCatNLO 1  0  0  2  1 0.25128776D+02 0.00000000D+00  -5  7  0 0.00000000D+00 0.00000000D+00 0.00000000D+00 0.00000000D+00 0.00000000D+00
  <mgrwgt>
 0.2472023219D-03    9    2    0
 0.242457550321176D+03 0.000000000000000D+00 0.000000000000000D+00 0.242457550321176D+03
 0.242457550321176D+03 0.000000000000000D+00 0.000000000000000D+00 -.242457550321176D+03
 0.196304431949437D+03 0.107339987890017D+02 -.121140908642958D+03 -.124216907794983D+03
 0.129163861787074D+03 0.116109384586345D+02 0.120952907802295D+03 0.438050612832560D+02
 0.284047018376124D+02 -.245380797153044D+02 0.452579078072951D+01 -.135730228091643D+02
 0.131042105068229D+03 0.219314246766819D+01 -.433778994006673D+01 0.939848693208918D+02
 0.000000000000000D+00 -.000000000000000D+00 -.000000000000000D+00 -.000000000000000D+00
 0.248274974806768D+03 0.000000000000000D+00 0.000000000000000D+00 0.248274974806768D+03
 0.271526720019756D+03 0.000000000000000D+00 0.000000000000000D+00 -.271526720019756D+03
 0.194007480260760D+03 0.195703567804088D+02 -.116236018541884D+03 -.124216907794983D+03
 0.132905223573145D+03 0.175439786356825D+02 0.124246222770065D+03 0.438050612832560D+02
 0.274448478262855D+02 -.232736893673529D+02 0.522762922000407D+01 -.135730228091643D+02
 0.131208211345380D+03 0.813028557474934D+01 -.104219751580113D+01 0.939848693208918D+02
 0.342359318209526D+02 -.219709316234877D+02 -.121956359323838D+02 -.232517452129876D+02
0.767141713311D-06 0.000000000000D+00 0.000000000000D+00 0.373235333114D-07 0.000000000000D+00  7 -2 2 23 -13 13 23 21 0 0.12506732D-01 0.11125022D+00 0.37982808D+05 0.37982808D+05 0.37982808D+05 0.11579467D+01  1  2  2  2  7  2        2 0.157463788426D-03 0.100000000000D+01
-.401477207704D-07 0.000000000000D+00 -.294602617217D-08 0.373235333114D-07 0.000000000000D+00  7 -2 2 23 -13 13 23 21 2 0.12506732D-01 0.11125022D+00 0.37982808D+05 0.37982808D+05 0.37982808D+05 0.11579467D+01  1  2  3  2  7  2        2 -.110495126051D-04 0.100000000000D+01
0.510999021381D-07 0.000000000000D+00 0.000000000000D+00 0.373235333114D-07 0.000000000000D+00  7 -2 2 23 -13 13 23 21 2 0.12506732D-01 0.11125022D+00 0.37982808D+05 0.37982808D+05 0.37982808D+05 0.11579467D+01  1  2 15  2  7  2        2 0.140637874818D-04 0.100000000000D+01
0.254680216621D-05 0.000000000000D+00 0.000000000000D+00 0.373235333114D-07 0.000000000000D+00  7 -2 2 23 -13 13 23 21 2 0.12506732D-01 0.12581691D+00 0.43065339D+05 0.43065339D+05 0.43065339D+05 0.11530429D+01  1  2 12  2  7  2        2 0.598762863448D-03 0.100000000000D+01
-.258283574575D-05 0.000000000000D+00 0.000000000000D+00 0.373235333114D-07 0.000000000000D+00  7 -2 2 23 -13 13 23 21 2 0.12506732D-01 0.11125022D+00 0.37982808D+05 0.37982808D+05 0.37982808D+05 0.11579467D+01  1  2  4  2  7  2        2 -.710851714167D-03 0.100000000000D+01
-.479240590335D-05 0.000000000000D+00 -.815651200279D-06 0.373235333114D-07 0.000000000000D+00  7 -2 2 23 -13 13 23 21 2 0.12506732D-01 0.12635567D+00 0.37982808D+05 0.37982808D+05 0.37982808D+05 0.11579467D+01  1  2  5  2  7  2        2 -.112940992903D-02 0.100000000000D+01
0.486334926902D-05 0.000000000000D+00 0.809084669092D-06 0.373235333114D-07 0.000000000000D+00  7 -2 2 23 -13 13 23 21 2 0.12506732D-01 0.11125022D+00 0.37982808D+05 0.37982808D+05 0.37982808D+05 0.11579467D+01  1  2  6  2  7  2        2 0.133849787784D-02 0.100000000000D+01
0.493495761523D-07 0.000000000000D+00 0.000000000000D+00 0.373235333114D-07 0.000000000000D+00  7 -2 21 23 -13 13 23 -2 2 0.12506732D-01 0.12581691D+00 0.43065339D+05 0.43065339D+05 0.43065339D+05 0.11530429D+01  1  2 12  4  7  2        2 0.120202203453D-04 0.100000000000D+01
-.913431505285D-07 0.000000000000D+00 -.162620081822D-07 0.373235333114D-07 0.000000000000D+00  7 -2 21 23 -13 13 23 -2 2 0.12506732D-01 0.12635567D+00 0.37982808D+05 0.37982808D+05 0.37982808D+05 0.11579467D+01  1  2  5  4  7  2        2 -.222950598456D-04 0.100000000000D+01
  </mgrwgt>
  </event>
  <event>
  8     66 0.53686478E-06 0.16765617E+03 0.75467711E-02 0.97103998E-01
       -2 -1    0    0    0  501 0.00000000E+00 0.00000000E+00 0.78459307E+02 0.78459960E+02 0.32000000E+00 0.0000E+00 0.9000E+01
        2 -1    0    0  501    0 0.00000000E+00 0.00000000E+00 -.98093427E+03 0.98093432E+03 0.32000000E+00 0.0000E+00 0.9000E+01
       25  2    1    2    0    0 -.92604951E+02 0.47408028E+02 -.28620645E+03 0.42786528E+03 0.30055178E+03 0.0000E+00 0.0000E+00
       23  2    1    2    0    0 0.92604951E+02 -.47408028E+02 -.61626852E+03 0.63152900E+03 0.90657572E+02 0.0000E+00 0.0000E+00
       23  1    3    3    0    0 -.26650045E+02 0.53906092E+02 -.29521828E+03 0.31477797E+03 0.91188000E+02 0.0000E+00 0.9000E+01
      -13  1    4    4    0    0 0.53889559E+02 -.51351411E+02 -.54729786E+03 0.55233687E+03 0.10565837E+00 0.0000E+00 0.9000E+01
       13  1    4    4    0    0 0.38715392E+02 0.39433828E+01 -.68970655E+02 0.79192135E+02 0.10565837E+00 0.0000E+00 0.9000E+01
       23  1    3    3    0    0 -.65954906E+02 -.64980644E+01 0.90118306E+01 0.11308731E+03 0.91188000E+02 0.0000E+00 0.9000E+01
#aMCatNLO 1  0  0  1  1 0.32291947D+03 0.00000000D+00  -5  7  0 0.00000000D+00 0.00000000D+00 0.00000000D+00 0.00000000D+00 0.00000000D+00
  <mgrwgt>
 0.2365750759D-03    5    2    0
 0.277423497262289D+03 0.000000000000000D+00 0.000000000000000D+00 0.277423497262289D+03
 0.277423497262289D+03 0.000000000000000D+00 0.000000000000000D+00 -.277423497262289D+03
 0.120838509980218D+03 -.266500450011506D+02 0.539060921439297D+02 -.516778722612120D+02
 0.164405674324896D+03 0.538895807143960D+02 -.513514853040743D+02 -.146588416314919D+03
 0.390221289544706D+02 0.387153706925961D+02 0.394345732385552D+01 -.288023690156470D+01
 0.230580681264993D+03 -.659549064058415D+02 -.649806416371096D+01 0.201146525477695D+03
 0.000000000000000D+00 0.000000000000000D+00 0.000000000000000D+00 0.000000000000000D+00
 0.591324910318444D+03 0.000000000000000D+00 0.000000000000000D+00 0.591324910318444D+03
 0.417419893543469D+03 0.000000000000000D+00 0.000000000000000D+00 -.417419893543469D+03
 0.116356335626967D+03 -.502158471237925D+02 -.559568697562334D+01 -.516778722612120D+02
 0.206460154255556D+03 0.170432879207898D+02 -.144385448831803D+03 -.146588416314919D+03
 0.347190750417826D+02 0.313890284307622D+02 -.145549751398137D+02 -.288023690156470D+01
 0.284439643688099D+03 -.117123248769752D+03 -.135694065615570D+03 0.201146525477695D+03
 0.366769595249508D+03 0.118906779541992D+03 0.300230176562809D+03 0.173905016774976D+03
0.129602873359D-05 0.000000000000D+00 0.000000000000D+00 0.184253194241D-06 0.000000000000D+00  7 -2 2 23 -13 13 23 21 0 0.12070717D-01 0.15091302D+00 0.28108593D+05 0.28108593D+05 0.28108593D+05 0.11699691D+01  1  2  2  1  7  1       -2 0.190881279310D-03 0.100000000000D+01
-.497968068774D-07 0.000000000000D+00 -.497709158920D-08 0.184253194241D-06 0.000000000000D+00  7 -2 2 23 -13 13 23 21 2 0.12070717D-01 0.15091302D+00 0.28108593D+05 0.28108593D+05 0.28108593D+05 0.11699691D+01  1  2  3  1  7  1       -2 -.100391973585D-04 0.100000000000D+01
0.781870055451D-07 0.000000000000D+00 0.000000000000D+00 0.184253194241D-06 0.000000000000D+00  7 -2 2 23 -13 13 23 21 2 0.12070717D-01 0.15091302D+00 0.28108593D+05 0.28108593D+05 0.28108593D+05 0.11699691D+01  1  2 15  1  7  1       -2 0.157627532518D-04 0.100000000000D+01
0.446703002336D-06 0.000000000000D+00 -.421957700888D-06 0.184253194241D-06 0.000000000000D+00  7 -2 2 23 -13 13 23 21 2 0.38680517D-01 0.15091302D+00 0.28108593D+05 0.28108593D+05 0.28108593D+05 0.11699691D+01  1  2  5  1  7  1       -2 0.131115304386D-04 0.100000000000D+01
0.781033746523D-07 0.000000000000D+00 -.566049937058D-07 0.184253194241D-06 0.000000000000D+00  7 21 2 23 -13 13 23 2 2 0.38680517D-01 0.15091302D+00 0.28108593D+05 0.28108593D+05 0.28108593D+05 0.11699691D+01  1  2  5  3  7  1       -2 0.268587102723D-04 0.100000000000D+01
  </mgrwgt>
  </event>
  <event>
  8     66 0.53686478E-06 0.83804322E+02 0.75467711E-02 0.10088428E+00
       -2 -1    0    0    0  501 0.00000000E+00 0.00000000E+00 0.61701246E+02 0.61702076E+02 0.32000000E+00 0.0000E+00 0.9000E+01
        2 -1    0    0  501    0 0.00000000E+00 0.00000000E+00 -.13704867E+04 0.13704868E+04 0.32000000E+00 0.0000E+00 0.9000E+01
       25  2    1    2    0    0 0.52374226E+02 0.10897238E+03 -.41743400E+03 0.52796714E+03 0.29980013E+03 0.0000E+00 0.0000E+00
       23  2    1    2    0    0 -.52374226E+02 -.10897238E+03 -.89135148E+03 0.90422170E+03 0.92148728E+02 0.0000E+00 0.0000E+00
       23  1    3    3    0    0 0.95004812E+02 0.16187028E+03 -.28844610E+03 0.35601166E+03 0.91188000E+02 0.0000E+00 0.9000E+01
      -11  1    4    4    0    0 -.38179883E+02 -.35613140E+01 -.37972912E+03 0.38166031E+03 0.51099893E-03 0.0000E+00 0.9000E+01
       11  1    4    4    0    0 -.14194343E+02 -.10541106E+03 -.51162236E+03 0.52256139E+03 0.51099893E-03 0.0000E+00 0.9000E+01
       23  1    3    3    0    0 -.42630586E+02 -.52897903E+02 -.12898790E+03 0.17195548E+03 0.91188000E+02 0.0000E+00 0.9000E+01
#aMCatNLO 1  0  0  2  1 0.12218787D+03 0.00000000D+00  -5  7  0 0.00000000D+00 0.00000000D+00 0.00000000D+00 0.00000000D+00 0.00000000D+00
  <mgrwgt>
 0.1925024754D-03    9    2    0
 0.290794359417665D+03 0.000000000000000D+00 0.000000000000000D+00 0.290794359417665D+03
 0.290794359417665D+03 0.000000000000000D+00 0.000000000000000D+00 -.290794359417665D+03
 0.227586713051981D+03 0.950048119711150D+02 0.161870277811121D+03 0.908435989901796D+02
 0.853277824968236D+02 -.381798833494306D+02 -.356131402288140D+01 -.762262685409665D+02
 0.135495543677409D+03 -.141943426992451D+02 -.105411061130467D+03 -.839408790942884D+02
 0.133178679609117D+03 -.426305859224393D+02 -.528979026577718D+02 0.693235486450753D+02
 0.000000000000000D+00 -.000000000000000D+00 -.000000000000000D+00 -.000000000000000D+00
 0.313132440611571D+03 0.000000000000000D+00 0.000000000000000D+00 0.313132440611571D+03
 0.530572863328341D+03 0.000000000000000D+00 0.000000000000000D+00 -.530572863328341D+03
 0.269437378897958D+03 0.103697530439201D+03 0.212780432621808D+03 0.908435989901796D+02
 0.851029893325339D+02 -.351991290121531D+02 0.138959020736203D+02 -.762262685409665D+02
 0.116121443272144D+03 -.979367950249845D+01 -.796379447643278D+02 -.839408790942884D+02
 0.123623738000697D+03 -.381392319732814D+02 -.265936428683061D+02 0.693235486450753D+02
 0.249419754436580D+03 -.205654899512681D+02 -.120444747062795D+03 -.217440422716769D+03
0.170709587146D-05 0.000000000000D+00 0.000000000000D+00 0.209576719273D-06 0.000000000000D+00  7 -2 2 23 -11 11 23 21 0 0.94925661D-02 0.21084418D+00 0.54543672D+05 0.54543672D+05 0.54543672D+05 0.11439875D+01  1  2  2  2  7  2        2 0.219055518252D-03 0.100000000000D+01
-.892962577161D-07 0.000000000000D+00 -.655569763507D-08 0.209576719273D-06 0.000000000000D+00  7 -2 2 23 -11 11 23 21 2 0.94925661D-02 0.21084418D+00 0.54543672D+05 0.54543672D+05 0.54543672D+05 0.11439875D+01  1  2  3  2  7  2        2 -.149958856357D-04 0.100000000000D+01
0.103846485525D-06 0.000000000000D+00 0.000000000000D+00 0.209576719273D-06 0.000000000000D+00  7 -2 2 23 -11 11 23 21 2 0.94925661D-02 0.21084418D+00 0.54543672D+05 0.54543672D+05 0.54543672D+05 0.11439875D+01  1  2 15  2  7  2        2 0.174393648785D-04 0.100000000000D+01
0.135272017464D-05 0.000000000000D+00 0.000000000000D+00 0.209576719273D-06 0.000000000000D+00  7 -2 2 23 -11 11 23 21 2 0.94925661D-02 0.38677465D+00 0.88889600D+05 0.88889600D+05 0.88889600D+05 0.11259437D+01  1  2 12  2  7  2        2 0.525921376625D-04 0.100000000000D+01
-.213203771505D-05 0.000000000000D+00 0.000000000000D+00 0.209576719273D-06 0.000000000000D+00  7 -2 2 23 -11 11 23 21 2 0.94925661D-02 0.21084418D+00 0.54543672D+05 0.54543672D+05 0.54543672D+05 0.11439875D+01  1  2  4  2  7  2        2 -.358041810078D-03 0.100000000000D+01
-.219444354023D-05 0.000000000000D+00 -.495330498004D-06 0.209576719273D-06 0.000000000000D+00  7 -2 2 23 -11 11 23 21 2 0.94925661D-02 0.39242332D+00 0.54543672D+05 0.54543672D+05 0.54543672D+05 0.11439875D+01  1  2  5  2  7  2        2 -.853096444538D-04 0.100000000000D+01
0.215506461182D-05 0.000000000000D+00 0.413035589604D-06 0.209576719273D-06 0.000000000000D+00  7 -2 2 23 -11 11 23 21 2 0.94925661D-02 0.21084418D+00 0.54543672D+05 0.54543672D+05 0.54543672D+05 0.11439875D+01  1  2  6  2  7  2        2 0.361908810995D-03 0.100000000000D+01
0.896642633903D-07 0.000000000000D+00 0.000000000000D+00 0.209576719273D-06 0.000000000000D+00  7 -2 21 23 -11 11 23 -2 2 0.94925661D-02 0.38677465D+00 0.88889600D+05 0.88889600D+05 0.88889600D+05 0.11259437D+01  1  2 12  4  7  2        2 0.430852897054D-06 0.100000000000D+01
-.120968899245D-06 0.000000000000D+00 -.335329459419D-07 0.209576719273D-06 0.000000000000D+00  7 -2 21 23 -11 11 23 -2 2 0.94925661D-02 0.39242332D+00 0.54543672D+05 0.54543672D+05 0.54543672D+05 0.11439875D+01  1  2  5  4  7  2        2 -.576869146658D-06 0.100000000000D+01
  </mgrwgt>
  </event>
  <event>
  8     66 -.53686478E-06 0.30176015E+03 0.75467711E-02 0.10072873E+00
       -2 -1    0    0    0  501 0.00000000E+00 0.00000000E+00 0.63560992E+03 0.63561000E+03 0.32000000E+00 0.0000E+00 0.9000E+01
        2 -1    0    0  501    0 0.00000000E+00 0.00000000E+00 -.16400840E+04 0.16400840E+04 0.32000000E+00 0.0000E+00 0.9000E+01
       25  2    1    2    0    0 0.16179792E+02 0.26382177E+03 -.15832648E+04 0.16329581E+04 0.29993478E+03 0.0000E+00 0.0000E+00
       23  2    1    2    0    0 -.16179792E+02 -.26382177E+03 0.57879077E+03 0.64273592E+03 0.90812929E+02 0.0000E+00 0.0000E+00
       23  1    3    3    0    0 0.57288530E+02 0.11653788E+03 -.31970405E+03 0.35691593E+03 0.91188000E+02 0.0000E+00 0.9000E+01
      -11  1    4    4    0    0 0.11102536E+02 -.48090520E+02 0.19968570E+03 0.20569478E+03 0.51099893E-03 0.0000E+00 0.9000E+01
       11  1    4    4    0    0 -.27282328E+02 -.21573125E+03 0.37910507E+03 0.43704114E+03 0.51099893E-03 0.0000E+00 0.9000E+01
       23  1    3    3    0    0 -.41108738E+02 0.14728389E+03 -.12635608E+04 0.12760422E+04 0.91188000E+02 0.0000E+00 0.9000E+01
#aMCatNLO 1  0  0  1  2 0.15211205D+03 0.00000000D+00  -5  7  0 0.00000000D+00 0.00000000D+00 0.00000000D+00 0.00000000D+00 0.00000000D+00
  <mgrwgt>
 -.2227036843D-04    1    2    0
 0.102100625261632D+04 0.000000000000000D+00 0.000000000000000D+00 0.102100625261632D+04
 0.102100625261632D+04 0.000000000000000D+00 0.000000000000000D+00 -.102100625261632D+04
 0.240496582124949D+03 0.572885297093520D+02 0.116537881614621D+03 -.180721612382967D+03
 0.327460034744262D+03 0.111025360582027D+02 -.480905204712771D+02 0.323719183689493D+03
 0.673538043687827D+03 -.272823276819501D+02 -.215731251164848D+03 0.637470939072465D+03
 0.800517844675593D+03 -.411087380856046D+02 0.147283890021503D+03 -.780468510378990D+03
 0.000000000000000D+00 0.000000000000000D+00 -.000000000000000D+00 0.000000000000000D+00
 0.528996429023258D+04 0.000000000000000D+00 0.000000000000000D+00 0.528996429023258D+04
 0.241089480337672D+04 0.000000000000000D+00 0.000000000000000D+00 -.241089480337672D+04
 0.587902585350494D+03 0.465263861118336D+02 0.549990175122127D+03 -.180721612382967D+03
 0.504859442517605D+03 0.289461775907332D+00 0.387413039303630D+03 0.323719183689493D+03
 0.871845619512126D+03 -.473591717320257D+02 0.592876627093200D+03 0.637470939072465D+03
 0.161836952894563D+04 -.725337011749204D+02 0.141294460166575D+04 -.780468510378990D+03
 0.411788191728345D+04 0.730770250192051D+02 -.294322444318470D+04 0.287906948685586D+04
-.135600936897D-04 0.000000000000D+00 0.000000000000D+00 0.801827678915D-05 0.000000000000D+00  7 -2 2 23 -11 11 23 21 2 0.97786150D-01 0.25232062D+00 0.91059187D+05 0.91059187D+05 0.91059187D+05 0.11250754D+01  1  2 14  1  7  1       -2 -.222703684282D-04 0.100000000000D+01
  </mgrwgt>
  </event>
  <event>
  8     66 0.53686478E-06 0.19363460E+03 0.75467711E-02 0.10485147E+00
       -2 -1    0    0    0  501 0.00000000E+00 0.00000000E+00 0.11699727E+03 0.11699771E+03 0.32000000E+00 0.0000E+00 0.9000E+01
        2 -1    0    0  501    0 0.00000000E+00 0.00000000E+00 -.48890001E+03 0.48890012E+03 0.32000000E+00 0.0000E+00 0.9000E+01
       25  2    1    2    0    0 -.92680298E+02 -.46278289E+02 -.31089359E+03 0.44401668E+03 0.29960753E+03 0.0000E+00 0.0000E+00
       23  2    1    2    0    0 0.92680298E+02 0.46278289E+02 -.61009153E+02 0.16188115E+03 0.10840697E+03 0.0000E+00 0.0000E+00
       23  1    3    3    0    0 0.54279514E+02 -.27825499E+02 -.22435999E+03 0.24974624E+03 0.91188000E+02 0.0000E+00 0.9000E+01
      -11  1    4    4    0    0 0.29099560E+02 0.15948276E+02 -.81930717E+02 0.88395556E+02 0.51099893E-03 0.0000E+00 0.9000E+01
       11  1    4    4    0    0 0.63580738E+02 0.30330013E+02 0.20921564E+02 0.73485589E+02 0.51099893E-03 0.0000E+00 0.9000E+01
       23  1    3    3    0    0 -.14695981E+03 -.18452790E+02 -.86533592E+02 0.19427044E+03 0.91188000E+02 0.0000E+00 0.9000E+01
#aMCatNLO 1  0  0  2  1 0.55344695D+02 0.00000000D+00  -5  7  0 0.00000000D+00 0.00000000D+00 0.00000000D+00 0.00000000D+00 0.00000000D+00
  <mgrwgt>
 0.1928193275D-03    4    2    0
 0.239165490435044D+03 0.000000000000000D+00 0.000000000000000D+00 0.239165490435044D+03
 0.239165490435044D+03 0.000000000000000D+00 0.000000000000000D+00 -.239165490435044D+03
 0.141911370332339D+03 0.542795055989216D+02 -.278255029265266D+02 -.900170114168698D+02
 0.482686950917311D+02 0.290995651979499D+02 0.159482783614941D+02 -.350533115190714D+02
 0.109350112449805D+03 0.635807507189459D+02 0.303300199641321D+02 0.836362667733054D+02
 0.178800802996212D+03 -.146959821515817D+03 -.184527953990996D+02 0.414340561626358D+02
 0.000000000000000D+00 0.000000000000000D+00 0.000000000000000D+00 0.000000000000000D+00
 0.345360645496252D+03 0.000000000000000D+00 0.000000000000000D+00 0.345360645496252D+03
 0.248081924938142D+03 0.000000000000000D+00 0.000000000000000D+00 -.248081924938142D+03
 0.145347125203871D+03 0.524073361384451D+02 -.442825500110022D+02 -.900170114168698D+02
 0.463766955796000D+02 0.284827263133106D+02 0.105260413352254D+02 -.350533115190714D+02
 0.105761303171277D+03 0.621787903620419D+02 0.180062810659101D+02 0.836362667733054D+02
 0.184037006967000D+03 -.149324569216843D+03 -.392397834791087D+02 0.414340561626358D+02
 0.111920439512646D+03 0.625571640304525D+01 0.549900110889754D+02 0.972787205581103D+02
0.117401923368D-05 0.000000000000D+00 0.000000000000D+00 0.113416272911D-08 0.000000000000D+00  7 -2 2 23 -11 11 23 21 0 0.17999622D-01 0.75215428D-01 0.37494357D+05 0.37494357D+05 0.37494357D+05 0.11584557D+01  1  2  2  2  7  2        2 0.211262922383D-03 0.100000000000D+01
-.616865629733D-07 0.000000000000D+00 -.450854298370D-08 0.113416272911D-08 0.000000000000D+00  7 -2 2 23 -11 11 23 21 2 0.17999622D-01 0.75215428D-01 0.37494357D+05 0.37494357D+05 0.37494357D+05 0.11584557D+01  1  2  3  2  7  2        2 -.148969562122D-04 0.100000000000D+01
0.764282284346D-07 0.000000000000D+00 0.000000000000D+00 0.113416272911D-08 0.000000000000D+00  7 -2 2 23 -11 11 23 21 2 0.17999622D-01 0.75215428D-01 0.37494357D+05 0.37494357D+05 0.37494357D+05 0.11584557D+01  1  2 15  2  7  2        2 0.184569850789D-04 0.100000000000D+01
-.911144468514D-07 0.000000000000D+00 0.000000000000D+00 0.113416272911D-08 0.000000000000D+00  7 -2 2 23 -11 11 23 21 2 0.17999622D-01 0.75215428D-01 0.37494357D+05 0.37494357D+05 0.37494357D+05 0.11584557D+01  1  2  4  2  7  2        2 -.220036237978D-04 0.100000000000D+01
  </mgrwgt>
  </event>
  <event>
  8     66 0.53686478E-06 0.14874219E+03 0.75467711E-02 0.10174627E+00
       -2 -1    0    0    0  501 0.00000000E+00 0.00000000E+00 0.76135224E+02 0.76135896E+02 0.32000000E+00 0.0000E+00 0.9000E+01
        2 -1    0    0  501    0 0.00000000E+00 0.00000000E+00 -.10128958E+04 0.10128958E+04 0.32000000E+00 0.0000E+00 0.9000E+01
       25  2    1    2    0    0 -.17215285E+03 -.57850394E+02 -.64315230E+03 0.73205321E+03 0.29878713E+03 0.0000E+00 0.0000E+00
       23  2    1    2    0    0 0.17215285E+03 0.57850394E+02 -.29360824E+03 0.35697850E+03 0.90799654E+02 0.0000E+00 0.0000E+00
       23  1    3    3    0    0 -.46526458E+02 0.83336176E+02 -.17657477E+03 0.22046208E+03 0.91188000E+02 0.0000E+00 0.9000E+01
      -13  1    4    4    0    0 0.10174744E+03 0.51969780E+02 -.10347944E+03 0.15414735E+03 0.10565837E+00 0.0000E+00 0.9000E+01
       13  1    4    4    0    0 0.70405413E+02 0.58806143E+01 -.19012880E+03 0.20283115E+03 0.10565837E+00 0.0000E+00 0.9000E+01
       23  1    3    3    0    0 -.12562640E+03 -.14118657E+03 -.46657753E+03 0.51159113E+03 0.91188000E+02 0.0000E+00 0.9000E+01
#aMCatNLO 1  0  0  1  2 0.31334648D+02 0.00000000D+00  -5  7  0 0.00000000D+00 0.00000000D+00 0.00000000D+00 0.00000000D+00 0.00000000D+00
  <mgrwgt>
 0.2502379137D-03    6    2    0
 0.277700269310499D+03 0.000000000000000D+00 0.000000000000000D+00 0.277700269310499D+03
 0.277700269310499D+03 0.000000000000000D+00 0.000000000000000D+00 -.277700269310499D+03
 0.134464981537453D+03 -.465264581733332D+02 0.833361756035536D+02 0.256115294640213D+02
 0.127720318839271D+03 0.101747485530483D+03 0.519698415579859D+02 0.570882177079233D+02
 0.770333402111992D+02 0.704053705049047D+02 0.588055268843869D+01 -.307024169771691D+02
 0.216181898033074D+03 -.125626397862054D+03 -.141186569849978D+03 -.519973301947754D+02
 0.000000000000000D+00 0.000000000000000D+00 0.000000000000000D+00 -.000000000000000D+00
 0.293566562566406D+03 0.000000000000000D+00 0.000000000000000D+00 0.293566562566406D+03
 0.294055659386352D+03 0.000000000000000D+00 0.000000000000000D+00 -.294055659386352D+03
 0.135959228770519D+03 -.538744674082362D+02 0.813096049914572D+02 0.256115294640213D+02
 0.121610082716684D+03 0.949726405893112D+02 0.501013488519517D+02 0.570882177079233D+02
 0.732384593154628D+02 0.663221615000235D+02 0.475440938787857D+01 -.307024169771691D+02
 0.225475986340586D+03 -.137627195458355D+03 -.144496372948055D+03 -.519973301947754D+02
 0.313384648095067D+02 0.302068607772560D+02 0.833100971676781D+01 -.489096819946033D+00
0.109759810431D-05 0.000000000000D+00 0.000000000000D+00 0.639981312073D-07 0.000000000000D+00  7 -2 2 23 -13 13 23 21 0 0.11713167D-01 0.15583017D+00 0.69363967D+05 0.69363967D+05 0.69363967D+05 0.11349968D+01  1  2  2  1  7  1       -2 0.162259402310D-03 0.100000000000D+01
-.607695629025D-07 0.000000000000D+00 -.421506572478D-08 0.639981312073D-07 0.000000000000D+00  7 -2 2 23 -13 13 23 21 2 0.11713167D-01 0.15583017D+00 0.69363967D+05 0.69363967D+05 0.69363967D+05 0.11349968D+01  1  2  3  1  7  1       -2 -.115728915350D-04 0.100000000000D+01
0.715345274057D-07 0.000000000000D+00 0.000000000000D+00 0.639981312073D-07 0.000000000000D+00  7 -2 2 23 -13 13 23 21 2 0.11713167D-01 0.15583017D+00 0.69363967D+05 0.69363967D+05 0.69363967D+05 0.11349968D+01  1  2 15  1  7  1       -2 0.136229600335D-04 0.100000000000D+01
0.165003877721D-05 0.000000000000D+00 0.000000000000D+00 0.639981312073D-07 0.000000000000D+00  7 -2 2 23 -13 13 23 21 2 0.12707888D-01 0.15583017D+00 0.77876779D+05 0.77876779D+05 0.77876779D+05 0.11307437D+01  1  2 12  1  7  1       -2 0.274534613472D-03 0.100000000000D+01
-.126534162135D-05 0.000000000000D+00 0.000000000000D+00 0.639981312073D-07 0.000000000000D+00  7 -2 2 23 -13 13 23 21 2 0.11713167D-01 0.15583017D+00 0.69363967D+05 0.69363967D+05 0.69363967D+05 0.11349968D+01  1  2  4  1  7  1       -2 -.240970325262D-03 0.100000000000D+01
0.224080578881D-07 0.000000000000D+00 0.000000000000D+00 0.639981312073D-07 0.000000000000D+00  7 21 2 23 -13 13 23 2 2 0.12707888D-01 0.15583017D+00 0.77876779D+05 0.77876779D+05 0.77876779D+05 0.11307437D+01  1  2 12  3  7  1       -2 0.523641546537D-04 0.100000000000D+01
  </mgrwgt>
  </event>
  <event>
  8     66 0.53686478E-06 0.11872973E+04 0.75467711E-02 0.85668285E-01
       -2 -1    0    0    0  501 0.00000000E+00 0.00000000E+00 0.29477492E+03 0.29477509E+03 0.32000000E+00 0.0000E+00 0.9000E+01
        2 -1    0    0  501    0 0.00000000E+00 0.00000000E+00 -.48346489E+04 0.48346490E+04 0.32000000E+00 0.0000E+00 0.9000E+01
       25  2    1    2    0    0 0.11647045E+04 -.12114194E+03 -.21477438E+04 0.24644978E+04 0.29955659E+03 0.0000E+00 0.0000E+00
       23  2    1    2    0    0 -.11647045E+04 0.12114194E+03 -.23921302E+04 0.26649262E+04 0.91283604E+02 0.0000E+00 0.0000E+00
       23  1    3    3    0    0 0.29720231E+03 -.11232232E+03 -.48684386E+03 0.58845366E+03 0.91188000E+02 0.0000E+00 0.9000E+01
      -13  1    4    4    0    0 -.43654921E+02 -.33397088E+01 -.59203256E+02 0.73633841E+02 0.10565837E+00 0.0000E+00 0.9000E+01
       13  1    4    4    0    0 -.11210496E+04 0.12448165E+03 -.23329270E+04 0.25912924E+04 0.10565837E+00 0.0000E+00 0.9000E+01
       23  1    3    3    0    0 0.86750222E+03 -.88196217E+01 -.16609000E+04 0.18760442E+04 0.91188000E+02 0.0000E+00 0.9000E+01
#aMCatNLO 1  0  0  1  2 0.21773222D+02 0.00000000D+00  -5  7  0 0.00000000D+00 0.00000000D+00 0.00000000D+00 0.00000000D+00 0.00000000D+00
  <mgrwgt>
 0.6769724683D-04    4    2    0
 0.119378964713279D+04 0.000000000000000D+00 0.000000000000000D+00 0.119378964713279D+04
 0.119378964713279D+04 0.000000000000000D+00 0.000000000000000D+00 -.119378964713279D+04
 0.338509623547522D+03 0.297202308982925D+03 -.112322321582185D+03 0.729931332379357D+02
 0.456195929233056D+02 -.436534774708590D+02 -.333988005302970D+01 0.128205446226255D+02
 0.113112319533854D+04 -.112105104750078D+04 0.124481823299436D+03 -.847850670714991D+02
 0.872326882456217D+03 0.867502215988712D+03 -.881962166422156D+01 -.102861078906214D+01
 0.000000000000000D+00 -.000000000000000D+00 0.000000000000000D+00 -.000000000000000D+00
 0.120103804734159D+04 0.000000000000000D+00 0.000000000000000D+00 0.120103804734159D+04
 0.121030299193969D+04 0.000000000000000D+00 0.000000000000000D+00 -.121030299193969D+04
 0.340239712829544D+03 0.298035313943480D+03 -.115302927044596D+03 0.729931332379357D+02
 0.455436724331939D+02 -.435415960321712D+02 -.374020711359542D+01 0.128205446226255D+02
 0.112732521687835D+04 -.111827933395396D+04 0.114564253862158D+03 -.847850670714991D+02
 0.874569969107714D+03 0.869646120468526D+03 -.164908045574991D+02 -.102861078906214D+01
 0.236624680324779D+02 -.586050442587679D+01 0.209696848535319D+02 -.926494459810030D+01
0.288001978573D-02 0.000000000000D+00 0.000000000000D+00 0.726686347418D-05 0.000000000000D+00  7 -2 2 23 -13 13 23 21 0 0.45350002D-01 0.74379216D+00 0.14096749D+07 0.14096749D+07 0.14096749D+07 0.10380795D+01  1  2  2  1  7  1       -2 0.745974496331D-04 0.100000000000D+01
-.159995314010D-03 0.000000000000D+00 -.110600343038D-04 0.726686347418D-05 0.000000000000D+00  7 -2 2 23 -13 13 23 21 2 0.45350002D-01 0.74379216D+00 0.14096749D+07 0.14096749D+07 0.14096749D+07 0.10380795D+01  1  2  3  1  7  1       -2 -.446577691221D-05 0.100000000000D+01
0.181574490210D-03 0.000000000000D+00 0.000000000000D+00 0.726686347418D-05 0.000000000000D+00  7 -2 2 23 -13 13 23 21 2 0.45350002D-01 0.74379216D+00 0.14096749D+07 0.14096749D+07 0.14096749D+07 0.10380795D+01  1  2 15  1  7  1       -2 0.506809322038D-05 0.100000000000D+01
-.268792625645D-03 0.000000000000D+00 0.000000000000D+00 0.726686347418D-05 0.000000000000D+00  7 -2 2 23 -13 13 23 21 2 0.45350002D-01 0.74379216D+00 0.14096749D+07 0.14096749D+07 0.14096749D+07 0.10380795D+01  1  2  4  1  7  1       -2 -.750251911569D-05 0.100000000000D+01
  </mgrwgt>
  </event>
  <event>
  8     66 0.53686478E-06 0.14825530E+03 0.75467711E-02 0.97944848E-01
       -2 -1    0    0    0  501 0.00000000E+00 0.00000000E+00 0.54913171E+02 0.54914103E+02 0.32000000E+00 0.0000E+00 0.9000E+01
        2 -1    0    0  501    0 0.00000000E+00 0.00000000E+00 -.29536478E+04 0.29536478E+04 0.32000000E+00 0.0000E+00 0.9000E+01
       25  2    1    2    0    0 0.57096927E+02 0.20543908E+03 -.26206894E+04 0.26463808E+04 0.29975516E+03 0.0000E+00 0.0000E+00
       23  2    1    2    0    0 -.57096927E+02 -.20543908E+03 -.27804521E+03 0.36218110E+03 0.91655506E+02 0.0000E+00 0.0000E+00
       23  1    3    3    0    0 -.55235022E+02 0.81021242E+02 -.51718291E+03 0.53423661E+03 0.91188000E+02 0.0000E+00 0.9000E+01
      -11  1    4    4    0    0 -.63667177E+02 -.18602395E+03 -.19603194E+03 0.27764535E+03 0.51099893E-03 0.0000E+00 0.9000E+01
       11  1    4    4    0    0 0.65702496E+01 -.19415132E+02 -.82013272E+02 0.84535746E+02 0.51099893E-03 0.0000E+00 0.9000E+01
       23  1    3    3    0    0 0.11233195E+03 0.12441784E+03 -.21035065E+04 0.21121442E+04 0.91188000E+02 0.0000E+00 0.9000E+01
#aMCatNLO 1  0  0  2  1 0.18398275D+03 0.00000000D+00  -5  7  0 0.00000000D+00 0.00000000D+00 0.00000000D+00 0.00000000D+00 0.00000000D+00
  <mgrwgt>
 0.3599271730D-03    9    2    0
 0.402735141570928D+03 0.000000000000000D+00 0.000000000000000D+00 0.402735141570928D+03
 0.402735141570928D+03 0.000000000000000D+00 0.000000000000000D+00 -.402735141570928D+03
 0.134217157503527D+03 -.552350224326573D+02 0.810212419783291D+02 -.914574597719781D+01
 0.331568608787539D+03 -.636671771173772D+02 -.186023953168786D+03 0.266981875299927D+03
 0.206045016561147D+02 0.657024964168927D+01 -.194151315743251D+02 -.210475036390579D+01
 0.319080015194676D+03 0.112331949908345D+03 0.124417842764782D+03 -.255731378958824D+03
 0.000000000000000D+00 0.000000000000000D+00 0.000000000000000D+00 -.000000000000000D+00
 0.451932206685206D+03 0.000000000000000D+00 0.000000000000000D+00 0.451932206685206D+03
 0.631073751306561D+03 0.000000000000000D+00 0.000000000000000D+00 -.631073751306561D+03
 0.121671526722975D+03 -.603036299179650D+02 0.526168853158117D+02 -.914574597719781D+01
 0.384493171595847D+03 -.778508293213230D+02 -.265508805200787D+03 0.266981875299927D+03
 0.252373153057832D+02 0.566222130391598D+01 -.245037009379122D+02 -.210475036390579D+01
 0.294813472936258D+03 0.100172033034616D+03 0.562739557368071D+02 -.255731378958824D+03
 0.256790471430905D+03 0.323202049007557D+02 0.181121665086080D+03 -.179141544621356D+03
0.168567620532D-04 0.000000000000D+00 0.000000000000D+00 0.145050180234D-05 0.000000000000D+00  7 -2 2 23 -11 11 23 21 0 0.84482532D-02 0.45440742D+00 0.73398357D+05 0.73398357D+05 0.73398357D+05 0.11329136D+01  1  2  2  2  7  2        2 0.342295369264D-03 0.100000000000D+01
-.757524478410D-06 0.000000000000D+00 -.647344047718D-07 0.145050180234D-05 0.000000000000D+00  7 -2 2 23 -11 11 23 21 2 0.84482532D-02 0.45440742D+00 0.73398357D+05 0.73398357D+05 0.73398357D+05 0.11329136D+01  1  2  3  2  7  2        2 -.197431790852D-04 0.100000000000D+01
0.985328103455D-06 0.000000000000D+00 0.000000000000D+00 0.145050180234D-05 0.000000000000D+00  7 -2 2 23 -11 11 23 21 2 0.84482532D-02 0.45440742D+00 0.73398357D+05 0.73398357D+05 0.73398357D+05 0.11329136D+01  1  2 15  2  7  2        2 0.256803704153D-04 0.100000000000D+01
0.242291775012D-05 0.000000000000D+00 0.000000000000D+00 0.145050180234D-05 0.000000000000D+00  7 -2 2 23 -11 11 23 21 2 0.84482532D-02 0.72693798D+00 0.14206540D+06 0.14206540D+06 0.14206540D+06 0.11094193D+01  1  2 12  2  7  2        2 0.224439992095D-05 0.100000000000D+01
-.979820142332D-05 0.000000000000D+00 0.000000000000D+00 0.145050180234D-05 0.000000000000D+00  7 -2 2 23 -11 11 23 21 2 0.84482532D-02 0.45440742D+00 0.73398357D+05 0.73398357D+05 0.73398357D+05 0.11329136D+01  1  2  4  2  7  2        2 -.255368177435D-03 0.100000000000D+01
-.952295347575D-05 0.000000000000D+00 -.389891500034D-05 0.145050180234D-05 0.000000000000D+00  7 -2 2 23 -11 11 23 21 2 0.84482532D-02 0.72281888D+00 0.73398357D+05 0.73398357D+05 0.73398357D+05 0.11329136D+01  1  2  5  2  7  2        2 -.103993175107D-04 0.100000000000D+01
0.105599036023D-04 0.000000000000D+00 0.351357314667D-05 0.145050180234D-05 0.000000000000D+00  7 -2 2 23 -11 11 23 21 2 0.84482532D-02 0.45440742D+00 0.73398357D+05 0.73398357D+05 0.73398357D+05 0.11329136D+01  1  2  6  2  7  2        2 0.275220238929D-03 0.100000000000D+01
0.130130321376D-06 0.000000000000D+00 0.000000000000D+00 0.145050180234D-05 0.000000000000D+00  7 -2 21 23 -11 11 23 -2 2 0.84482532D-02 0.72693798D+00 0.14206540D+06 0.14206540D+06 0.14206540D+06 0.11094193D+01  1  2 12  4  7  2        2 0.110233993167D-08 0.100000000000D+01
-.345513134108D-06 0.000000000000D+00 -.207453216447D-06 0.145050180234D-05 0.000000000000D+00  7 -2 21 23 -11 11 23 -2 2 0.84482532D-02 0.72281888D+00 0.73398357D+05 0.73398357D+05 0.73398357D+05 0.11329136D+01  1  2  5  4  7  2        2 -.363382478924D-08 0.100000000000D+01
  </mgrwgt>
  </event>
  <event>
  8     66 0.53686478E-06 0.28080592E+03 0.75467711E-02 0.77959154E-01
       -2 -1    0    0    0  501 0.00000000E+00 0.00000000E+00 0.26300407E+03 0.26300426E+03 0.32000000E+00 0.0000E+00 0.9000E+01
        2 -1    0    0  501    0 0.00000000E+00 0.00000000E+00 -.43464227E+03 0.43464239E+03 0.32000000E+00 0.0000E+00 0.9000E+01
       25  2    1    2    0    0 -.81916498E+02 -.22741911E+03 0.56416360E+01 0.38516342E+03 0.29981539E+03 0.0000E+00 0.0000E+00
       23  2    1    2    0    0 0.81916498E+02 0.22741911E+03 -.17727984E+03 0.31248322E+03 0.88248845E+02 0.0000E+00 0.0000E+00
       23  1    3    3    0    0 -.56464356E+02 -.17171475E+03 -.10601221E+03 0.22853450E+03 0.91188000E+02 0.0000E+00 0.9000E+01
      -11  1    4    4    0    0 0.23783694E+01 0.93638060E+02 -.10552232E+03 0.14109820E+03 0.51099893E-03 0.0000E+00 0.9000E+01
       11  1    4    4    0    0 0.79538129E+02 0.13378105E+03 -.71757520E+02 0.17138502E+03 0.51099893E-03 0.0000E+00 0.9000E+01
       23  1    3    3    0    0 -.25452142E+02 -.55704360E+02 0.11165384E+03 0.15662892E+03 0.91188000E+02 0.0000E+00 0.9000E+01
#aMCatNLO 1  0  0  1  2 0.29671476D+04 0.00000000D+00  -5  7  0 0.00000000D+00 0.00000000D+00 0.00000000D+00 0.00000000D+00 0.00000000D+00
  <mgrwgt>
 0.3267767281D-03    3    2    0
 0.338101750051820D+03 0.000000000000000D+00 0.000000000000000D+00 0.338101750051820D+03
 0.338101750051820D+03 0.000000000000000D+00 0.000000000000000D+00 -.338101750051820D+03
 0.208872898102237D+03 -.564643559835348D+02 -.171714751431847D+03 -.513659114753268D+02
 0.118788245019632D+03 0.237836938139458D+01 0.936380596782810D+02 -.730541189366921D+02
 0.158605883999652D+03 0.795381287411176D+02 0.133781052115670D+03 -.305310106366734D+02
 0.189936472982119D+03 -.254521421389774D+02 -.557043603621039D+02 0.154951041048692D+03
 0.000000000000000D+00 0.000000000000000D+00 0.000000000000000D+00 -.000000000000000D+00
 0.219953306015645D+04 0.000000000000000D+00 0.000000000000000D+00 0.219953306015645D+04
 0.476829150474504D+04 0.000000000000000D+00 0.000000000000000D+00 -.476829150474504D+04
 0.135781491993806D+04 -.127132135349494D+04 -.465241512279941D+03 -.513659114753268D+02
 0.427959516712580D+03 -.421586339200380D+03 -.879785490165429D+01 -.730541189366921D+02
 0.236684844966206D+03 -.226982227519929D+03 0.597213664970223D+02 -.305310106366734D+02
 0.102076532881444D+04 -.964266843367716D+03 -.282535369157982D+03 0.154951041048692D+03
 0.392459995447020D+04 0.288415676358296D+04 0.696853369842555D+03 -.256875844458859D+04
0.636257616897D-05 0.000000000000D+00 0.000000000000D+00 0.554346191870D-07 0.000000000000D+00  7 -2 2 23 -11 11 23 21 0 0.40462188D-01 0.66868066D-01 0.78851966D+05 0.78851966D+05 0.78851966D+05 0.11302894D+01  1  2  2  1  7  1       -2 0.323647906229D-03 0.100000000000D+01
-.338658546997D-06 0.000000000000D+00 -.244339677936D-07 0.554346191870D-07 0.000000000000D+00  7 -2 2 23 -11 11 23 21 2 0.40462188D-01 0.66868066D-01 0.78851966D+05 0.78851966D+05 0.78851966D+05 0.11302894D+01  1  2  3  1  7  1       -2 -.220080302915D-04 0.100000000000D+01
0.386804712121D-06 0.000000000000D+00 0.000000000000D+00 0.554346191870D-07 0.000000000000D+00  7 -2 2 23 -11 11 23 21 2 0.40462188D-01 0.66868066D-01 0.78851966D+05 0.78851966D+05 0.78851966D+05 0.11302894D+01  1  2 15  1  7  1       -2 0.251368521384D-04 0.100000000000D+01
  </mgrwgt>
  </event>
  <event>
  8     66 0.53686478E-06 0.19867172E+03 0.75467711E-02 0.91173028E-01
       -2 -1    0    0    0  501 0.00000000E+00 0.00000000E+00 0.68649486E+02 0.68650232E+02 0.32000000E+00 0.0000E+00 0.9000E+01
        2 -1    0    0  501    0 0.00000000E+00 0.00000000E+00 -.90643079E+03 0.90643085E+03 0.32000000E+00 0.0000E+00 0.9000E+01
       25  2    1    2    0    0 0.73433455E+02 -.68340587E+02 -.75276863E+03 0.81627559E+03 0.29930304E+03 0.0000E+00 0.0000E+00
       23  2    1    2    0    0 -.73433455E+02 0.68340587E+02 -.85012673E+02 0.15880550E+03 0.89045623E+02 0.0000E+00 0.0000E+00
       23  1    3    3    0    0 -.67323372E+02 -.71998773E+01 -.45621296E+03 0.47013806E+03 0.91188000E+02 0.0000E+00 0.9000E+01
      -13  1    4    4    0    0 -.36575896E+02 0.13103799E+02 -.83823686E+02 0.92390082E+02 0.10565837E+00 0.0000E+00 0.9000E+01
       13  1    4    4    0    0 -.36857559E+02 0.55236788E+02 -.11889866E+01 0.66415414E+02 0.10565837E+00 0.0000E+00 0.9000E+01
       23  1    3    3    0    0 0.14075683E+03 -.61140710E+02 -.29655567E+03 0.34613753E+03 0.91188000E+02 0.0000E+00 0.9000E+01
#aMCatNLO 1  0  0  1  2 0.62716305D+03 0.00000000D+00  -5  7  0 0.00000000D+00 0.00000000D+00 0.00000000D+00 0.00000000D+00 0.00000000D+00
  <mgrwgt>
 0.2601684472D-03    5    2    0
 0.249452199204270D+03 0.000000000000000D+00 0.000000000000000D+00 0.249452199204270D+03
 0.249452199204270D+03 0.000000000000000D+00 0.000000000000000D+00 -.249452199204270D+03
 0.152766810321750D+03 -.673233694051636D+02 -.719987837855703D+01 -.102167375786752D+03
 0.398109174569119D+02 -.365758955976243D+02 0.131037400831178D+02 -.868360557757149D+01
 0.127808787084226D+03 -.368575613348065D+02 0.552368484627079D+02 0.109203923007829D+03
 0.178517883545653D+03 0.140756826337594D+03 -.611407101672687D+02 0.164705835649523D+01
 0.000000000000000D+00 -.000000000000000D+00 -.000000000000000D+00 0.000000000000000D+00
 0.897094722765178D+03 0.000000000000000D+00 0.000000000000000D+00 0.897094722765178D+03
 0.598793864947946D+03 0.000000000000000D+00 0.000000000000000D+00 -.598793864947946D+03
 0.191846642465876D+03 0.229105044091505D+02 0.132388893015979D+03 -.102167375786752D+03
 0.528218390146714D+02 -.123208574065294D+02 0.506254693196320D+02 -.868360557757149D+01
 0.238462438562224D+03 0.590472017829689D+02 0.203598295096850D+03 0.109203923007829D+03
 0.318267286855997D+03 0.270835469571730D+03 0.140086580939463D+03 0.164705835649523D+01
 0.694490380814356D+03 -.340472318357320D+03 -.526699238371924D+03 0.298300857817232D+03
0.112635284124D-05 0.000000000000D+00 0.000000000000D+00 0.271628904055D-07 0.000000000000D+00  7 -2 2 23 -13 13 23 21 0 0.10561521D-01 0.13945095D+00 0.39470452D+05 0.39470452D+05 0.39470452D+05 0.11564397D+01  1  2  2  1  7  1       -2 0.226608286967D-03 0.100000000000D+01
-.586334949899D-07 0.000000000000D+00 -.432549148589D-08 0.271628904055D-07 0.000000000000D+00  7 -2 2 23 -13 13 23 21 2 0.10561521D-01 0.13945095D+00 0.39470452D+05 0.39470452D+05 0.39470452D+05 0.11564397D+01  1  2  3  1  7  1       -2 -.157758623425D-04 0.100000000000D+01
0.728038490121D-07 0.000000000000D+00 0.000000000000D+00 0.271628904055D-07 0.000000000000D+00  7 -2 2 23 -13 13 23 21 2 0.10561521D-01 0.13945095D+00 0.39470452D+05 0.39470452D+05 0.39470452D+05 0.11564397D+01  1  2 15  1  7  1       -2 0.195885218887D-04 0.100000000000D+01
0.179625135947D-05 0.000000000000D+00 -.716580953431D-06 0.271628904055D-07 0.000000000000D+00  7 -2 2 23 -13 13 23 21 2 0.92034101D-01 0.13945095D+00 0.39470452D+05 0.39470452D+05 0.39470452D+05 0.11564397D+01  1  2  5  1  7  1       -2 0.968196186720D-05 0.100000000000D+01
0.371964936484D-06 0.000000000000D+00 -.187085537365D-06 0.271628904055D-07 0.000000000000D+00  7 21 2 23 -13 13 23 2 2 0.92034101D-01 0.13945095D+00 0.39470452D+05 0.39470452D+05 0.39470452D+05 0.11564397D+01  1  2  5  3  7  1       -2 0.200655388493D-04 0.100000000000D+01
  </mgrwgt>
  </event>
  <event>
  8     66 0.53686478E-06 0.29305805E+03 0.75467711E-02 0.92504262E-01
       -2 -1    0    0    0  501 0.00000000E+00 0.00000000E+00 0.10153183E+04 0.10153183E+04 0.32000000E+00 0.0000E+00 0.9000E+01
        2 -1    0    0  501    0 0.00000000E+00 0.00000000E+00 -.49850495E+03 0.49850505E+03 0.32000000E+00 0.0000E+00 0.9000E+01
       25  2    1    2    0    0 0.39986990E+03 -.32984722E+03 -.19388673E+03 0.62941365E+03 0.29979052E+03 0.0000E+00 0.0000E+00
       23  2    1    2    0    0 -.39986990E+03 0.32984722E+03 0.71070005E+03 0.88440971E+03 0.91601617E+02 0.0000E+00 0.0000E+00
       23  1    3    3    0    0 0.29794753E+03 -.26566306E+03 -.36244969E+02 0.41106999E+03 0.91188000E+02 0.0000E+00 0.9000E+01
      -13  1    4    4    0    0 -.32503846E+03 0.26176269E+03 0.62654893E+03 0.75281690E+03 0.10565837E+00 0.0000E+00 0.9000E+01
       13  1    4    4    0    0 -.74831434E+02 0.68084527E+02 0.84151114E+02 0.13159281E+03 0.10565837E+00 0.0000E+00 0.9000E+01
       23  1    3    3    0    0 0.10192237E+03 -.64184159E+02 -.15764176E+03 0.21834366E+03 0.91188000E+02 0.0000E+00 0.9000E+01
#aMCatNLO 1  0  0  1  2 0.12641626D+03 0.00000000D+00  -5  7  0 0.00000000D+00 0.00000000D+00 0.00000000D+00 0.00000000D+00 0.00000000D+00
  <mgrwgt>
 0.2134690434D-03    6    2    0
 0.711436075035364D+03 0.000000000000000D+00 0.000000000000000D+00 0.711436075035364D+03
 0.711436075035364D+03 0.000000000000000D+00 0.000000000000000D+00 -.711436075035364D+03
 0.450510774805262D+03 0.297947525176034D+03 -.265663056800169D+03 -.187869953331299D+03
 0.573364130758779D+03 -.325038795335819D+03 0.261762946443042D+03 0.393162012199637D+03
 0.109438486468007D+03 -.748311011719392D+02 0.680842695347223D+02 0.417327312756601D+02
 0.289558758038680D+03 0.101922371331724D+03 -.641841591775951D+02 -.247024790143998D+03
 0.000000000000000D+00 0.000000000000000D+00 0.000000000000000D+00 -.000000000000000D+00
 0.767821999877272D+03 0.000000000000000D+00 0.000000000000000D+00 0.767821999877272D+03
 0.788799901452922D+03 0.000000000000000D+00 0.000000000000000D+00 -.788799901452922D+03
 0.471608034596494D+03 0.291757178125096D+03 -.306074364492919D+03 -.187869953331299D+03
 0.557006914781592D+03 -.332627176569215D+03 0.212225108517424D+03 0.393162012199637D+03
 0.104896997741970D+03 -.762699732772065D+02 0.586911445777514D+02 0.417327312756601D+02
 0.294964943444347D+03 0.979983600928408D+02 -.898005623064507D+02 -.247024790143998D+03
 0.128145010765791D+03 0.191416116284848D+02 0.124958673704194D+03 -.209779015756503D+02
0.983285397086D-04 0.000000000000D+00 0.000000000000D+00 0.460133627099D-05 0.000000000000D+00  7 -2 2 23 -13 13 23 21 0 0.15620282D+00 0.76693080D-01 0.29108600D+06 0.29108600D+06 0.29108600D+06 0.10855224D+01  1  2  2  1  7  1       -2 0.195029017328D-03 0.100000000000D+01
-.495455081099D-05 0.000000000000D+00 -.377607482980D-06 0.460133627099D-05 0.000000000000D+00  7 -2 2 23 -13 13 23 21 2 0.15620282D+00 0.76693080D-01 0.29108600D+06 0.29108600D+06 0.29108600D+06 0.10855224D+01  1  2  3  1  7  1       -2 -.115798117687D-04 0.100000000000D+01
0.595516559739D-05 0.000000000000D+00 0.000000000000D+00 0.460133627099D-05 0.000000000000D+00  7 -2 2 23 -13 13 23 21 2 0.15620282D+00 0.76693080D-01 0.29108600D+06 0.29108600D+06 0.29108600D+06 0.10855224D+01  1  2 15  1  7  1       -2 0.139184558399D-04 0.100000000000D+01
0.841771840938D-04 0.000000000000D+00 0.000000000000D+00 0.460133627099D-05 0.000000000000D+00  7 -2 2 23 -13 13 23 21 2 0.17633409D+00 0.76693080D-01 0.36661995D+06 0.36661995D+06 0.36661995D+06 0.10781664D+01  1  2 12  1  7  1       -2 0.135642656265D-03 0.100000000000D+01
-.601720378391D-04 0.000000000000D+00 0.000000000000D+00 0.460133627099D-05 0.000000000000D+00  7 -2 2 23 -13 13 23 21 2 0.15620282D+00 0.76693080D-01 0.29108600D+06 0.29108600D+06 0.29108600D+06 0.10855224D+01  1  2  4  1  7  1       -2 -.140634519353D-03 0.100000000000D+01
0.161084653237D-05 0.000000000000D+00 0.000000000000D+00 0.460133627099D-05 0.000000000000D+00  7 21 2 23 -13 13 23 2 2 0.17633409D+00 0.76693080D-01 0.36661995D+06 0.36661995D+06 0.36661995D+06 0.10781664D+01  1  2 12  3  7  1       -2 0.210932450399D-04 0.100000000000D+01
  </mgrwgt>
  </event>
  <event>
  8     66 0.53686478E-06 0.90928348E+02 0.75467711E-02 0.10815956E+00
       -2 -1    0    0    0  501 0.00000000E+00 0.00000000E+00 0.33860163E+02 0.33861675E+02 0.32000000E+00 0.0000E+00 0.9000E+01
        2 -1    0    0  501    0 0.00000000E+00 0.00000000E+00 -.25060251E+04 0.25060252E+04 0.32000000E+00 0.0000E+00 0.9000E+01
       25  2    1    2    0    0 0.51139255E+01 -.28473224E+02 -.24020838E+04 0.24209714E+04 0.30043138E+03 0.0000E+00 0.0000E+00
       23  2    1    2    0    0 -.51139255E+01 0.28473224E+02 -.70081180E+02 0.11891545E+03 0.91611326E+02 0.0000E+00 0.0000E+00
       23  1    3    3    0    0 0.75553692E+02 -.84092337E+02 -.74957335E+03 0.76351512E+03 0.91188000E+02 0.0000E+00 0.9000E+01
      -13  1    4    4    0    0 -.60126045E+01 0.52798456E+02 -.99759032E+01 0.54068088E+02 0.10565837E+00 0.0000E+00 0.9000E+01
       13  1    4    4    0    0 0.89867906E+00 -.24325232E+02 -.60105276E+02 0.64847359E+02 0.10565837E+00 0.0000E+00 0.9000E+01
       23  1    3    3    0    0 -.70439766E+02 0.55619113E+02 -.16525105E+04 0.16574563E+04 0.91188000E+02 0.0000E+00 0.9000E+01
#aMCatNLO 1  0  0  2  1 0.26675502D+01 0.00000000D+00  -5  7  0 0.00000000D+00 0.00000000D+00 0.00000000D+00 0.00000000D+00 0.00000000D+00
  <mgrwgt>
 0.7847593223D-03   11    2    0
 0.291301159341286D+03 0.000000000000000D+00 0.000000000000000D+00 0.291301159341286D+03
 0.291301159341286D+03 0.000000000000000D+00 0.000000000000000D+00 -.291301159341286D+03
 0.147910534051116D+03 0.755536910877863D+02 -.840923363895974D+02 -.279712971246694D+02
 0.193382128433849D+03 -.601261375025616D+01 0.527985582472922D+02 0.185937646323985D+03
 0.276598029539194D+02 0.898688231205114D+00 -.243253342266860D+02 0.131352645071488D+02
 0.213649853243687D+03 -.704397655687353D+02 0.556191123689912D+02 -.171101613706464D+03
 0.000000000000000D+00 -.000000000000000D+00 0.000000000000000D+00 -.000000000000000D+00
 0.291789211425820D+03 0.000000000000000D+00 0.000000000000000D+00 0.291789211425820D+03
 0.294972173588444D+03 0.000000000000000D+00 0.000000000000000D+00 -.294972173588444D+03
 0.148321293715570D+03 0.762209331241956D+02 -.842136017297734D+02 -.279712971246694D+02
 0.193313841917820D+03 -.514160738786102D+01 0.526402605426096D+02 0.185937646323985D+03
 0.276840570984546D+02 0.102334651037282D+01 -.243479897666612D+02 0.131352645071488D+02
 0.213289232849379D+03 -.694781143262772D+02 0.554443407588647D+02 -.171101613706464D+03
 0.415295943304020D+01 -.262455792043026D+01 0.476990194960345D+00 -.318296216262400D+01
0.279430741552D-05 0.000000000000D+00 0.000000000000D+00 0.457426827414D-06 0.000000000000D+00  7 -2 2 23 -13 13 23 21 0 0.52093737D-02 0.38554245D+00 0.30742471D+05 0.30742471D+05 0.30742471D+05 0.11663521D+01  1  2  2  2  7  2        2 0.218930792408D-03 0.100000000000D+01
-.106595813136D-06 0.000000000000D+00 -.107308762336D-07 0.457426827414D-06 0.000000000000D+00  7 -2 2 23 -13 13 23 21 2 0.52093737D-02 0.38554245D+00 0.30742471D+05 0.30742471D+05 0.30742471D+05 0.11663521D+01  1  2  3  2  7  2        2 -.113614079829D-04 0.100000000000D+01
0.177086070594D-06 0.000000000000D+00 0.000000000000D+00 0.457426827414D-06 0.000000000000D+00  7 -2 2 23 -13 13 23 21 2 0.52093737D-02 0.38554245D+00 0.30742471D+05 0.30742471D+05 0.30742471D+05 0.11663521D+01  1  2 15  2  7  2        2 0.188745414750D-04 0.100000000000D+01
0.167887000763D-07 0.000000000000D+00 0.000000000000D+00 0.457426827414D-06 0.000000000000D+00  7 -2 2 23 -13 13 23 21 2 0.52093737D-02 0.39072174D+00 0.31140228D+05 0.31140228D+05 0.31140228D+05 0.11658358D+01  1  2 12  2  7  2        2 0.171150169881D-05 0.100000000000D+01
-.853575675216D-04 0.000000000000D+00 0.000000000000D+00 0.457426827414D-06 0.000000000000D+00  7 -2 2 23 -13 13 23 21 2 0.52093737D-02 0.38554245D+00 0.30742471D+05 0.30742471D+05 0.30742471D+05 0.11663521D+01  1  2  4  2  7  2        2 -.909775084507D-02 0.100000000000D+01
-.210281424056D-03 0.000000000000D+00 -.187630476250D-04 0.457426827414D-06 0.000000000000D+00  7 -2 2 23 -13 13 23 21 2 0.52093737D-02 0.39061382D+00 0.30742471D+05 0.30742471D+05 0.30742471D+05 0.11663521D+01  1  2  5  2  7  2        2 -.214812185790D-01 0.100000000000D+01
0.210510248173D-03 0.000000000000D+00 0.187614456080D-04 0.457426827414D-06 0.000000000000D+00  7 -2 2 23 -13 13 23 21 2 0.52093737D-02 0.38554245D+00 0.30742471D+05 0.30742471D+05 0.30742471D+05 0.11663521D+01  1  2  6  2  7  2        2 0.224370239666D-01 0.100000000000D+01
0.853459542358D-04 0.000000000000D+00 0.000000000000D+00 0.457426827414D-06 0.466012749721D-06  7 -2 2 23 -13 13 23 21 2 0.52181016D-02 0.39040110D+00 0.31140228D+05 0.31140228D+05 0.31140228D+05 0.11658358D+01  1  2 11  2  7  2        2 0.870245630639D-02 0.100000000000D+01
0.157022885261D-08 0.000000000000D+00 0.000000000000D+00 0.457426827414D-06 0.000000000000D+00  7 -2 21 23 -13 13 23 -2 2 0.52093737D-02 0.39072174D+00 0.31140228D+05 0.31140228D+05 0.31140228D+05 0.11658358D+01  1  2 12  4  7  2        2 0.206328726516D-07 0.100000000000D+01
-.504110085292D-06 0.000000000000D+00 -.450863441831D-07 0.457426827414D-06 0.000000000000D+00  7 -2 21 23 -13 13 23 -2 2 0.52093737D-02 0.39061382D+00 0.30742471D+05 0.30742471D+05 0.30742471D+05 0.11663521D+01  1  2  5  4  7  2        2 -.664844522313D-05 0.100000000000D+01
0.206566024841D-06 0.000000000000D+00 0.000000000000D+00 0.457426827414D-06 0.107535566867D-08  7 -2 21 23 -13 13 23 -2 2 0.52181016D-02 0.39040110D+00 0.31140228D+05 0.31140228D+05 0.31140228D+05 0.11658358D+01  1  2 11  4  7  2        2 0.272085819870D-05 0.100000000000D+01
  </mgrwgt>
  </event>
  <event>
  9     66 0.53686478E-06 0.16030742E+04 0.75467711E-02 0.82806423E-01
       -2 -1    0    0    0  501 0.00000000E+00 0.00000000E+00 0.24159105E+04 0.24159106E+04 0.32000000E+00 0.0000E+00 0.9000E+01
        2 -1    0    0  502    0 0.00000000E+00 0.00000000E+00 -.11743570E+04 0.11743570E+04 0.32000000E+00 0.0000E+00 0.9000E+01
       25  2    1    2    0    0 -.28157373E+03 0.16114749E+04 0.65406857E+03 0.17871754E+04 0.30009175E+03 0.0000E+00 0.0000E+00
       23  2    1    2    0    0 0.28592018E+03 -.15194613E+04 0.40856909E+03 0.16018540E+04 0.92165385E+02 0.0000E+00 0.0000E+00
       23  1    3    3    0    0 -.79049153E+02 0.10240116E+04 0.34570238E+03 0.10875081E+04 0.91188000E+02 0.0000E+00 0.9000E+01
      -13  1    4    4    0    0 0.15391059E+02 -.22883174E+02 0.21970559E+01 0.27665187E+02 0.10565837E+00 0.0000E+00 0.9000E+01
       13  1    4    4    0    0 0.27052912E+03 -.14965781E+04 0.40637204E+03 0.15741888E+04 0.10565837E+00 0.0000E+00 0.9000E+01
       23  1    3    3    0    0 -.20252458E+03 0.58746332E+03 0.30836619E+03 0.69966729E+03 0.91188000E+02 0.0000E+00 0.9000E+01
       21  1    1    2  502  501 -.43464450E+01 -.92013589E+02 0.17891586E+03 0.20123827E+03 0.75000000E+00 0.0000E+00 0.9000E+01
#aMCatNLO 2  0  0  2  2 0.92116189D+02 0.00000000D+00  -5  7  0 0.00000000D+00 0.00000000D+00 0.00000000D+00 0.00000000D+00 0.00000000D+00
  <mgrwgt>
 0.3439828643D-04    2    2    0
 0.160840259410611D+04 0.000000000000000D+00 0.000000000000000D+00 0.160840259410611D+04
 0.160840259410611D+04 0.000000000000000D+00 0.000000000000000D+00 -.160840259410611D+04
 0.100234886125618D+04 -.804226440358158D+02 0.994934955047987D+03 0.496204267560454D+01
 0.290523104347044D+02 0.153519135455401D+02 -.237028523434436D+02 -.682131093482765D+01
 0.156667301585931D+04 0.268442136323777D+03 -.154076820658480D+04 -.918503764014309D+02
 0.618731000662017D+03 -.203371405833501D+03 0.569536103880255D+03 0.937096446606540D+02
 0.000000000000000D+00 -.000000000000000D+00 -.000000000000000D+00 0.000000000000000D+00
 0.174646823437390D+04 0.000000000000000D+00 0.000000000000000D+00 0.174646823437390D+04
 0.162450042156974D+04 0.000000000000000D+00 0.000000000000000D+00 -.162450042156974D+04
 0.103111023211852D+04 -.790491528818992D+02 0.102401155706205D+04 0.496204267560454D+01
 0.284069656135467D+02 0.153907241651487D+02 -.228812373391808D+02 -.682131093482765D+01
 0.152360576456858D+04 0.270529451766651D+03 -.149658005128639D+04 -.918503764014309D+02
 0.635000871726775D+03 -.202524578060216D+03 0.587463321007253D+03 0.937096446606540D+02
 0.152844821916211D+03 -.434644498968492D+01 -.920135894437341D+02 0.121967812804157D+03
-.313787979157D-04 0.000000000000D+00 0.000000000000D+00 0.132937087767D-04 0.000000000000D+00  7 -2 2 23 -13 13 23 21 2 0.34229561D+00 0.17887988D+00 0.25698469D+07 0.25698469D+07 0.25698469D+07 0.10216209D+01  1  2  8  2  7  2        2 -.102219344931D-05 0.100000000000D+01
0.178390304285D-02 0.000000000000D+00 0.000000000000D+00 0.132937087767D-04 0.872418282878D-08  7 -2 2 23 -13 13 23 21 2 0.37167834D+00 0.18067021D+00 0.27219608D+07 0.27219608D+07 0.27219608D+07 0.10200864D+01  1  2  1  2  7  2        2 0.354204798785D-04 0.100000000000D+01
  </mgrwgt>
  </event>
  <event>
  8     66 0.53686478E-06 0.41350791E+03 0.75467711E-02 0.96633291E-01
       -2 -1    0    0    0  501 0.00000000E+00 0.00000000E+00 0.91384786E+02 0.91385346E+02 0.32000000E+00 0.0000E+00 0.9000E+01
        2 -1    0    0  501    0 0.00000000E+00 0.00000000E+00 -.21262270E+04 0.21262270E+04 0.32000000E+00 0.0000E+00 0.9000E+01
       25  2    1    2    0    0 -.11447133E+03 0.33501914E+03 -.74594289E+03 0.87818727E+03 0.29906618E+03 0.0000E+00 0.0000E+00
       23  2    1    2    0    0 0.11447133E+03 -.33501914E+03 -.12888993E+04 0.13394251E+04 0.86351732E+02 0.0000E+00 0.0000E+00
       23  1    3    3    0    0 -.16291610E+02 0.31348843E+03 -.50240351E+03 0.59938714E+03 0.91188000E+02 0.0000E+00 0.9000E+01
      -11  1    4    4    0    0 0.30884376E+02 -.22040624E+03 -.78743911E+03 0.81828669E+03 0.51099893E-03 0.0000E+00 0.9000E+01
       11  1    4    4    0    0 0.83586958E+02 -.11461290E+03 -.50146024E+03 0.52113843E+03 0.51099893E-03 0.0000E+00 0.9000E+01
       23  1    3    3    0    0 -.98179724E+02 0.21530708E+02 -.24353938E+03 0.27880013E+03 0.91188000E+02 0.0000E+00 0.9000E+01
#aMCatNLO 1  0  0  2  2 0.13644976D+02 0.00000000D+00  -5  7  0 0.00000000D+00 0.00000000D+00 0.00000000D+00 0.00000000D+00 0.00000000D+00
  <mgrwgt>
 0.3844550284D-04    4    2    0
 0.440800918302968D+03 0.000000000000000D+00 0.000000000000000D+00 0.440800918302968D+03
 0.440800918302968D+03 0.000000000000000D+00 0.000000000000000D+00 -.440800918302968D+03
 0.348112341334686D+03 -.162916102719722D+02 0.313488428576429D+03 0.119693522919763D+03
 0.240843808998824D+03 0.308843764078740D+02 -.220406238304464D+03 -.920488226075407D+02
 0.153459951814787D+03 0.835869580491803D+02 -.114612898638014D+03 -.585411028327416D+02
 0.139185734457640D+03 -.981797241850822D+02 0.215307083660487D+02 0.308964025205189D+02
 0.000000000000000D+00 -.000000000000000D+00 0.000000000000000D+00 0.000000000000000D+00
 0.452442899854657D+03 0.000000000000000D+00 0.000000000000000D+00 0.452442899854657D+03
 0.444870071851732D+03 0.000000000000000D+00 0.000000000000000D+00 -.444870071851732D+03
 0.345532288402302D+03 -.116283167752142D+02 0.310830426124218D+03 0.119693522919763D+03
 0.242977210506352D+03 0.341370497756600D+02 -.222260209922126D+03 -.920488226075407D+02
 0.155480721375224D+03 0.856639308539972D+02 -.115796739803537D+03 -.585411028327416D+02
 0.137717204922779D+03 -.963181373997344D+02 0.204696337749044D+02 0.308964025205189D+02
 0.156055464997314D+02 -.118545264547087D+02 0.675688982654092D+01 0.757282800292442D+01
0.266922824653D-05 0.000000000000D+00 0.000000000000D+00 0.394066271971D-08 0.000000000000D+00  7 -2 2 23 -11 11 23 21 0 0.14059243D-01 0.32711189D+00 0.17098879D+06 0.17098879D+06 0.17098879D+06 0.11030913D+01  1  2  2  2  7  2        2 0.712723586075D-04 0.100000000000D+01
-.147553872364D-06 0.000000000000D+00 -.102505392906D-07 0.394066271971D-08 0.000000000000D+00  7 -2 2 23 -11 11 23 21 2 0.14059243D-01 0.32711189D+00 0.17098879D+06 0.17098879D+06 0.17098879D+06 0.11030913D+01  1  2  3  2  7  2        2 -.479412073785D-05 0.100000000000D+01
0.168976696331D-06 0.000000000000D+00 0.000000000000D+00 0.394066271971D-08 0.000000000000D+00  7 -2 2 23 -11 11 23 21 2 0.14059243D-01 0.32711189D+00 0.17098879D+06 0.17098879D+06 0.17098879D+06 0.11030913D+01  1  2 15  2  7  2        2 0.549016214291D-05 0.100000000000D+01
-.103177069620D-05 0.000000000000D+00 0.000000000000D+00 0.394066271971D-08 0.000000000000D+00  7 -2 2 23 -11 11 23 21 2 0.14059243D-01 0.32711189D+00 0.17098879D+06 0.17098879D+06 0.17098879D+06 0.11030913D+01  1  2  4  2  7  2        2 -.335228971773D-04 0.100000000000D+01
  </mgrwgt>
  </event>
  <event>
  8     66 0.53686478E-06 0.19502391E+03 0.75467711E-02 0.88425740E-01
       -2 -1    0    0    0  501 0.00000000E+00 0.00000000E+00 0.62990138E+03 0.62990146E+03 0.32000000E+00 0.0000E+00 0.9000E+01
        2 -1    0    0  501    0 0.00000000E+00 0.00000000E+00 -.12705440E+03 0.12705481E+03 0.32000000E+00 0.0000E+00 0.9000E+01
       25  2    1    2    0    0 -.25228515E+01 -.19841160E+02 0.63076678E+02 0.30733059E+03 0.30012228E+03 0.0000E+00 0.0000E+00
       23  2    1    2    0    0 0.25228515E+01 0.19841160E+02 0.43977030E+03 0.44962568E+03 0.91462041E+02 0.0000E+00 0.0000E+00
       23  1    3    3    0    0 0.11036405E+03 0.28375456E+02 0.48159502E+02 0.15368792E+03 0.91188000E+02 0.0000E+00 0.9000E+01
      -11  1    4    4    0    0 -.43231570E+02 0.10412093E+02 0.16376918E+03 0.16969893E+03 0.51099893E-03 0.0000E+00 0.9000E+01
       11  1    4    4    0    0 0.45754422E+02 0.94290675E+01 0.27600112E+03 0.27992676E+03 0.51099893E-03 0.0000E+00 0.9000E+01
       23  1    3    3    0    0 -.11288690E+03 -.48216617E+02 0.14917176E+02 0.15364266E+03 0.91188000E+02 0.0000E+00 0.9000E+01
#aMCatNLO 1  0  0  2  2 0.85936524D+03 0.00000000D+00  -5  7  0 0.00000000D+00 0.00000000D+00 0.00000000D+00 0.00000000D+00 0.00000000D+00
  <mgrwgt>
 0.2703569529D-03    3    2    0
 0.282899148608631D+03 0.000000000000000D+00 0.000000000000000D+00 0.282899148608631D+03
 0.282899148608631D+03 0.000000000000000D+00 0.000000000000000D+00 -.282899148608631D+03
 0.162810984803001D+03 0.110364046001262D+03 0.283754562720991D+02 -.721579951225401D+02
 0.814845643620873D+02 -.432315704470985D+02 0.104120927610371D+02 0.682814313726087D+02
 0.129208569746403D+03 0.457544218973608D+02 0.942906751304649D+01 0.120467755264983D+03
 0.192294178305772D+03 -.112886897451524D+03 -.482166165461826D+02 -.116591191515052D+03
 0.000000000000000D+00 -.000000000000000D+00 0.000000000000000D+00 0.000000000000000D+00
 0.147574246154822D+04 0.000000000000000D+00 0.000000000000000D+00 0.147574246154822D+04
 0.706511699779177D+03 0.000000000000000D+00 0.000000000000000D+00 -.706511699779177D+03
 0.388014485855839D+03 0.325705097033087D+03 -.175924425241449D+03 -.721579951225401D+02
 0.896591202169486D+02 0.236757584217491D+02 -.530647004225969D+02 0.682814313726087D+02
 0.275523424586662D+03 0.203981333484515D+03 -.140685084594128D+03 0.120467755264983D+03
 0.275703510004750D+03 0.700732586224334D+02 -.221795866895831D+03 -.116591191515052D+03
 0.115335362066320D+04 -.623435447561785D+03 0.591470077154004D+03 0.769230761769042D+03
0.809388033380D-05 0.000000000000D+00 0.000000000000D+00 0.360726148564D-06 0.000000000000D+00  7 -2 2 23 -11 11 23 21 0 0.96907942D-01 0.19546869D-01 0.38034325D+05 0.38034325D+05 0.38034325D+05 0.11578934D+01  1  2  2  2  7  2        2 0.265284320526D-03 0.100000000000D+01
-.374015465694D-06 0.000000000000D+00 -.310826316494D-07 0.360726148564D-06 0.000000000000D+00  7 -2 2 23 -11 11 23 21 2 0.96907942D-01 0.19546869D-01 0.38034325D+05 0.38034325D+05 0.38034325D+05 0.11578934D+01  1  2  3  2  7  2        2 -.164354475348D-04 0.100000000000D+01
0.489451505493D-06 0.000000000000D+00 0.000000000000D+00 0.360726148564D-06 0.000000000000D+00  7 -2 2 23 -11 11 23 21 2 0.96907942D-01 0.19546869D-01 0.38034325D+05 0.38034325D+05 0.38034325D+05 0.11578934D+01  1  2 15  2  7  2        2 0.215080799518D-04 0.100000000000D+01
  </mgrwgt>
  </event>
  <event>
  8     66 0.53686478E-06 0.29667383E+03 0.75467711E-02 0.83058263E-01
       -2 -1    0    0    0  501 0.00000000E+00 0.00000000E+00 0.28037144E+03 0.28037162E+03 0.32000000E+00 0.0000E+00 0.9000E+01
        2 -1    0    0  501    0 0.00000000E+00 0.00000000E+00 -.73155093E+03 0.73155100E+03 0.32000000E+00 0.0000E+00 0.9000E+01
       25  2    1    2    0    0 0.12638483E+03 -.21059449E+03 -.59546625E+03 0.71254639E+03 0.30466234E+03 0.0000E+00 0.0000E+00
       23  2    1    2    0    0 -.12638483E+03 0.21059449E+03 0.14428676E+03 0.29937623E+03 0.92110250E+02 0.0000E+00 0.0000E+00
       23  1    3    3    0    0 0.89866396E+02 -.20255268E+02 -.75059943E+02 0.14978482E+03 0.91188000E+02 0.0000E+00 0.9000E+01
      -13  1    4    4    0    0 -.11377122E+03 0.15350671E+03 0.14665288E+03 0.24086361E+03 0.10565837E+00 0.0000E+00 0.9000E+01
       13  1    4    4    0    0 -.12613607E+02 0.57087783E+02 -.23661191E+01 0.58512629E+02 0.10565837E+00 0.0000E+00 0.9000E+01
       23  1    3    3    0    0 0.36518431E+02 -.19033922E+03 -.52040630E+03 0.56276157E+03 0.91188000E+02 0.0000E+00 0.9000E+01
#aMCatNLO 1  0  0  1  2 0.15650524D+04 0.00000000D+00  -5  7  0 0.00000000D+00 0.00000000D+00 0.00000000D+00 0.00000000D+00 0.00000000D+00
  <mgrwgt>
 0.3048433984D-03    5    2    0
 0.452886427122574D+03 0.000000000000000D+00 0.000000000000000D+00 0.452886427122574D+03
 0.452886427122574D+03 0.000000000000000D+00 0.000000000000000D+00 -.452886427122574D+03
 0.129949950628055D+03 0.898663936387915D+02 -.202552718589370D+02 -.924627387179021D+01
 0.342141448036318D+03 -.113771354222208D+03 0.153506835629181D+03 0.283817724671926D+03
 0.641909030204948D+02 -.126134744889935D+02 0.570876561055114D+02 0.265022982452645D+02
 0.369490552560281D+03 0.365184350724101D+02 -.190339219875755D+03 -.301073749045400D+03
 0.000000000000000D+00 -.000000000000000D+00 0.000000000000000D+00 0.000000000000000D+00
 0.563185331512515D+04 0.000000000000000D+00 0.000000000000000D+00 0.563185331512515D+04
 0.103365394953592D+04 0.000000000000000D+00 0.000000000000000D+00 -.103365394953592D+04
 0.418181428571175D+03 0.392355289337279D+03 -.111947707463693D+03 -.924627387179021D+01
 0.417970880492255D+03 0.305700231585038D+03 0.263538329351773D+02 0.283817724671926D+03
 0.786773737923595D+02 0.662290602088026D+02 0.331883852942637D+02 0.265022982452645D+02
 0.893432854103388D+03 0.733468693952977D+03 -.401603394002078D+03 -.301073749045400D+03
 0.485724472770189D+04 -.149775327508410D+04 0.454008883236330D+03 0.459819936558923D+04
0.120494987198D-04 0.000000000000D+00 0.000000000000D+00 0.204773680926D-07 0.000000000000D+00  7 -2 2 23 -13 13 23 21 0 0.43134087D-01 0.11254632D+00 0.88015364D+05 0.88015364D+05 0.88015364D+05 0.11263003D+01  1  2  2  1  7  1       -2 0.299676419415D-03 0.100000000000D+01
-.523778419978D-06 0.000000000000D+00 -.462732477899D-07 0.204773680926D-07 0.000000000000D+00  7 -2 2 23 -13 13 23 21 2 0.43134087D-01 0.11254632D+00 0.88015364D+05 0.88015364D+05 0.88015364D+05 0.11263003D+01  1  2  3  1  7  1       -2 -.165249272056D-04 0.100000000000D+01
0.687185624932D-06 0.000000000000D+00 0.000000000000D+00 0.204773680926D-07 0.000000000000D+00  7 -2 2 23 -13 13 23 21 2 0.43134087D-01 0.11254632D+00 0.88015364D+05 0.88015364D+05 0.88015364D+05 0.11263003D+01  1  2 15  1  7  1       -2 0.216803365614D-04 0.100000000000D+01
0.137908547608D-04 0.000000000000D+00 -.121065410950D-04 0.204773680926D-07 0.000000000000D+00  7 -2 2 23 -13 13 23 21 2 0.65328967D+00 0.11254632D+00 0.88015364D+05 0.88015364D+05 0.88015364D+05 0.11263003D+01  1  2  5  1  7  1       -2 0.693999531629D-08 0.100000000000D+01
0.152221756184D-05 0.000000000000D+00 -.370110665015D-05 0.204773680926D-07 0.000000000000D+00  7 21 2 23 -13 13 23 2 2 0.65328967D+00 0.11254632D+00 0.88015364D+05 0.88015364D+05 0.88015364D+05 0.11263003D+01  1  2  5  3  7  1       -2 0.462964396608D-08 0.100000000000D+01
  </mgrwgt>
  </event>
  <event>
  8     66 0.53686478E-06 0.17186926E+03 0.75467711E-02 0.97801441E-01
       -2 -1    0    0    0  501 0.00000000E+00 0.00000000E+00 0.10789892E+03 0.10789940E+03 0.32000000E+00 0.0000E+00 0.9000E+01
        2 -1    0    0  501    0 0.00000000E+00 0.00000000E+00 -.58611466E+03 0.58611475E+03 0.32000000E+00 0.0000E+00 0.9000E+01
       25  2    1    2    0    0 -.10557420E+03 0.53564728E+02 -.18147050E+03 0.36970412E+03 0.29955717E+03 0.0000E+00 0.0000E+00
       23  2    1    2    0    0 0.10557420E+03 -.53564728E+02 -.29674523E+03 0.32431003E+03 0.55715049E+02 0.0000E+00 0.0000E+00
       23  1    3    3    0    0 -.40866086E+02 0.29991422E+02 0.46863447E+02 0.11437201E+03 0.91188000E+02 0.0000E+00 0.9000E+01
      -11  1    4    4    0    0 0.45423496E+02 -.45767842E+02 -.10518807E+03 0.12337957E+03 0.51099893E-03 0.0000E+00 0.9000E+01
       11  1    4    4    0    0 0.60150705E+02 -.77968857E+01 -.19155717E+03 0.20093046E+03 0.51099893E-03 0.0000E+00 0.9000E+01
       23  1    3    3    0    0 -.64708115E+02 0.23573306E+02 -.22833395E+03 0.25533211E+03 0.91188000E+02 0.0000E+00 0.9000E+01
#aMCatNLO 1  0  0  2  2 0.31640022D+03 0.00000000D+00  -5  7  0 0.00000000D+00 0.00000000D+00 0.00000000D+00 0.00000000D+00 0.00000000D+00
  <mgrwgt>
 0.8015687230D-03    3    2    0
 0.251478298110279D+03 0.000000000000000D+00 0.000000000000000D+00 0.251478298110279D+03
 0.251478298110279D+03 0.000000000000000D+00 0.000000000000000D+00 -.251478298110279D+03
 0.202376567462213D+03 -.408660865019508D+02 0.299914217887930D+02 0.173411364411014D+03
 0.702338511408470D+02 0.454234962127271D+02 -.457678422770798D+02 -.278353094322188D+02
 0.951233662860511D+02 0.601507049205651D+02 -.779688574195589D+01 -.732772548876951D+02
 0.135222811331448D+03 -.647081146313414D+02 0.235733062302427D+02 -.722988000910996D+02
 0.000000000000000D+00 0.000000000000000D+00 -.000000000000000D+00 0.000000000000000D+00
 0.115288056544382D+04 0.000000000000000D+00 0.000000000000000D+00 0.115288056544382D+04
 0.326345313572365D+03 0.000000000000000D+00 0.000000000000000D+00 -.326345313572365D+03
 0.266156388781057D+03 -.175592917393335D+03 0.402442293923164D+02 0.173411364411014D+03
 0.522979522530115D+02 0.101894292496993D+02 -.430865047345021D+02 -.278353094322188D+02
 0.742774800105582D+02 0.114394267324611D+02 -.408992284466210D+01 -.732772548876951D+02
 0.201468848773269D+03 -.161523930357899D+03 0.309410586300807D+02 -.722988000910996D+02
 0.885025209198286D+03 0.315487991769074D+03 -.240088604432329D+02 0.826535251871452D+03
0.468696802652D-05 0.000000000000D+00 0.000000000000D+00 0.843236897047D-10 0.000000000000D+00  7 -2 2 23 -11 11 23 21 0 0.16599877D-01 0.90171529D-01 0.29539044D+05 0.29539044D+05 0.29539044D+05 0.11679604D+01  1  2  2  2  7  2        2 0.783787819771D-03 0.100000000000D+01
-.214521190357D-06 0.000000000000D+00 -.179991913289D-07 0.843236897047D-10 0.000000000000D+00  7 -2 2 23 -11 11 23 21 2 0.16599877D-01 0.90171529D-01 0.29539044D+05 0.29539044D+05 0.29539044D+05 0.11679604D+01  1  2  3  2  7  2        2 -.489365031154D-04 0.100000000000D+01
0.292466696829D-06 0.000000000000D+00 0.000000000000D+00 0.843236897047D-10 0.000000000000D+00  7 -2 2 23 -11 11 23 21 2 0.16599877D-01 0.90171529D-01 0.29539044D+05 0.29539044D+05 0.29539044D+05 0.11679604D+01  1  2 15  2  7  2        2 0.667174063163D-04 0.100000000000D+01
  </mgrwgt>
  </event>
  <event>
  7     66 0.53686478E-06 0.16734514E+03 0.75467711E-02 0.99270418E-01
       -2 -1    0    0    0  501 0.00000000E+00 0.00000000E+00 0.16429818E+03 0.16429849E+03 0.32000000E+00 0.0000E+00 0.9000E+01
        2 -1    0    0  501    0 0.00000000E+00 0.00000000E+00 -.23943207E+04 0.23943207E+04 0.32000000E+00 0.0000E+00 0.9000E+01
       25  2    1    2    0    0 -.24695774E+03 -.98691435E+02 -.10688637E+03 0.41464526E+03 0.29962956E+03 0.0000E+00 0.0000E+00
       23  1    3    3    0    0 -.24778621E+03 -.44874473E+02 -.14193881E+03 0.30310659E+03 0.91188000E+02 0.0000E+00 0.9000E+01
      -13  1    1    2    0    0 0.72651786E+02 -.31921544E+02 -.49181090E+03 0.49817190E+03 0.10565837E+00 0.0000E+00 0.9000E+01
       13  1    1    2    0    0 0.17430595E+03 0.13061298E+03 -.16313252E+04 0.16458020E+04 0.10565837E+00 0.0000E+00 0.9000E+01
       23  1    3    3    0    0 0.82847497E+00 -.53816962E+02 0.35052435E+02 0.11153868E+03 0.91188000E+02 0.0000E+00 0.9000E+01
#aMCatNLO 1  0  0  2  1 0.68962023D+01 0.00000000D+00  -5  7  0 0.00000000D+00 0.00000000D+00 0.00000000D+00 0.00000000D+00 0.00000000D+00
  <mgrwgt>
 0.6179644654D-03   11    2    0
 0.627202483433369D+03 0.000000000000000D+00 0.000000000000000D+00 0.627202483433369D+03
 0.627202483433369D+03 0.000000000000000D+00 0.000000000000000D+00 -.627202483433369D+03
 0.365916606822995D+03 -.247786218915138D+03 -.448744747267430D+02 0.249335081844879D+03
 0.141806313128370D+03 0.726517072584481D+02 -.319215699320809D+02 -.117523500835218D+03
 0.456861184561017D+03 0.174306040706251D+03 0.130613008282478D+03 -.401596549037972D+03
 0.289820862354355D+03 0.828470950438515D+00 -.538169636236539D+02 0.269784968028311D+03
 0.000000000000000D+00 0.000000000000000D+00 -.000000000000000D+00 -.000000000000000D+00
 0.628717681839731D+03 0.000000000000000D+00 0.000000000000000D+00 0.628717681839731D+03
 0.635108116680369D+03 0.000000000000000D+00 0.000000000000000D+00 -.635108116680369D+03
 0.367079437415638D+03 -.249640638746690D+03 -.440866246942700D+02 0.249335081844879D+03
 0.141372226182011D+03 0.719352887957637D+02 -.316171996382097D+02 -.117523500835218D+03
 0.456266898927152D+03 0.171995901599666D+03 0.131594470591699D+03 -.401596549037972D+03
 0.289705360440018D+03 -.637682828837060D+00 -.531940683747147D+02 0.269784968028311D+03
 0.940187555528127D+01 0.634713118009746D+01 -.269657788450415D+01 -.639043484063746D+01
0.192150434844D-04 0.000000000000D+00 0.000000000000D+00 0.295733960840D-08 0.000000000000D+00  7 -2 2 23 -13 13 23 21 0 0.25276668D-01 0.36835706D+00 0.11251816D+06 0.11251816D+06 0.11251816D+06 0.11175427D+01  1  2  2  2  7  2        2 0.140801568925D-03 0.100000000000D+01
-.559144818740D-06 0.000000000000D+00 -.737908264172D-07 0.295733960840D-08 0.000000000000D+00  7 -2 2 23 -13 13 23 21 2 0.25276668D-01 0.36835706D+00 0.11251816D+06 0.11251816D+06 0.11251816D+06 0.11175427D+01  1  2  3  2  7  2        2 -.511703858907D-05 0.100000000000D+01
0.114976409940D-05 0.000000000000D+00 0.000000000000D+00 0.295733960840D-08 0.000000000000D+00  7 -2 2 23 -13 13 23 21 2 0.25276668D-01 0.36835706D+00 0.11251816D+06 0.11251816D+06 0.11251816D+06 0.11175427D+01  1  2 15  2  7  2        2 0.105221171113D-04 0.100000000000D+01
0.121604295627D-04 0.000000000000D+00 0.000000000000D+00 0.295733960840D-08 0.000000000000D+00  7 -2 2 23 -13 13 23 21 2 0.25276668D-01 0.37344160D+00 0.11458670D+06 0.11458670D+06 0.11458670D+06 0.11169015D+01  1  2 12  2  7  2        2 0.106401489353D-03 0.100000000000D+01
-.355060768960D-04 0.000000000000D+00 0.000000000000D+00 0.295733960840D-08 0.000000000000D+00  7 -2 2 23 -13 13 23 21 2 0.25276668D-01 0.36835706D+00 0.11251816D+06 0.11251816D+06 0.11251816D+06 0.11175427D+01  1  2  4  2  7  2        2 -.324935436284D-03 0.100000000000D+01
-.126894443663D-02 0.000000000000D+00 -.129730783371D-03 0.295733960840D-08 0.000000000000D+00  7 -2 2 23 -13 13 23 21 2 0.25276668D-01 0.37331223D+00 0.11251816D+06 0.11251816D+06 0.11251816D+06 0.11175427D+01  1  2  5  2  7  2        2 -.111380023840D-01 0.100000000000D+01
0.127057609975D-02 0.000000000000D+00 0.129719202242D-03 0.295733960840D-08 0.000000000000D+00  7 -2 2 23 -13 13 23 21 2 0.25276668D-01 0.36835706D+00 0.11251816D+06 0.11251816D+06 0.11251816D+06 0.11175427D+01  1  2  6  2  7  2        2 0.116277334867D-01 0.100000000000D+01
0.232009097887D-04 0.000000000000D+00 0.000000000000D+00 0.295733960840D-08 0.413761056886D-09  7 -2 2 23 -13 13 23 21 2 0.25337732D-01 0.37300005D+00 0.11458670D+06 0.11458670D+06 0.11458670D+06 0.11169015D+01  1  2 11  2  7  2        2 0.202922558936D-03 0.100000000000D+01
0.104108319834D-05 0.000000000000D+00 0.000000000000D+00 0.295733960840D-08 0.000000000000D+00  7 -2 21 23 -13 13 23 -2 2 0.25276668D-01 0.37344160D+00 0.11458670D+06 0.11458670D+06 0.11458670D+06 0.11169015D+01  1  2 12  4  7  2        2 0.121448073849D-05 0.100000000000D+01
-.310795810434D-05 0.000000000000D+00 -.318616010859D-06 0.295733960840D-08 0.000000000000D+00  7 -2 21 23 -13 13 23 -2 2 0.25276668D-01 0.37331223D+00 0.11251816D+06 0.11251816D+06 0.11251816D+06 0.11175427D+01  1  2  5  4  7  2        2 -.364415466647D-05 0.100000000000D+01
0.579484905977D-07 0.000000000000D+00 0.000000000000D+00 0.295733960840D-08 0.952883249522D-12  7 -2 21 23 -13 13 23 -2 2 0.25337732D-01 0.37300005D+00 0.11458670D+06 0.11458670D+06 0.11458670D+06 0.11169015D+01  1  2 11  4  7  2        2 0.677771893682D-07 0.100000000000D+01
  </mgrwgt>
  </event>
  <event>
  8     66 0.53686478E-06 0.28171155E+03 0.75467711E-02 0.95865170E-01
       -2 -1    0    0    0  501 0.00000000E+00 0.00000000E+00 0.35408821E+03 0.35408835E+03 0.32000000E+00 0.0000E+00 0.9000E+01
        2 -1    0    0  501    0 0.00000000E+00 0.00000000E+00 -.51472630E+03 0.51472640E+03 0.32000000E+00 0.0000E+00 0.9000E+01
       25  2    1    2    0    0 -.81719081E+02 -.18533210E+03 -.40224559E+03 0.54025371E+03 0.29840670E+03 0.0000E+00 0.0000E+00
       23  2    1    2    0    0 0.81719081E+02 0.18533210E+03 0.24160750E+03 0.32856104E+03 0.92477999E+02 0.0000E+00 0.0000E+00
       23  1    3    3    0    0 -.77172663E+02 0.22650975E+02 -.21008186E+03 0.24273097E+03 0.91188000E+02 0.0000E+00 0.9000E+01
      -11  1    4    4    0    0 -.27584690E+01 0.78257863E+02 0.48372782E+02 0.92042535E+02 0.51099893E-03 0.0000E+00 0.9000E+01
       11  1    4    4    0    0 0.84477550E+02 0.10707423E+03 0.19323472E+03 0.23651851E+03 0.51099893E-03 0.0000E+00 0.9000E+01
       23  1    3    3    0    0 -.45464181E+01 -.20798307E+03 -.19216374E+03 0.29752274E+03 0.91188000E+02 0.0000E+00 0.9000E+01
#aMCatNLO 1  0  0  1  1 0.27776646D+03 0.00000000D+00  -5  7  0 0.00000000D+00 0.00000000D+00 0.00000000D+00 0.00000000D+00 0.00000000D+00
  <mgrwgt>
 0.3390576662D-03    3    2    0
 0.426917577867525D+03 0.000000000000000D+00 0.000000000000000D+00 0.426917577867525D+03
 0.426917577867525D+03 0.000000000000000D+00 0.000000000000000D+00 -.426917577867525D+03
 0.207465220198094D+03 -.771726627818928D+02 0.226509747361492D+02 -.168100802230383D+03
 0.102758036250000D+03 -.275846896665436D+01 0.782578630195522D+02 0.665380473002431D+02
 0.277022585416014D+03 0.844775498568070D+02 0.107074233197733D+03 0.241122717689315D+03
 0.266589313870940D+03 -.454641810825979D+01 -.207983070953434D+03 -.139559962759175D+03
 0.000000000000000D+00 -.000000000000000D+00 0.000000000000000D+00 -.000000000000000D+00
 0.509768645768675D+03 0.000000000000000D+00 0.000000000000000D+00 0.509768645768675D+03
 0.766036842275834D+03 0.000000000000000D+00 0.000000000000000D+00 -.766036842275834D+03
 0.192102791485344D+03 -.181703147799495D+02 -.437153017812157D+00 -.168100802230383D+03
 0.979459512467082D+02 0.268785544421175D+02 0.666606400974013D+02 0.665380473002431D+02
 0.304211814735129D+03 0.170305727652953D+03 0.734889268336226D+02 0.241122717689315D+03
 0.303619546287563D+03 0.796536695291810D+02 -.240931291593805D+03 -.139559962759175D+03
 0.377925384289765D+03 -.258667636844302D+03 0.101218877680593D+03 -.256268196507160D+03
0.139382981587D-04 0.000000000000D+00 0.000000000000D+00 0.554828607541D-07 0.000000000000D+00  7 -2 2 23 -11 11 23 21 0 0.54475127D-01 0.79188680D-01 0.79361397D+05 0.79361397D+05 0.79361397D+05 0.11300546D+01  1  2  2  1  7  1       -2 0.331705283006D-03 0.100000000000D+01
-.611647468406D-06 0.000000000000D+00 -.535267349676D-07 0.554828607541D-07 0.000000000000D+00  7 -2 2 23 -11 11 23 21 2 0.54475127D-01 0.79188680D-01 0.79361397D+05 0.79361397D+05 0.79361397D+05 0.11300546D+01  1  2  3  1  7  1       -2 -.185884269316D-04 0.100000000000D+01
0.853575770060D-06 0.000000000000D+00 0.000000000000D+00 0.554828607541D-07 0.000000000000D+00  7 -2 2 23 -11 11 23 21 2 0.54475127D-01 0.79188680D-01 0.79361397D+05 0.79361397D+05 0.79361397D+05 0.11300546D+01  1  2 15  1  7  1       -2 0.259408101103D-04 0.100000000000D+01
  </mgrwgt>
  </event>
  <event>
  8     66 0.53686478E-06 0.49738112E+03 0.75467711E-02 0.85892203E-01
       -2 -1    0    0    0  501 0.00000000E+00 0.00000000E+00 0.12208010E+04 0.12208011E+04 0.32000000E+00 0.0000E+00 0.9000E+01
        2 -1    0    0  501    0 0.00000000E+00 0.00000000E+00 -.84397560E+03 0.84397566E+03 0.32000000E+00 0.0000E+00 0.9000E+01
       25  2    1    2    0    0 -.86017946E+03 -.25908928E+03 0.61717432E+03 0.11304173E+04 0.29983866E+03 0.0000E+00 0.0000E+00
       23  2    1    2    0    0 0.86017946E+03 0.25908928E+03 -.24034890E+03 0.93435940E+03 0.90685940E+02 0.0000E+00 0.0000E+00
       23  1    3    3    0    0 -.71460522E+03 -.20839564E+03 0.57863184E+03 0.94721667E+03 0.91188000E+02 0.0000E+00 0.9000E+01
      -13  1    4    4    0    0 0.30906144E+03 0.13889670E+03 -.92004056E+02 0.35110685E+03 0.10565837E+00 0.0000E+00 0.9000E+01
       13  1    4    4    0    0 0.55111802E+03 0.12019258E+03 -.14834484E+03 0.58325255E+03 0.10565837E+00 0.0000E+00 0.9000E+01
       23  1    3    3    0    0 -.14557424E+03 -.50693637E+02 0.38542481E+02 0.18320065E+03 0.91188000E+02 0.0000E+00 0.9000E+01
#aMCatNLO 1  0  0  2  1 0.45298885D+03 0.00000000D+00  -5  7  0 0.00000000D+00 0.00000000D+00 0.00000000D+00 0.00000000D+00 0.00000000D+00
  <mgrwgt>
 0.6302890307D-04    9    2    0
 0.101504993910550D+04 0.000000000000000D+00 0.000000000000000D+00 0.101504993910550D+04
 0.101504993910550D+04 0.000000000000000D+00 0.000000000000000D+00 -.101504993910550D+04
 0.855991255673066D+03 -.714605219015366D+03 -.208395644264639D+03 0.412694093551481D+03
 0.374181612403552D+03 0.309061108812239D+03 0.138896724445762D+03 -.158747629963126D+03
 0.620751267233167D+03 0.551118351248471D+03 0.120192556646970D+03 -.259141752744353D+03
 0.179175742901211D+03 -.145574241045343D+03 -.506936368280939D+02 0.519528915599697D+01
 0.000000000000000D+00 0.000000000000000D+00 -.000000000000000D+00 -.000000000000000D+00
 0.118328757015787D+04 0.000000000000000D+00 0.000000000000000D+00 0.118328757015787D+04
 0.139806327385928D+04 0.000000000000000D+00 0.000000000000000D+00 -.139806327385928D+04
 0.844588888647655D+03 -.730909495841808D+03 -.216802564347501D+02 0.412694093551481D+03
 0.408259970423626D+03 0.301559466381838D+03 0.224804985858613D+03 -.158747629963126D+03
 0.652037122247158D+03 0.538915518989803D+03 0.259938500736024D+03 -.259141752744353D+03
 0.175139118215953D+03 -.148971227420063D+03 -.117915968811265D+02 0.519528915599697D+01
 0.501325744482755D+03 0.394057378902300D+02 -.451271633278760D+03 -.214775703701408D+03
0.946073020840D-04 0.000000000000D+00 0.000000000000D+00 0.190748233225D-05 0.000000000000D+00  7 -2 2 23 -13 13 23 21 0 0.18781555D+00 0.12984241D+00 0.83900750D+06 0.83900750D+06 0.83900750D+06 0.10529766D+01  1  2  2  2  7  2        2 0.548019976080D-04 0.100000000000D+01
-.518855156341D-05 0.000000000000D+00 -.363316950677D-06 0.190748233225D-05 0.000000000000D+00  7 -2 2 23 -13 13 23 21 2 0.18781555D+00 0.12984241D+00 0.83900750D+06 0.83900750D+06 0.83900750D+06 0.10529766D+01  1  2  3  2  7  2        2 -.333238619333D-05 0.100000000000D+01
0.593673088391D-05 0.000000000000D+00 0.000000000000D+00 0.190748233225D-05 0.000000000000D+00  7 -2 2 23 -13 13 23 21 2 0.18781555D+00 0.12984241D+00 0.83900750D+06 0.83900750D+06 0.83900750D+06 0.10529766D+01  1  2 15  2  7  2        2 0.381290997869D-05 0.100000000000D+01
0.388521969795D-04 0.000000000000D+00 0.000000000000D+00 0.190748233225D-05 0.000000000000D+00  7 -2 2 23 -13 13 23 21 2 0.18781555D+00 0.18636484D+00 0.13682065D+07 0.13682065D+07 0.13682065D+07 0.10389193D+01  1  2 12  2  7  2        2 0.138227091172D-04 0.100000000000D+01
-.595182936842D-04 0.000000000000D+00 0.000000000000D+00 0.190748233225D-05 0.000000000000D+00  7 -2 2 23 -13 13 23 21 2 0.18781555D+00 0.12984241D+00 0.83900750D+06 0.83900750D+06 0.83900750D+06 0.10529766D+01  1  2  4  2  7  2        2 -.382260709371D-04 0.100000000000D+01
-.868433825504D-04 0.000000000000D+00 -.373843048198D-04 0.190748233225D-05 0.000000000000D+00  7 -2 2 23 -13 13 23 21 2 0.18781555D+00 0.19664085D+00 0.83900750D+06 0.83900750D+06 0.83900750D+06 0.10529766D+01  1  2  5  2  7  2        2 -.299298791876D-04 0.100000000000D+01
0.968972696151D-04 0.000000000000D+00 0.343801641405D-04 0.190748233225D-05 0.000000000000D+00  7 -2 2 23 -13 13 23 21 2 0.18781555D+00 0.12984241D+00 0.83900750D+06 0.83900750D+06 0.83900750D+06 0.10529766D+01  1  2  6  2  7  2        2 0.622329988419D-04 0.100000000000D+01
0.171762364667D-05 0.000000000000D+00 0.000000000000D+00 0.190748233225D-05 0.000000000000D+00  7 -2 21 23 -13 13 23 -2 2 0.18781555D+00 0.18636484D+00 0.13682065D+07 0.13682065D+07 0.13682065D+07 0.10389193D+01  1  2 12  4  7  2        2 0.291262388050D-06 0.100000000000D+01
-.290705324529D-05 0.000000000000D+00 -.182860852326D-05 0.190748233225D-05 0.000000000000D+00  7 -2 21 23 -13 13 23 -2 2 0.18781555D+00 0.19664085D+00 0.83900750D+06 0.83900750D+06 0.83900750D+06 0.10529766D+01  1  2  5  4  7  2        2 -.444638548456D-06 0.100000000000D+01
  </mgrwgt>
  </event>
  <event>
  9     66 -.53686478E-06 0.26807040E+03 0.75467711E-02 0.10186869E+00
       -2 -1    0    0    0  501 0.00000000E+00 0.00000000E+00 0.12297513E+03 0.12297554E+03 0.32000000E+00 0.0000E+00 0.9000E+01
        2 -1    0    0  502    0 0.00000000E+00 0.00000000E+00 -.24661458E+04 0.24661459E+04 0.32000000E+00 0.0000E+00 0.9000E+01
       25  2    1    2    0    0 -.74205359E+01 0.23063376E+03 -.22854733E+04 0.23165985E+04 0.29998899E+03 0.0000E+00 0.0000E+00
       23  2    1    2    0    0 -.27403187E+01 -.21433647E+03 -.25313553E+02 0.23486495E+03 0.92591234E+02 0.0000E+00 0.0000E+00
       23  1    3    3    0    0 -.65216727E+02 0.12798623E+03 -.57485382E+03 0.59950468E+03 0.91188000E+02 0.0000E+00 0.9000E+01
      -13  1    4    4    0    0 0.37224415E+01 -.36730434E+02 0.31237689E+02 0.48360993E+02 0.10565837E+00 0.0000E+00 0.9000E+01
       13  1    4    4    0    0 -.64627602E+01 -.17760604E+03 -.56551242E+02 0.18650396E+03 0.10565837E+00 0.0000E+00 0.9000E+01
       23  1    3    3    0    0 0.57796191E+02 0.10264753E+03 -.17106195E+04 0.17170938E+04 0.91188000E+02 0.0000E+00 0.9000E+01
       21  1    1    2  502  501 0.10160855E+02 -.16297293E+02 -.32383870E+02 0.37657964E+02 0.75000000E+00 0.0000E+00 0.9000E+01
#aMCatNLO 2  0  0  2  1 0.19205330D+02 0.00000000D+00  -5  7  0 0.00000000D+00 0.00000000D+00 0.00000000D+00 0.00000000D+00 0.00000000D+00
  <mgrwgt>
 -.8075915802D-04    3    2    0
 0.540800563767424D+03 0.000000000000000D+00 0.000000000000000D+00 0.540800563767424D+03
 0.540800563767424D+03 0.000000000000000D+00 0.000000000000000D+00 -.540800563767424D+03
 0.183525276493300D+03 -.634809793532586D+02 0.125202217944023D+03 -.752385914952618D+02
 0.181408074749725D+03 0.542361963835198D+01 -.394587986206524D+02 0.176981572899088D+03
 0.321753725322447D+03 -.345289004186597D+01 -.182433862049045D+03 0.265012119132506D+03
 0.394914050969376D+03 0.615102497567726D+02 0.966904427256743D+02 -.366755100536332D+03
 0.000000000000000D+00 0.000000000000000D+00 -.000000000000000D+00 0.000000000000000D+00
 0.552731381212124D+03 0.000000000000000D+00 0.000000000000000D+00 0.552731381212124D+03
 0.548670255715000D+03 0.000000000000000D+00 0.000000000000000D+00 -.548670255715000D+03
 0.186037078958638D+03 -.652167270859991D+02 0.127986234656161D+03 -.752385914952618D+02
 0.180791164341926D+03 0.372245473673518D+01 -.367302503259495D+02 0.176981572899088D+03
 0.319088014095468D+03 -.646277343456121D+01 -.177606221771146D+03 0.265012119132506D+03
 0.395855365360223D+03 0.577961912189756D+02 0.102647530177985D+03 -.366755100536332D+03
 0.196300141708695D+02 0.101608545648495D+02 -.162972927370505D+02 0.406112549712475D+01
-.101230989919D-04 0.000000000000D+00 0.000000000000D+00 0.980029807401D-06 0.000000000000D+00  7 -2 2 23 -13 13 23 21 2 0.18510666D-01 0.38345298D+00 0.76441676D+05 0.76441676D+05 0.76441676D+05 0.11314238D+01  1  2 13  2  7  2        2 -.143238232616D-03 0.100000000000D+01
-.206337492247D-04 0.000000000000D+00 0.000000000000D+00 0.980029807401D-06 0.000000000000D+00  7 -2 2 23 -13 13 23 21 2 0.18510666D-01 0.37396030D+00 0.71861741D+05 0.71861741D+05 0.71861741D+05 0.11336918D+01  1  2  8  2  7  2        2 -.318403345803D-03 0.100000000000D+01
0.269564239575D-04 0.000000000000D+00 0.000000000000D+00 0.980029807401D-06 0.181450446353D-07  7 -2 2 23 -13 13 23 21 2 0.18919038D-01 0.37940215D+00 0.76441676D+05 0.76441676D+05 0.76441676D+05 0.11314238D+01  1  2  1  2  7  2        2 0.380882420398D-03 0.100000000000D+01
  </mgrwgt>
  </event>
  <event>
  9     66 0.53686478E-06 0.14905937E+03 0.75467711E-02 0.10435091E+00
       21 -1    0    0  502  501 0.00000000E+00 0.00000000E+00 0.15647734E+03 0.15647914E+03 0.75000000E+00 0.0000E+00 0.9000E+01
        2 -1    0    0  501    0 0.00000000E+00 0.00000000E+00 -.14403647E+04 0.14403647E+04 0.32000000E+00 0.0000E+00 0.9000E+01
       25  2    1    2    0    0 -.14115180E+02 0.73780860E+02 -.32179361E+02 0.31192317E+03 0.30102774E+03 0.0000E+00 0.0000E+00
       23  2    1    2    0    0 -.90302824E+02 0.41204703E+02 -.54719224E+03 0.56348647E+03 0.90803250E+02 0.0000E+00 0.0000E+00
       23  1    3    3    0    0 -.10112057E+02 0.64832529E+02 -.13401678E+03 0.17487498E+03 0.91188000E+02 0.0000E+00 0.9000E+01
      -11  1    4    4    0    0 -.84914225E+02 0.33339502E+02 -.24971050E+03 0.26585199E+03 0.51099893E-03 0.0000E+00 0.9000E+01
       11  1    4    4    0    0 -.53885988E+01 0.78652011E+01 -.29748174E+03 0.29763448E+03 0.51099893E-03 0.0000E+00 0.9000E+01
       23  1    3    3    0    0 -.40031229E+01 0.89483312E+01 0.10183741E+03 0.13704820E+03 0.91188000E+02 0.0000E+00 0.9000E+01
        2  1    1    2  502    0 0.10441800E+03 -.11498556E+03 -.70451575E+03 0.72143423E+03 0.32000000E+00 0.0000E+00 0.9000E+01
#aMCatNLO 2  0  0  1  1 0.15532160D+03 0.00000000D+00  -5  7  0 0.00000000D+00 0.00000000D+00 0.00000000D+00 0.00000000D+00 0.00000000D+00
  <mgrwgt>
 0.4218456110D-04    1    2    0
 0.318804719234656D+03 0.000000000000000D+00 0.000000000000000D+00 0.318804719234656D+03
 0.318804719234656D+03 0.000000000000000D+00 0.000000000000000D+00 -.318804719234656D+03
 0.104971851181311D+03 0.763681280830439D+01 0.452873953834244D+02 -.243837877686722D+02
 0.118182206902168D+03 -.645482358543281D+02 0.109123855216329D+02 -.983945075631159D+02
 0.136027741582069D+03 0.164354488448972D+02 -.161675357116191D+02 -.134059812360746D+03
 0.278427638803764D+03 0.404759742011265D+02 -.400322451934382D+02 0.256838107692534D+03
 0.000000000000000D+00 0.000000000000000D+00 -.000000000000000D+00 -.000000000000000D+00
 0.346879794950737D+03 0.000000000000000D+00 0.000000000000000D+00 0.346879794950737D+03
 0.649751919840406D+03 0.000000000000000D+00 0.000000000000000D+00 -.649751919840406D+03
 0.114957952805695D+03 -.101120570873365D+02 0.648325286009358D+02 -.243837877686722D+02
 0.134176850450519D+03 -.849142253416103D+02 0.333395022888323D+02 -.983945075631159D+02
 0.134398406519754D+03 -.538859879223959D+01 0.786520107225430D+01 -.134059812360746D+03
 0.272721767616373D+03 -.400312290291439D+01 0.894833122661970D+01 0.256838107692534D+03
 0.340376737398803D+03 0.104418004124101D+03 -.114985563188642D+03 -.302872124889669D+03
0.956682924786D-07 0.000000000000D+00 0.000000000000D+00 0.118977497439D-06 0.927273030775D-12  7 21 2 23 -11 11 23 2 2 0.24073574D-01 0.22159466D+00 0.52931272D+05 0.52931272D+05 0.52931272D+05 0.11451254D+01  1  2  1  3  7  1       -2 0.421845610992D-04 0.100000000000D+01
  </mgrwgt>
  </event>
  <event>
  8     66 0.53686478E-06 0.29818119E+03 0.75467711E-02 0.94496877E-01
       -2 -1    0    0    0  501 0.00000000E+00 0.00000000E+00 0.26791107E+03 0.26791126E+03 0.32000000E+00 0.0000E+00 0.9000E+01
        2 -1    0    0  501    0 0.00000000E+00 0.00000000E+00 -.77036375E+03 0.77036382E+03 0.32000000E+00 0.0000E+00 0.9000E+01
       25  2    1    2    0    0 -.92569419E+02 -.20889517E+03 0.98196555E+02 0.38942030E+03 0.29966533E+03 0.0000E+00 0.0000E+00
       23  2    1    2    0    0 0.92569419E+02 0.20889517E+03 -.60064923E+03 0.64885478E+03 0.89592039E+02 0.0000E+00 0.0000E+00
       23  1    3    3    0    0 -.12453614E+03 -.20425786E+03 0.13058941E+03 0.28740106E+03 0.91188000E+02 0.0000E+00 0.9000E+01
      -11  1    4    4    0    0 0.13210967E+02 -.60100195E+01 -.58843532E+02 0.60607023E+02 0.51099893E-03 0.0000E+00 0.9000E+01
       11  1    4    4    0    0 0.79358452E+02 0.21490519E+03 -.54180570E+03 0.58824776E+03 0.51099893E-03 0.0000E+00 0.9000E+01
       23  1    3    3    0    0 0.31966716E+02 -.46373075E+01 -.32392858E+02 0.10201923E+03 0.91188000E+02 0.0000E+00 0.9000E+01
#aMCatNLO 1  0  0  2  2 0.35473646D+03 0.00000000D+00  -5  7  0 0.00000000D+00 0.00000000D+00 0.00000000D+00 0.00000000D+00 0.00000000D+00
  <mgrwgt>
 0.5343971506D-03    3    2    0
 0.454300681863915D+03 0.000000000000000D+00 0.000000000000000D+00 0.454300681863915D+03
 0.454300681863915D+03 0.000000000000000D+00 0.000000000000000D+00 -.454300681863915D+03
 0.400633736041069D+03 -.124536135120495D+03 -.204257864255062D+03 0.308158425244930D+03
 0.367165103302219D+02 0.132109672387811D+02 -.601001949261384D+01 -.337261343937242D+02
 0.372585020865464D+03 0.793584521611059D+02 0.214905191222652D+03 -.293832592864487D+03
 0.986660964910754D+02 0.319667157206084D+02 -.463730747497644D+01 0.194003020132814D+02
 0.000000000000000D+00 -.000000000000000D+00 -.000000000000000D+00 0.000000000000000D+00
 0.157103126007998D+04 0.000000000000000D+00 0.000000000000000D+00 0.157103126007998D+04
 0.516736750524239D+03 0.000000000000000D+00 0.000000000000000D+00 -.516736750524239D+03
 0.337537896696578D+03 -.688408329729934D+02 -.769149207143800D+02 0.308158425244930D+03
 0.393326242576358D+02 0.189489004525221D+02 0.710931512096804D+01 -.337261343937242D+02
 0.489262401879755D+03 0.144385134962260D+03 0.363583605331167D+03 -.293832592864487D+03
 0.109261558426495D+03 0.476549283961712D+02 0.312325613284555D+02 0.194003020132814D+02
 0.111237352934375D+04 -.142148130837960D+03 -.325010561066210D+03 0.105429450955574D+04
0.205876085408D-04 0.000000000000D+00 0.000000000000D+00 0.607734322857D-06 0.000000000000D+00  7 -2 2 23 -11 11 23 21 0 0.41217107D-01 0.11851752D+00 0.88912024D+05 0.88912024D+05 0.88912024D+05 0.11259346D+01  1  2  2  2  7  2        2 0.523343058349D-03 0.100000000000D+01
-.897209657125D-06 0.000000000000D+00 -.790618376385D-07 0.607734322857D-06 0.000000000000D+00  7 -2 2 23 -11 11 23 21 2 0.41217107D-01 0.11851752D+00 0.88912024D+05 0.88912024D+05 0.88912024D+05 0.11259346D+01  1  2  3  2  7  2        2 -.289135134833D-04 0.100000000000D+01
0.124022706060D-05 0.000000000000D+00 0.000000000000D+00 0.607734322857D-06 0.000000000000D+00  7 -2 2 23 -11 11 23 21 2 0.41217107D-01 0.11851752D+00 0.88912024D+05 0.88912024D+05 0.88912024D+05 0.11259346D+01  1  2 15  2  7  2        2 0.399676057365D-04 0.100000000000D+01
  </mgrwgt>
  </event>
  <event>
  8     66 0.53686478E-06 0.33367762E+03 0.75467711E-02 0.92129471E-01
       -2 -1    0    0    0  501 0.00000000E+00 0.00000000E+00 0.15881806E+03 0.15881839E+03 0.32000000E+00 0.0000E+00 0.9000E+01
        2 -1    0    0  501    0 0.00000000E+00 0.00000000E+00 -.21433392E+04 0.21433392E+04 0.32000000E+00 0.0000E+00 0.9000E+01
       25  2    1    2    0    0 0.19132107E+03 0.49506055E+03 -.84268440E+03 0.10396274E+04 0.29836117E+03 0.0000E+00 0.0000E+00
       23  2    1    2    0    0 -.19132107E+03 -.49506055E+03 -.11418367E+04 0.12625302E+04 0.92210325E+02 0.0000E+00 0.0000E+00
       23  1    3    3    0    0 0.95201723E+02 0.63849382E+02 -.12822227E+03 0.19466975E+03 0.91188000E+02 0.0000E+00 0.9000E+01
      -13  1    4    4    0    0 -.99078140E+01 -.68629583E+02 -.22159862E+03 0.23219419E+03 0.10565837E+00 0.0000E+00 0.9000E+01
       13  1    4    4    0    0 -.18141326E+03 -.42643096E+03 -.92023807E+03 0.10303360E+04 0.10565837E+00 0.0000E+00 0.9000E+01
       23  1    3    3    0    0 0.96119349E+02 0.43121116E+03 -.71446213E+03 0.84495762E+03 0.91188000E+02 0.0000E+00 0.9000E+01
#aMCatNLO 1  0  0  2  1 0.11653057D+03 0.00000000D+00  -5  7  0 0.00000000D+00 0.00000000D+00 0.00000000D+00 0.00000000D+00 0.00000000D+00
  <mgrwgt>
 0.5129207664D-03    9    2    0
 0.583439260824753D+03 0.000000000000000D+00 0.000000000000000D+00 0.583439260824753D+03
 0.583439260824753D+03 0.000000000000000D+00 0.000000000000000D+00 -.583439260824753D+03
 0.165998985551937D+03 0.952017228204222D+02 0.638493821876909D+02 0.781044187389291D+02
 0.812251594226287D+02 -.990758880854825D+01 -.686291136684080D+02 -.423014298141435D+02
 0.467713232401076D+03 -.181413482777739D+03 -.426431431848581D+03 -.632538533299195D+02
 0.451941144273864D+03 0.961193487658654D+02 0.431211163329298D+03 0.274508644051339D+02
 0.000000000000000D+00 -.000000000000000D+00 0.000000000000000D+00 -.000000000000000D+00
 0.606837411527849D+03 0.000000000000000D+00 0.000000000000000D+00 0.606837411527849D+03
 0.751975564852375D+03 0.000000000000000D+00 0.000000000000000D+00 -.751975564852375D+03
 0.175541564838150D+03 0.112102105009549D+03 0.619064412457090D+02 0.781044187389291D+02
 0.814290078164033D+02 -.185900544749729D+01 -.695544135795071D+02 -.423014298141435D+02
 0.456905162129166D+03 -.135660777194725D+03 -.431691360522908D+03 -.632538533299195D+02
 0.458807026167484D+03 0.141185716846983D+03 0.426030138978999D+03 0.274508644051339D+02
 0.186130215429022D+03 -.115768039214310D+03 0.133091938777075D+02 -.145138153324526D+03
0.334950291616D-04 0.000000000000D+00 0.000000000000D+00 0.137400283029D-06 0.000000000000D+00  7 -2 2 23 -13 13 23 21 0 0.24433575D-01 0.32974451D+00 0.31941713D+06 0.31941713D+06 0.31941713D+06 0.10825425D+01  1  2  2  2  7  2        2 0.342311501210D-03 0.100000000000D+01
-.185854503655D-05 0.000000000000D+00 -.128629731424D-06 0.137400283029D-06 0.000000000000D+00  7 -2 2 23 -13 13 23 21 2 0.24433575D-01 0.32974451D+00 0.31941713D+06 0.31941713D+06 0.31941713D+06 0.10825425D+01  1  2  3  2  7  2        2 -.222589218228D-04 0.100000000000D+01
0.209306633124D-05 0.000000000000D+00 0.000000000000D+00 0.137400283029D-06 0.000000000000D+00  7 -2 2 23 -13 13 23 21 2 0.24433575D-01 0.32974451D+00 0.31941713D+06 0.31941713D+06 0.31941713D+06 0.10825425D+01  1  2 15  2  7  2        2 0.250676733255D-04 0.100000000000D+01
0.550377451106D-04 0.000000000000D+00 0.000000000000D+00 0.137400283029D-06 0.000000000000D+00  7 -2 2 23 -13 13 23 21 2 0.24433575D-01 0.43023094D+00 0.39300928D+06 0.39300928D+06 0.39300928D+06 0.10759801D+01  1  2 12  2  7  2        2 0.269525506552D-03 0.100000000000D+01
-.559920902881D-04 0.000000000000D+00 0.000000000000D+00 0.137400283029D-06 0.000000000000D+00  7 -2 2 23 -13 13 23 21 2 0.24433575D-01 0.32974451D+00 0.31941713D+06 0.31941713D+06 0.31941713D+06 0.10825425D+01  1  2  4  2  7  2        2 -.670590992366D-03 0.100000000000D+01
-.796280722299D-04 0.000000000000D+00 -.141672425988D-04 0.137400283029D-06 0.000000000000D+00  7 -2 2 23 -13 13 23 21 2 0.24433575D-01 0.42977166D+00 0.31941713D+06 0.31941713D+06 0.31941713D+06 0.10825425D+01  1  2  5  2  7  2        2 -.401001589624D-03 0.100000000000D+01
0.810049731191D-04 0.000000000000D+00 0.136841737991D-04 0.137400283029D-06 0.000000000000D+00  7 -2 2 23 -13 13 23 21 2 0.24433575D-01 0.32974451D+00 0.31941713D+06 0.31941713D+06 0.31941713D+06 0.10825425D+01  1  2  6  2  7  2        2 0.970158553307D-03 0.100000000000D+01
0.194950202693D-05 0.000000000000D+00 0.000000000000D+00 0.137400283029D-06 0.000000000000D+00  7 -2 21 23 -13 13 23 -2 2 0.24433575D-01 0.43023094D+00 0.39300928D+06 0.39300928D+06 0.39300928D+06 0.10759801D+01  1  2 12  4  7  2        2 0.795651222413D-06 0.100000000000D+01
-.255131444670D-05 0.000000000000D+00 -.500345752315D-06 0.137400283029D-06 0.000000000000D+00  7 -2 21 23 -13 13 23 -2 2 0.24433575D-01 0.42977166D+00 0.31941713D+06 0.31941713D+06 0.31941713D+06 0.10825425D+01  1  2  5  4  7  2        2 -.108661536503D-05 0.100000000000D+01
  </mgrwgt>
  </event>
  <event>
  9     66 0.53686478E-06 0.28730144E+03 0.75467711E-02 0.10054116E+00
       21 -1    0    0  502  501 0.00000000E+00 0.00000000E+00 0.14206139E+03 0.14206337E+03 0.75000000E+00 0.0000E+00 0.9000E+01
        2 -1    0    0  501    0 0.00000000E+00 0.00000000E+00 -.11942973E+04 0.11942973E+04 0.32000000E+00 0.0000E+00 0.9000E+01
       25  2    1    2    0    0 -.12624825E+03 0.18961162E+03 -.16525258E+03 0.41151558E+03 0.30024235E+03 0.0000E+00 0.0000E+00
       23  2    1    2    0    0 0.97898600E+02 -.16006194E+03 -.61107077E+03 0.64591013E+03 0.92673896E+02 0.0000E+00 0.0000E+00
       23  1    3    3    0    0 -.17211203E+03 0.18614707E+03 -.14966633E+03 0.30820212E+03 0.91188000E+02 0.0000E+00 0.9000E+01
      -11  1    4    4    0    0 0.10857945E+03 -.15029752E+03 -.59907833E+03 0.62711537E+03 0.51099893E-03 0.0000E+00 0.9000E+01
       11  1    4    4    0    0 -.10680846E+02 -.97644215E+01 -.11992433E+02 0.18794755E+02 0.51099893E-03 0.0000E+00 0.9000E+01
       23  1    3    3    0    0 0.45863775E+02 0.34645511E+01 -.15586250E+02 0.10331346E+03 0.91188000E+02 0.0000E+00 0.9000E+01
        2  1    1    2  502    0 0.28349654E+02 -.29549684E+02 -.27591256E+03 0.27893499E+03 0.32000000E+00 0.0000E+00 0.9000E+01
#aMCatNLO 2  0  0  1  1 0.40949807D+02 0.00000000D+00  -5  7  0 0.00000000D+00 0.00000000D+00 0.00000000D+00 0.00000000D+00 0.00000000D+00
  <mgrwgt>
 0.6460096553D-04    1    2    0
 0.358397231561017D+03 0.000000000000000D+00 0.000000000000000D+00 0.358397231561017D+03
 0.358397231561017D+03 0.000000000000000D+00 0.000000000000000D+00 -.358397231561017D+03
 0.278087349184332D+03 -.160845743054454D+03 0.174403890628350D+03 0.112823988173277D+03
 0.286789120302303D+03 0.119696720033529D+03 -.161885383930614D+03 -.204239607340549D+03
 0.147180119637601D+02 -.100992945864418D+02 -.103705895212857D+02 0.265988684019674D+01
 0.137199981671638D+03 0.512483176073672D+02 -.214791717645052D+01 0.887557323270751D+02
 0.000000000000000D+00 0.000000000000000D+00 -.000000000000000D+00 -.000000000000000D+00
 0.362841181370673D+03 0.000000000000000D+00 0.000000000000000D+00 0.362841181370673D+03
 0.467600363283135D+03 0.000000000000000D+00 0.000000000000000D+00 -.467600363283135D+03
 0.292092086705946D+03 -.172112028581587D+03 0.186147073795000D+03 0.112823988173277D+03
 0.275848975714335D+03 0.108579445296553D+03 -.150297519124964D+03 -.204239607340549D+03
 0.147139182915692D+02 -.106808457771708D+02 -.976442148683752D+01 0.265988684019674D+01
 0.135308241944324D+03 0.458637750186724D+02 0.346455107986934D+01 0.887557323270751D+02
 0.112478321997634D+03 0.283496540435318D+02 -.295496842630677D+02 -.104759181912462D+03
0.954980117229D-07 0.000000000000D+00 0.000000000000D+00 0.345557919215D-06 0.408036792460D-11  7 21 2 23 -11 11 23 2 2 0.21855740D-01 0.18373809D+00 0.93755445D+05 0.93755445D+05 0.93755445D+05 0.11240273D+01  1  2  1  3  7  1       -2 0.646009655346D-04 0.100000000000D+01
  </mgrwgt>
  </event>
  <event>
  8     66 0.53686478E-06 0.49898297E+03 0.75467711E-02 0.87429092E-01
       -2 -1    0    0    0  501 0.00000000E+00 0.00000000E+00 0.57650449E+03 0.57650458E+03 0.32000000E+00 0.0000E+00 0.9000E+01
        2 -1    0    0  501    0 0.00000000E+00 0.00000000E+00 -.13659330E+04 0.13659331E+04 0.32000000E+00 0.0000E+00 0.9000E+01
       25  2    1    2    0    0 -.81307473E+03 0.16130070E+03 -.65450709E+03 0.10976811E+04 0.29902473E+03 0.0000E+00 0.0000E+00
       23  2    1    2    0    0 0.81307473E+03 -.16130070E+03 -.13492147E+03 0.84475659E+03 0.91112387E+02 0.0000E+00 0.0000E+00
       23  1    3    3    0    0 -.54800033E+03 0.43131700E+02 -.52988983E+03 0.76893641E+03 0.91188000E+02 0.0000E+00 0.9000E+01
      -13  1    4    4    0    0 0.14815520E+03 -.65954446E+02 -.28493237E+02 0.16465670E+03 0.10565837E+00 0.0000E+00 0.9000E+01
       13  1    4    4    0    0 0.66491952E+03 -.95346252E+02 -.10642824E+03 0.68009989E+03 0.10565837E+00 0.0000E+00 0.9000E+01
       23  1    3    3    0    0 -.26507439E+03 0.11816900E+03 -.12461725E+03 0.32874467E+03 0.91188000E+02 0.0000E+00 0.9000E+01
#aMCatNLO 1  0  0  1  2 0.27198612D+03 0.00000000D+00  -5  7  0 0.00000000D+00 0.00000000D+00 0.00000000D+00 0.00000000D+00 0.00000000D+00
  <mgrwgt>
 0.1846026556D-03    9    2    0
 0.887393180288520D+03 0.000000000000000D+00 0.000000000000000D+00 0.887393180288520D+03
 0.887393180288520D+03 0.000000000000000D+00 0.000000000000000D+00 -.887393180288520D+03
 0.605876229613716D+03 -.548000333785568D+03 0.431317001784172D+02 -.237920248985994D+03
 0.167536074742870D+03 0.148154510017276D+03 -.659544064708940D+02 0.420546521666908D+02
 0.697005250313383D+03 0.664920215896345D+03 -.953462910549882D+02 0.186028251184696D+03
 0.304368805907072D+03 -.265074392128054D+03 0.118168997347465D+03 0.983734563460743D+01
 0.000000000000000D+00 0.000000000000000D+00 -.000000000000000D+00 0.000000000000000D+00
 0.133158364024788D+04 0.000000000000000D+00 0.000000000000000D+00 0.133158364024788D+04
 0.940382992315001D+03 0.000000000000000D+00 0.000000000000000D+00 -.940382992315001D+03
 0.654623181431893D+03 -.588809096651950D+03 0.130054070087676D+03 -.237920248985994D+03
 0.150693619326161D+03 0.137851799830738D+03 -.440097082492321D+02 0.420546521666908D+02
 0.648610867140182D+03 0.621355793283253D+03 -.255438580519929D+01 0.186028251184696D+03
 0.341578687981422D+03 -.285986990635627D+03 0.162712680996757D+03 0.983734563460743D+01
 0.476460276683223D+03 0.115588494173587D+03 -.246202657030001D+03 0.391200647932879D+03
0.745032310482D-04 0.000000000000D+00 0.000000000000D+00 0.609157553988D-06 0.000000000000D+00  7 -2 2 23 -13 13 23 21 0 0.88693008D-01 0.21014356D+00 0.71851947D+06 0.71851947D+06 0.71851947D+06 0.10575562D+01  1  2  2  1  7  1       -2 0.153309102384D-03 0.100000000000D+01
-.412850550434D-05 0.000000000000D+00 -.286112024376D-06 0.609157553988D-06 0.000000000000D+00  7 -2 2 23 -13 13 23 21 2 0.88693008D-01 0.21014356D+00 0.71851947D+06 0.71851947D+06 0.71851947D+06 0.10575562D+01  1  2  3  1  7  1       -2 -.950150927123D-05 0.100000000000D+01
0.467351939150D-05 0.000000000000D+00 0.000000000000D+00 0.609157553988D-06 0.000000000000D+00  7 -2 2 23 -13 13 23 21 2 0.88693008D-01 0.21014356D+00 0.71851947D+06 0.71851947D+06 0.71851947D+06 0.10575562D+01  1  2 15  1  7  1       -2 0.107558262381D-04 0.100000000000D+01
0.103543351827D-03 0.000000000000D+00 0.000000000000D+00 0.609157553988D-06 0.000000000000D+00  7 -2 2 23 -13 13 23 21 2 0.13467567D+00 0.21014356D+00 0.98937596D+06 0.98937596D+06 0.98937596D+06 0.10481729D+01  1  2 12  1  7  1       -2 0.806686680944D-04 0.100000000000D+01
-.109768193587D-03 0.000000000000D+00 0.000000000000D+00 0.609157553988D-06 0.000000000000D+00  7 -2 2 23 -13 13 23 21 2 0.88693008D-01 0.21014356D+00 0.71851947D+06 0.71851947D+06 0.71851947D+06 0.10575562D+01  1  2  4  1  7  1       -2 -.252624953015D-03 0.100000000000D+01
-.132079149936D-03 0.000000000000D+00 -.271557952302D-04 0.609157553988D-06 0.000000000000D+00  7 -2 2 23 -13 13 23 21 2 0.13719940D+00 0.21014356D+00 0.71851947D+06 0.71851947D+06 0.71851947D+06 0.10575562D+01  1  2  5  1  7  1       -2 -.101554368026D-03 0.100000000000D+01
0.133421060323D-03 0.000000000000D+00 0.247618738151D-04 0.609157553988D-06 0.000000000000D+00  7 -2 2 23 -13 13 23 21 2 0.88693008D-01 0.21014356D+00 0.71851947D+06 0.71851947D+06 0.71851947D+06 0.10575562D+01  1  2  6  1  7  1       -2 0.307060615592D-03 0.100000000000D+01
0.508845898346D-05 0.000000000000D+00 0.000000000000D+00 0.609157553988D-06 0.000000000000D+00  7 21 2 23 -13 13 23 2 2 0.13467567D+00 0.21014356D+00 0.98937596D+06 0.98937596D+06 0.98937596D+06 0.10481729D+01  1  2 12  3  7  1       -2 0.332345996587D-04 0.100000000000D+01
-.566562130572D-05 0.000000000000D+00 -.137851641985D-05 0.609157553988D-06 0.000000000000D+00  7 21 2 23 -13 13 23 2 2 0.13719940D+00 0.21014356D+00 0.71851947D+06 0.71851947D+06 0.71851947D+06 0.10575562D+01  1  2  5  3  7  1       -2 -.367453260387D-04 0.100000000000D+01
  </mgrwgt>
  </event>
  <event>
  8     66 0.53686478E-06 0.22783573E+03 0.75467711E-02 0.97541797E-01
       -2 -1    0    0    0  501 0.00000000E+00 0.00000000E+00 0.51659391E+02 0.51660382E+02 0.32000000E+00 0.0000E+00 0.9000E+01
        2 -1    0    0  501    0 0.00000000E+00 0.00000000E+00 -.11956501E+04 0.11956501E+04 0.32000000E+00 0.0000E+00 0.9000E+01
       25  2    1    2    0    0 0.60864174E+01 -.11371390E+03 -.56387719E+03 0.64901028E+03 0.30048120E+03 0.0000E+00 0.0000E+00
       23  2    1    2    0    0 -.60864174E+01 0.11371390E+03 -.58011348E+03 0.59830022E+03 0.91997817E+02 0.0000E+00 0.0000E+00
       23  1    3    3    0    0 -.11515332E+03 -.74160753E+02 -.29177681E+03 0.33497621E+03 0.91188000E+02 0.0000E+00 0.9000E+01
      -11  1    4    4    0    0 0.14432619E+02 0.11289519E+03 -.55125199E+03 0.56287865E+03 0.51099893E-03 0.0000E+00 0.9000E+01
       11  1    4    4    0    0 -.20519037E+02 0.81871283E+00 -.28861497E+02 0.35421564E+02 0.51099893E-03 0.0000E+00 0.9000E+01
       23  1    3    3    0    0 0.12123973E+03 -.39553150E+02 -.27210038E+03 0.31403406E+03 0.91188000E+02 0.0000E+00 0.9000E+01
#aMCatNLO 1  0  0  1  2 0.27204456D+03 0.00000000D+00  -5  7  0 0.00000000D+00 0.00000000D+00 0.00000000D+00 0.00000000D+00 0.00000000D+00
  <mgrwgt>
 0.3433747606D-03    3    2    0
 0.248530076845729D+03 0.000000000000000D+00 0.000000000000000D+00 0.248530076845729D+03
 0.248530076845729D+03 0.000000000000000D+00 0.000000000000000D+00 -.248530076845729D+03
 0.169052762014225D+03 -.115153315981570D+03 -.741607532307492D+02 0.387747533755510D+02
 0.143759895992324D+03 0.144326194116645D+02 0.112895190541043D+03 -.878252990051476D+02
 0.224608719572279D+02 -.205190368200270D+02 0.818712833498633D+00 0.909887940098271D+01
 0.161786623727680D+03 0.121239733389933D+03 -.395531501437923D+02 0.399516662286139D+02
 0.000000000000000D+00 0.000000000000000D+00 0.000000000000000D+00 -.000000000000000D+00
 0.378146699269599D+03 0.000000000000000D+00 0.000000000000000D+00 0.378146699269599D+03
 0.478429271889759D+03 0.000000000000000D+00 0.000000000000000D+00 -.478429271889759D+03
 0.239989428142162D+03 -.126657807791760D+03 -.178140373026591D+03 0.387747533755510D+02
 0.101600567161569D+03 0.753174828680783D+01 0.505239039460846D+02 -.878252990051476D+02
 0.263944783605059D+02 -.218931150719536D+02 -.116004480092702D+02 0.909887940098271D+01
 0.198652128965524D+03 0.111102234671650D+03 -.131177646018895D+03 0.399516662286139D+02
 0.289939368529596D+03 0.299169399052558D+02 0.270394563108671D+03 -.100282572620159D+03
0.161639809255D-05 0.000000000000D+00 0.000000000000D+00 0.109537965413D-06 0.000000000000D+00  7 -2 2 23 -11 11 23 21 0 0.79476781D-02 0.18394624D+00 0.51909119D+05 0.51909119D+05 0.51909119D+05 0.11458667D+01  1  2  2  1  7  1       -2 0.338845294853D-03 0.100000000000D+01
-.889746421446D-07 0.000000000000D+00 -.620739428277D-08 0.109537965413D-06 0.000000000000D+00  7 -2 2 23 -11 11 23 21 2 0.79476781D-02 0.18394624D+00 0.51909119D+05 0.51909119D+05 0.51909119D+05 0.11458667D+01  1  2  3  1  7  1       -2 -.244899323617D-04 0.100000000000D+01
0.105430693940D-06 0.000000000000D+00 0.000000000000D+00 0.109537965413D-06 0.000000000000D+00  7 -2 2 23 -11 11 23 21 2 0.79476781D-02 0.18394624D+00 0.51909119D+05 0.51909119D+05 0.51909119D+05 0.11458667D+01  1  2 15  1  7  1       -2 0.290193981253D-04 0.100000000000D+01
  </mgrwgt>
  </event>
  <event>
  8     66 0.53686478E-06 0.34095481E+03 0.75467711E-02 0.87793971E-01
       -2 -1    0    0    0  501 0.00000000E+00 0.00000000E+00 0.19224791E+03 0.19224817E+03 0.32000000E+00 0.0000E+00 0.9000E+01
        2 -1    0    0  501    0 0.00000000E+00 0.00000000E+00 -.11208464E+04 0.11208465E+04 0.32000000E+00 0.0000E+00 0.9000E+01
       25  2    1    2    0    0 -.80038728E+02 -.29175498E+03 -.11621955E+03 0.44144425E+03 0.29973134E+03 0.0000E+00 0.0000E+00
       23  2    1    2    0    0 0.80038728E+02 0.29175498E+03 -.81237896E+03 0.87165039E+03 0.91036577E+02 0.0000E+00 0.0000E+00
       23  1    3    3    0    0 0.17635639E+02 -.12843746E+03 -.16078269E+03 0.22577316E+03 0.91188000E+02 0.0000E+00 0.9000E+01
      -13  1    4    4    0    0 -.14985201E+02 0.24202358E+02 -.43139814E+02 0.51685250E+02 0.10565837E+00 0.0000E+00 0.9000E+01
       13  1    4    4    0    0 0.95023929E+02 0.26755262E+03 -.76923915E+03 0.81996514E+03 0.10565837E+00 0.0000E+00 0.9000E+01
       23  1    3    3    0    0 -.97674367E+02 -.16331751E+03 0.44563136E+02 0.21567108E+03 0.91188000E+02 0.0000E+00 0.9000E+01
#aMCatNLO 1  0  0  2  1 0.88476259D+03 0.00000000D+00  -5  7  0 0.00000000D+00 0.00000000D+00 0.00000000D+00 0.00000000D+00 0.00000000D+00
  <mgrwgt>
 0.3228449032D-03    3    2    0
 0.464198860122128D+03 0.000000000000000D+00 0.000000000000000D+00 0.464198860122128D+03
 0.464198860122128D+03 0.000000000000000D+00 0.000000000000000D+00 -.464198860122128D+03
 0.158508540583016D+03 0.176356388499101D+02 -.128437464868983D+03 -.158365215311805D+01
 0.299522567544209D+02 -.149853490673205D+02 0.242020298637590D+02 -.931873105562288D+01
 0.390326193323988D+03 0.950240775172111D+02 0.267552947244804D+03 -.267843951410924D+03
 0.349610729582831D+03 -.976743672998008D+02 -.163317512239580D+03 0.278746334619665D+03
 0.000000000000000D+00 -.000000000000000D+00 0.000000000000000D+00 0.000000000000000D+00
 0.134331397873144D+04 0.000000000000000D+00 0.000000000000000D+00 0.134331397873144D+04
 0.919979711717726D+03 0.000000000000000D+00 0.000000000000000D+00 -.919979711717726D+03
 0.341765804748901D+03 0.229733812367659D+02 -.328570129123254D+03 -.158365215311805D+01
 0.179383419259588D+02 -.144743740775105D+02 0.504359570444291D+01 -.931873105562288D+01
 0.286715649682279D+03 0.102247863779311D+03 -.329481682066574D+01 -.267843951410924D+03
 0.636049372149581D+03 -.871577382678662D+02 -.557626722874728D+03 0.278746334619665D+03
 0.980824521942443D+03 -.235891326706998D+02 0.884448073114205D+03 0.423334267013711D+03
0.114421679073D-04 0.000000000000D+00 0.000000000000D+00 0.180778605912D-05 0.000000000000D+00  7 -2 2 23 -13 13 23 21 0 0.29576625D-01 0.17243793D+00 0.11625018D+06 0.11625018D+06 0.11625018D+06 0.11163949D+01  1  2  2  2  7  2        2 0.317010096301D-03 0.100000000000D+01
-.562088292132D-06 0.000000000000D+00 -.439409375562D-07 0.180778605912D-05 0.000000000000D+00  7 -2 2 23 -13 13 23 21 2 0.29576625D-01 0.17243793D+00 0.11625018D+06 0.11625018D+06 0.11625018D+06 0.11163949D+01  1  2  3  2  7  2        2 -.194090830369D-04 0.100000000000D+01
0.731064674491D-06 0.000000000000D+00 0.000000000000D+00 0.180778605912D-05 0.000000000000D+00  7 -2 2 23 -13 13 23 21 2 0.29576625D-01 0.17243793D+00 0.11625018D+06 0.11625018D+06 0.11625018D+06 0.11163949D+01  1  2 15  2  7  2        2 0.252438899211D-04 0.100000000000D+01
  </mgrwgt>
  </event>
  <event>
  9     66 0.53686478E-06 0.18295315E+03 0.75467711E-02 0.10198739E+00
       21 -1    0    0  502  501 0.00000000E+00 0.00000000E+00 0.18875624E+03 0.18875773E+03 0.75000000E+00 0.0000E+00 0.9000E+01
        2 -1    0    0  501    0 0.00000000E+00 0.00000000E+00 -.18605821E+04 0.18605821E+04 0.32000000E+00 0.0000E+00 0.9000E+01
       25  2    1    2    0    0 -.25143510E+02 0.59493510E+02 -.16637343E+04 0.16916590E+04 0.29920970E+03 0.0000E+00 0.0000E+00
       23  2    1    2    0    0 0.16301012E+03 0.17695896E+02 0.42562373E+02 0.19175523E+03 0.89850251E+02 0.0000E+00 0.0000E+00
       23  1    3    3    0    0 0.19537321E+02 0.23364595E+02 -.18044155E+03 0.20445541E+03 0.91188000E+02 0.0000E+00 0.9000E+01
      -11  1    4    4    0    0 0.16085383E+03 0.38313475E+02 0.31748313E+02 0.16837408E+03 0.51099893E-03 0.0000E+00 0.9000E+01
       11  1    4    4    0    0 0.21562965E+01 -.20617580E+02 0.10814060E+02 0.23381149E+02 0.51099893E-03 0.0000E+00 0.9000E+01
       23  1    3    3    0    0 -.44680830E+02 0.36128914E+02 -.14832928E+04 0.14872036E+04 0.91188000E+02 0.0000E+00 0.9000E+01
        2  1    1    2  502    0 -.13786661E+03 -.77189405E+02 -.50653924E+02 0.16592568E+03 0.32000000E+00 0.0000E+00 0.9000E+01
#aMCatNLO 2  0  0  1  2 0.15800445D+03 0.00000000D+00  -5  7  0 0.00000000D+00 0.00000000D+00 0.00000000D+00 0.00000000D+00 0.00000000D+00
  <mgrwgt>
 0.1231780871D-03    2    2    0
 0.472780366972050D+03 0.000000000000000D+00 0.000000000000000D+00 0.472780366972050D+03
 0.472780366972050D+03 0.000000000000000D+00 0.000000000000000D+00 -.472780366972050D+03
 0.931197729052968D+02 0.580613323173937D+01 0.156767137903340D+02 -.875044133545801D+01
 0.363227694075242D+03 0.106719877325609D+03 0.800470596697237D+01 0.347103947268259D+03
 0.664812039485574D+02 -.730663485960121D+01 -.259157299310195D+02 0.607843607157351D+02
 0.422732063015004D+03 -.105219375697747D+03 0.223431017371321D+01 -.399137866648536D+03
 0.000000000000000D+00 -.000000000000000D+00 -.000000000000000D+00 0.000000000000000D+00
 0.690033248482135D+03 0.000000000000000D+00 0.000000000000000D+00 0.690033248482135D+03
 0.508957925796731D+03 0.000000000000000D+00 0.000000000000000D+00 -.508957925796731D+03
 0.965372093210779D+02 0.195373207463288D+02 0.233645953098139D+02 -.875044133545801D+01
 0.384477601974276D+03 0.160853827498100D+03 0.383134753043185D+02 0.347103947268259D+03
 0.642220578405028D+02 0.215629645632520D+01 -.206175796649540D+02 0.607843607157351D+02
 0.413434351472817D+03 -.446808302882783D+02 0.361289142620447D+02 -.399137866648536D+03
 0.240319953670193D+03 -.137866614412475D+03 -.771894052112230D+02 0.181075322685404D+03
-.187744924040D-07 0.000000000000D+00 0.000000000000D+00 0.358884405598D-06 0.000000000000D+00  7 21 2 23 -11 11 23 2 2 0.29524946D-01 0.26589681D+00 0.75078721D+05 0.75078721D+05 0.75078721D+05 0.11320828D+01  1  2 13  3  7  1       -2 -.377744393875D-05 0.100000000000D+01
0.718280629832D-06 0.000000000000D+00 0.000000000000D+00 0.358884405598D-06 0.521070888806D-11  7 21 2 23 -11 11 23 2 2 0.29039532D-01 0.28624346D+00 0.75078721D+05 0.75078721D+05 0.75078721D+05 0.11320828D+01  1  2  1  3  7  1       -2 0.126955531073D-03 0.100000000000D+01
  </mgrwgt>
  </event>
  <event>
  8     66 0.53686478E-06 0.38578452E+03 0.75467711E-02 0.96912808E-01
       -2 -1    0    0    0  501 0.00000000E+00 0.00000000E+00 0.72803736E+02 0.72804439E+02 0.32000000E+00 0.0000E+00 0.9000E+01
        2 -1    0    0  501    0 0.00000000E+00 0.00000000E+00 -.29856866E+04 0.29856866E+04 0.32000000E+00 0.0000E+00 0.9000E+01
       25  2    1    2    0    0 0.16368234E+03 0.29094710E+03 -.23676985E+04 0.24098425E+04 0.29983762E+03 0.0000E+00 0.0000E+00
       23  2    1    2    0    0 -.16368234E+03 -.29094710E+03 -.54518436E+03 0.64864854E+03 0.10989462E+03 0.0000E+00 0.0000E+00
       23  1    3    3    0    0 0.11096132E+03 0.21597467E+02 -.11015263E+04 0.11110600E+04 0.91188000E+02 0.0000E+00 0.9000E+01
      -13  1    4    4    0    0 -.16049069E+03 -.25682461E+03 -.41327386E+03 0.51235870E+03 0.10565837E+00 0.0000E+00 0.9000E+01
       13  1    4    4    0    0 -.31916465E+01 -.34122488E+02 -.13191050E+03 0.13628985E+03 0.10565837E+00 0.0000E+00 0.9000E+01
       23  1    3    3    0    0 0.52721019E+02 0.26934963E+03 -.12661722E+04 0.12987825E+04 0.91188000E+02 0.0000E+00 0.9000E+01
#aMCatNLO 1  0  0  1  2 0.49847309D+02 0.00000000D+00  -5  7  0 0.00000000D+00 0.00000000D+00 0.00000000D+00 0.00000000D+00 0.00000000D+00
  <mgrwgt>
 0.2792017380D-03    4    2    0
 0.466229815065678D+03 0.000000000000000D+00 0.000000000000000D+00 0.466229815065678D+03
 0.466229815065678D+03 0.000000000000000D+00 0.000000000000000D+00 -.466229815065678D+03
 0.203279544661091D+03 0.110961322324058D+03 0.215974695407573D+02 -.142226777335188D+03
 0.389535857957351D+03 -.160490836423908D+03 -.256824827012089D+03 0.244993641323065D+03
 0.349625058714265D+02 -.319150756915736D+01 -.341222766791734D+02 -.691818838103485D+01
 0.304681721641487D+03 0.527210216690072D+02 0.269349634150505D+03 -.958486756068426D+02
 0.000000000000000D+00 0.000000000000000D+00 -.000000000000000D+00 -.000000000000000D+00
 0.474728364275388D+03 0.000000000000000D+00 0.000000000000000D+00 0.474728364275388D+03
 0.546201166044927D+03 0.000000000000000D+00 0.000000000000000D+00 -.546201166044927D+03
 0.199455944040275D+03 0.102267884621128D+03 0.279328812148641D+02 -.142226777335188D+03
 0.388939740872793D+03 -.177294990295482D+03 -.244578666603581D+03 0.244993641323065D+03
 0.340759910797922D+02 -.468177075476504D+01 -.330362355633087D+02 -.691818838103485D+01
 0.311319369170542D+03 0.394240382688619D+02 0.279039916262412D+03 -.958486756068426D+02
 0.871384851569132D+02 0.402848381602571D+02 -.293578953103865D+02 -.714728017695393D+02
0.254903132338D-04 0.000000000000D+00 0.000000000000D+00 0.111988500132D-07 0.000000000000D+00  7 -2 2 23 -13 13 23 21 0 0.11200630D-01 0.45933645D+00 0.14882969D+06 0.14882969D+06 0.14882969D+06 0.11078204D+01  1  2  2  1  7  1       -2 0.310465394381D-03 0.100000000000D+01
-.135436346131D-05 0.000000000000D+00 -.978895145713D-07 0.111988500132D-07 0.000000000000D+00  7 -2 2 23 -13 13 23 21 2 0.11200630D-01 0.45933645D+00 0.14882969D+06 0.14882969D+06 0.14882969D+06 0.11078204D+01  1  2  3  1  7  1       -2 -.202447305858D-04 0.100000000000D+01
0.164990328147D-05 0.000000000000D+00 0.000000000000D+00 0.111988500132D-07 0.000000000000D+00  7 -2 2 23 -13 13 23 21 2 0.11200630D-01 0.45933645D+00 0.14882969D+06 0.14882969D+06 0.14882969D+06 0.11078204D+01  1  2 15  1  7  1       -2 0.246623955682D-04 0.100000000000D+01
-.238706451360D-05 0.000000000000D+00 0.000000000000D+00 0.111988500132D-07 0.000000000000D+00  7 -2 2 23 -13 13 23 21 2 0.11200630D-01 0.45933645D+00 0.14882969D+06 0.14882969D+06 0.14882969D+06 0.11078204D+01  1  2  4  1  7  1       -2 -.356813214098D-04 0.100000000000D+01
  </mgrwgt>
  </event>
  <event>
  8     66 0.53686478E-06 0.23582704E+03 0.75467711E-02 0.10244817E+00
       -2 -1    0    0    0  501 0.00000000E+00 0.00000000E+00 0.40246473E+02 0.40247745E+02 0.32000000E+00 0.0000E+00 0.9000E+01
        2 -1    0    0  501    0 0.00000000E+00 0.00000000E+00 -.20380532E+04 0.20380533E+04 0.32000000E+00 0.0000E+00 0.9000E+01
       25  2    1    2    0    0 -.70891678E+02 0.16941594E+03 -.14859081E+04 0.15271975E+04 0.30113434E+03 0.0000E+00 0.0000E+00
       23  2    1    2    0    0 0.70891678E+02 -.16941594E+03 -.51189868E+03 0.55110354E+03 0.89148513E+02 0.0000E+00 0.0000E+00
       23  1    3    3    0    0 -.22117160E+01 -.34152597E+02 -.71883592E+03 0.72540445E+03 0.91188000E+02 0.0000E+00 0.9000E+01
      -13  1    4    4    0    0 0.77471886E+02 -.96499260E+02 -.24689323E+03 0.27617074E+03 0.10565837E+00 0.0000E+00 0.9000E+01
       13  1    4    4    0    0 -.65802075E+01 -.72916681E+02 -.26500546E+03 0.27493280E+03 0.10565837E+00 0.0000E+00 0.9000E+01
       23  1    3    3    0    0 -.68679962E+02 0.20356854E+03 -.76707216E+03 0.80179301E+03 0.91188000E+02 0.0000E+00 0.9000E+01
#aMCatNLO 1  0  0  2  2 0.14910548D+01 0.00000000D+00  -5  7  0 0.00000000D+00 0.00000000D+00 0.00000000D+00 0.00000000D+00 0.00000000D+00
  <mgrwgt>
 0.4183413828D-03   10    2    0
 0.286401471010700D+03 0.000000000000000D+00 0.000000000000000D+00 0.286401471010700D+03
 0.286401471010700D+03 0.000000000000000D+00 0.000000000000000D+00 -.286401471010700D+03
 0.124848425393059D+03 -.221171616624219D+01 -.341525965101187D+02 -.781062509812319D+02
 0.140922843952931D+03 0.774720025744113D+02 -.964992942235523D+02 0.674182688835066D+02
 0.732596920815249D+02 -.658032385806079D+01 -.729166471372388D+02 -.261617890563421D+01
 0.233771980593885D+03 -.686799625501084D+02 0.203568537870910D+03 0.133041610033595D+02
 0.000000000000000D+00 -.000000000000000D+00 0.000000000000000D+00 -.000000000000000D+00
 0.286801210163586D+03 0.000000000000000D+00 0.000000000000000D+00 0.286801210163586D+03
 0.287796259185189D+03 0.000000000000000D+00 0.000000000000000D+00 -.287796259185189D+03
 0.124915540442835D+03 -.201236183359934D+01 -.344093716541427D+02 -.781062509812319D+02
 0.141245410039521D+03 0.776972210673168D+02 -.967893832834992D+02 0.674182688835066D+02
 0.733993630889731D+02 -.646326486609733D+01 -.730674230903984D+02 -.261617890563421D+01
 0.233244569118010D+03 -.683072035242441D+02 0.203088411598841D+03 0.133041610033595D+02
 0.179258665943706D+01 -.914390843376068D+00 0.117776642919932D+01 -.995049021602854D+00
0.980789144430D-06 0.000000000000D+00 0.000000000000D+00 0.143215540339D-07 0.000000000000D+00  7 -2 2 23 -13 13 23 21 0 0.61918649D-02 0.31354675D+00 0.69631281D+05 0.69631281D+05 0.69631281D+05 0.11348547D+01  1  2  2  2  7  2        2 0.105546084662D-03 0.100000000000D+01
-.540437996201D-07 0.000000000000D+00 -.376648856232D-08 0.143215540339D-07 0.000000000000D+00  7 -2 2 23 -13 13 23 21 2 0.61918649D-02 0.31354675D+00 0.69631281D+05 0.69631281D+05 0.69631281D+05 0.11348547D+01  1  2  3  2  7  2        2 -.749019008319D-05 0.100000000000D+01
0.620460270532D-07 0.000000000000D+00 0.000000000000D+00 0.143215540339D-07 0.000000000000D+00  7 -2 2 23 -13 13 23 21 2 0.61918649D-02 0.31354675D+00 0.69631281D+05 0.69631281D+05 0.69631281D+05 0.11348547D+01  1  2 15  2  7  2        2 0.859925726545D-05 0.100000000000D+01
-.440982500217D-04 0.000000000000D+00 0.000000000000D+00 0.143215540339D-07 0.000000000000D+00  7 -2 2 23 -13 13 23 21 2 0.61918649D-02 0.31354675D+00 0.69631281D+05 0.69631281D+05 0.69631281D+05 0.11348547D+01  1  2  4  2  7  2        2 -.611178853671D-02 0.100000000000D+01
-.208431665304D-03 0.000000000000D+00 -.176391977436D-04 0.143215540339D-07 0.000000000000D+00  7 -2 2 23 -13 13 23 21 2 0.61918649D-02 0.31525383D+00 0.69631281D+05 0.69631281D+05 0.69631281D+05 0.11348547D+01  1  2  5  2  7  2        2 -.284944783740D-01 0.100000000000D+01
0.208524625957D-03 0.000000000000D+00 0.176389377368D-04 0.143215540339D-07 0.000000000000D+00  7 -2 2 23 -13 13 23 21 2 0.61918649D-02 0.31354675D+00 0.69631281D+05 0.69631281D+05 0.69631281D+05 0.11348547D+01  1  2  6  2  7  2        2 0.289004306956D-01 0.100000000000D+01
0.440993542139D-04 0.000000000000D+00 0.000000000000D+00 0.143215540339D-07 0.442309864271D-07  7 -2 2 23 -13 13 23 21 2 0.62005071D-02 0.31507374D+00 0.70042417D+05 0.70042417D+05 0.70042417D+05 0.11346373D+01  1  2 11  2  7  2        2 0.602211101541D-02 0.100000000000D+01
0.844443534932D-11 0.000000000000D+00 0.000000000000D+00 0.143215540339D-07 0.000000000000D+00  7 -2 21 23 -13 13 23 -2 2 0.61918649D-02 0.31529186D+00 0.70042417D+05 0.70042417D+05 0.70042417D+05 0.11346373D+01  1  2 12  4  7  2        2 0.235413101031D-09 0.100000000000D+01
-.210283735329D-06 0.000000000000D+00 -.178123264575D-07 0.143215540339D-07 0.000000000000D+00  7 -2 21 23 -13 13 23 -2 2 0.61918649D-02 0.31525383D+00 0.69631281D+05 0.69631281D+05 0.69631281D+05 0.11348547D+01  1  2  5  4  7  2        2 -.587047346611D-05 0.100000000000D+01
0.459209193267D-07 0.000000000000D+00 0.000000000000D+00 0.143215540339D-07 0.399176298630D-10  7 -2 21 23 -13 13 23 -2 2 0.62005071D-02 0.31507374D+00 0.70042417D+05 0.70042417D+05 0.70042417D+05 0.11346373D+01  1  2 11  4  7  2        2 0.128166877530D-05 0.100000000000D+01
  </mgrwgt>
  </event>
  <event>
  8     66 0.53686478E-06 0.30313476E+03 0.75467711E-02 0.85351812E-01
       -2 -1    0    0    0  501 0.00000000E+00 0.00000000E+00 0.21985987E+03 0.21986010E+03 0.32000000E+00 0.0000E+00 0.9000E+01
        2 -1    0    0  501    0 0.00000000E+00 0.00000000E+00 -.51102287E+03 0.51102297E+03 0.32000000E+00 0.0000E+00 0.9000E+01
       25  2    1    2    0    0 0.21817718E+03 0.64282766E+02 -.30847233E+03 0.48600398E+03 0.29884968E+03 0.0000E+00 0.0000E+00
       23  2    1    2    0    0 -.21817718E+03 -.64282766E+02 0.17309331E+02 0.24487909E+03 0.89065151E+02 0.0000E+00 0.0000E+00
       23  1    3    3    0    0 0.24981555E+02 0.12060978E+03 -.14695342E+03 0.21232370E+03 0.91188000E+02 0.0000E+00 0.9000E+01
      -11  1    4    4    0    0 -.63590777E+02 -.41228262E+02 -.30109080E+02 0.81548226E+02 0.51099893E-03 0.0000E+00 0.9000E+01
       11  1    4    4    0    0 -.15458640E+03 -.23054503E+02 0.47418410E+02 0.16333087E+03 0.51099893E-03 0.0000E+00 0.9000E+01
       23  1    3    3    0    0 0.19319563E+03 -.56327010E+02 -.16151891E+03 0.27368028E+03 0.91188000E+02 0.0000E+00 0.9000E+01
#aMCatNLO 1  0  0  1  1 0.11645753D+04 0.00000000D+00  -5  7  0 0.00000000D+00 0.00000000D+00 0.00000000D+00 0.00000000D+00 0.00000000D+00
  <mgrwgt>
 0.2354476019D-03    3    2    0
 0.335191799452335D+03 0.000000000000000D+00 0.000000000000000D+00 0.335191799452335D+03
 0.335191799452335D+03 0.000000000000000D+00 0.000000000000000D+00 -.335191799452335D+03
 0.167659830864712D+03 0.249815548619389D+02 0.120609775247325D+03 -.679983203693571D+02
 0.758305663718731D+02 -.635907768519395D+02 -.412282624293918D+02 0.259196309755567D+01
 0.198665738184769D+03 -.154586404830174D+03 -.230545031796952D+02 0.122636082998921D+03
 0.228227463483314D+03 0.193195626820175D+03 -.563270096382378D+02 -.572297257271194D+02
 0.000000000000000D+00 0.000000000000000D+00 -.000000000000000D+00 -.000000000000000D+00
 0.116730537912545D+04 0.000000000000000D+00 0.000000000000000D+00 0.116730537912545D+04
 0.135624107357069D+04 0.000000000000000D+00 0.000000000000000D+00 -.135624107357069D+04
 0.495424611532550D+03 -.167627473423300D+03 0.452114535210764D+03 -.679983203693571D+02
 0.145567487973007D+03 -.127901234743910D+03 0.694582567666060D+02 0.259196309755567D+01
 0.498494395353396D+03 -.357093547652784D+03 0.325486177233655D+03 0.122636082998921D+03
 0.204258171444748D+03 0.675696392918588D+02 0.159891374367472D+03 -.572297257271194D+02
 0.117980178639243D+04 0.585052616528135D+03 -.100695034357850D+04 -.188935694445244D+03
0.395572248507D-05 0.000000000000D+00 0.000000000000D+00 0.252367780050D-07 0.000000000000D+00  7 -2 2 23 -11 11 23 21 0 0.33824621D-01 0.78618928D-01 0.91890680D+05 0.91890680D+05 0.91890680D+05 0.11247486D+01  1  2  2  1  7  1       -2 0.233080276619D-03 0.100000000000D+01
-.217062216147D-06 0.000000000000D+00 -.151910159083D-07 0.252367780050D-07 0.000000000000D+00  7 -2 2 23 -11 11 23 21 2 0.33824621D-01 0.78618928D-01 0.91890680D+05 0.91890680D+05 0.91890680D+05 0.11247486D+01  1  2  3  1  7  1       -2 -.161798628202D-04 0.100000000000D+01
0.248821254090D-06 0.000000000000D+00 0.000000000000D+00 0.252367780050D-07 0.000000000000D+00  7 -2 2 23 -11 11 23 21 2 0.33824621D-01 0.78618928D-01 0.91890680D+05 0.91890680D+05 0.91890680D+05 0.11247486D+01  1  2 15  1  7  1       -2 0.185471881260D-04 0.100000000000D+01
  </mgrwgt>
  </event>
  <event>
  9     66 0.53686478E-06 0.16103151E+03 0.75467711E-02 0.10882928E+00
       21 -1    0    0  502  501 0.00000000E+00 0.00000000E+00 0.28141176E+02 0.28151168E+02 0.75000000E+00 0.0000E+00 0.9000E+01
        2 -1    0    0  501    0 0.00000000E+00 0.00000000E+00 -.20401279E+04 0.20401279E+04 0.32000000E+00 0.0000E+00 0.9000E+01
       25  2    1    2    0    0 0.87133282E+02 0.33080897E+01 -.16187720E+04 0.16503574E+04 0.30927874E+03 0.0000E+00 0.0000E+00
       23  2    1    2    0    0 -.78474452E+02 0.10232359E+02 -.29589034E+03 0.31927869E+03 0.90137951E+02 0.0000E+00 0.0000E+00
       23  1    3    3    0    0 0.12814082E+02 -.57389535E+02 -.13089732E+04 0.13134625E+04 0.91188000E+02 0.0000E+00 0.9000E+01
      -11  1    4    4    0    0 -.52124738E+02 -.44944077E+00 -.28351939E+03 0.28827146E+03 0.51099893E-03 0.0000E+00 0.9000E+01
       11  1    4    4    0    0 -.26349714E+02 0.10681800E+02 -.12370954E+02 0.31007238E+02 0.51099893E-03 0.0000E+00 0.9000E+01
       23  1    3    3    0    0 0.74319200E+02 0.60697625E+02 -.30979885E+03 0.33689482E+03 0.91188000E+02 0.0000E+00 0.9000E+01
        2  1    1    2  502    0 -.86588304E+01 -.13540449E+02 -.97324330E+02 0.98643026E+02 0.32000000E+00 0.0000E+00 0.9000E+01
#aMCatNLO 2  0  0  1  1 0.16072309D+02 0.00000000D+00  -5  7  0 0.00000000D+00 0.00000000D+00 0.00000000D+00 0.00000000D+00 0.00000000D+00
  <mgrwgt>
 0.2612255794D-04    1    2    0
 0.230908980552998D+03 0.000000000000000D+00 0.000000000000000D+00 0.230908980552998D+03
 0.230908980552998D+03 0.000000000000000D+00 0.000000000000000D+00 -.230908980552998D+03
 0.176406213590465D+03 0.952207454383809D+01 -.625374890857129D+02 -.137121454938899D+03
 0.550073357192693D+02 -.531461935192817D+02 -.204676631249918D+01 -.140392252281057D+02
 0.811365017659601D+02 -.278683641116099D+02 0.830697546154407D+01 0.757461573892807D+02
 0.149267910030303D+03 0.714924830870535D+02 0.562772799366680D+02 0.754145227777241D+02
 0.000000000000000D+00 -.000000000000000D+00 -.000000000000000D+00 -.000000000000000D+00
 0.236589648707496D+03 0.000000000000000D+00 0.000000000000000D+00 0.236589648707496D+03
 0.242703940413498D+03 0.000000000000000D+00 0.000000000000000D+00 -.242703940413498D+03
 0.174857954324642D+03 0.128140821165250D+02 -.573895351222584D+02 -.137121454938899D+03
 0.539841654260409D+02 -.521247376467442D+02 -.449440762232815D+00 -.140392252281057D+02
 0.809066662477390D+02 -.263497140899766D+02 0.106818000101967D+02 0.757461573892807D+02
 0.152348766799949D+03 0.743192000564137D+02 0.606976248188353D+02 0.754145227777241D+02
 0.171960363226232D+02 -.865883043621796D+01 -.135404489445408D+02 -.611429170600206D+01
0.612230794735D-08 0.000000000000D+00 0.000000000000D+00 0.419021099597D-09 0.537619262552D-13  7 21 2 23 -11 11 23 2 2 0.43301552D-02 0.31386464D+00 0.28478033D+05 0.28478033D+05 0.28478033D+05 0.11694397D+01  1  2  1  3  7  1       -2 0.261225579371D-04 0.100000000000D+01
  </mgrwgt>
  </event>
  <event>
  8     66 0.53686478E-06 0.27219740E+03 0.75467711E-02 0.95171001E-01
       -2 -1    0    0    0  501 0.00000000E+00 0.00000000E+00 0.16743019E+03 0.16743050E+03 0.32000000E+00 0.0000E+00 0.9000E+01
        2 -1    0    0  501    0 0.00000000E+00 0.00000000E+00 -.52071149E+03 0.52071158E+03 0.32000000E+00 0.0000E+00 0.9000E+01
       25  2    1    2    0    0 0.16347516E+03 -.61636355E+02 -.93079843E+02 0.35995874E+03 0.30063810E+03 0.0000E+00 0.0000E+00
       23  2    1    2    0    0 -.16347516E+03 0.61636355E+02 -.26020145E+03 0.32818334E+03 0.97346490E+02 0.0000E+00 0.0000E+00
       23  1    3    3    0    0 0.21046732E+03 -.82483179E+01 -.82227452E+02 0.24380552E+03 0.91188000E+02 0.0000E+00 0.9000E+01
      -11  1    4    4    0    0 -.15109492E+03 0.84580667E+02 -.23515961E+03 0.29203357E+03 0.51099893E-03 0.0000E+00 0.9000E+01
       11  1    4    4    0    0 -.12380241E+02 -.22944312E+02 -.25041841E+02 0.36149766E+02 0.51099893E-03 0.0000E+00 0.9000E+01
       23  1    3    3    0    0 -.46992153E+02 -.53388037E+02 -.10852391E+02 0.11615322E+03 0.91188000E+02 0.0000E+00 0.9000E+01
#aMCatNLO 1  0  0  1  2 0.32776942D+03 0.00000000D+00  -5  7  0 0.00000000D+00 0.00000000D+00 0.00000000D+00 0.00000000D+00 0.00000000D+00
  <mgrwgt>
 0.2428766093D-03    5    2    0
 0.295267610796848D+03 0.000000000000000D+00 0.000000000000000D+00 0.295267610796848D+03
 0.295267610796848D+03 0.000000000000000D+00 0.000000000000000D+00 -.295267610796848D+03
 0.234911333413912D+03 0.210467316443346D+03 -.824831795423390D+01 0.500355591790950D+02
 0.199620774261746D+03 -.151094922814179D+03 0.845806669903421D+02 -.993221455069566D+02
 0.271437854701696D+02 -.123802408530428D+02 -.229443118217627D+02 -.755468603563117D+01
 0.128859328447868D+03 -.469921527761233D+02 -.533880372143455D+02 0.568412723634927D+02
 0.000000000000000D+00 -.000000000000000D+00 0.000000000000000D+00 0.000000000000000D+00
 0.565026547100030D+03 0.000000000000000D+00 0.000000000000000D+00 0.565026547100030D+03
 0.455847796653509D+03 0.000000000000000D+00 0.000000000000000D+00 -.455847796653509D+03
 0.308785827895047D+03 0.253557159951075D+03 -.142262593888943D+03 0.500355591790950D+02
 0.157945268305037D+03 -.122756601567868D+03 -.355471002369451D+01 -.993221455069566D+02
 0.410648820263454D+02 -.697447268382961D+01 -.397568608610289D+02 -.755468603563117D+01
 0.167603635137148D+03 -.234964577168352D+02 -.126462300303475D+03 0.568412723634927D+02
 0.345474730389962D+03 -.100329627982542D+03 0.312036465077141D+03 0.109178750446522D+03
0.247334210491D-05 0.000000000000D+00 0.000000000000D+00 0.674623091745D-08 0.000000000000D+00  7 -2 2 23 -11 11 23 21 0 0.25758522D-01 0.80109491D-01 0.74091425D+05 0.74091425D+05 0.74091425D+05 0.11325684D+01  1  2  2  1  7  1       -2 0.229971485242D-03 0.100000000000D+01
-.136302144574D-06 0.000000000000D+00 -.949828492879D-08 0.674623091745D-08 0.000000000000D+00  7 -2 2 23 -11 11 23 21 2 0.25758522D-01 0.80109491D-01 0.74091425D+05 0.74091425D+05 0.74091425D+05 0.11325684D+01  1  2  3  1  7  1       -2 -.162562868714D-04 0.100000000000D+01
0.157069819706D-06 0.000000000000D+00 0.000000000000D+00 0.674623091745D-08 0.000000000000D+00  7 -2 2 23 -11 11 23 21 2 0.25758522D-01 0.80109491D-01 0.74091425D+05 0.74091425D+05 0.74091425D+05 0.11325684D+01  1  2 15  1  7  1       -2 0.187331758862D-04 0.100000000000D+01
0.945267379084D-07 0.000000000000D+00 -.765031360540D-06 0.674623091745D-08 0.000000000000D+00  7 -2 2 23 -11 11 23 21 2 0.73003045D-01 0.80109491D-01 0.74091425D+05 0.74091425D+05 0.74091425D+05 0.11325684D+01  1  2  5  1  7  1       -2 0.155341108813D-05 0.100000000000D+01
0.530759871978D-07 0.000000000000D+00 -.897038671281D-07 0.674623091745D-08 0.000000000000D+00  7 21 2 23 -11 11 23 2 2 0.73003045D-01 0.80109491D-01 0.74091425D+05 0.74091425D+05 0.74091425D+05 0.11325684D+01  1  2  5  3  7  1       -2 0.887482400283D-05 0.100000000000D+01
  </mgrwgt>
  </event>
  <event>
  8     66 0.53686478E-06 0.14135395E+03 0.75467711E-02 0.97776217E-01
       -2 -1    0    0    0  501 0.00000000E+00 0.00000000E+00 0.19154079E+03 0.19154106E+03 0.32000000E+00 0.0000E+00 0.9000E+01
        2 -1    0    0  501    0 0.00000000E+00 0.00000000E+00 -.57770098E+03 0.57770107E+03 0.32000000E+00 0.0000E+00 0.9000E+01
       25  2    1    2    0    0 0.24718902E+03 0.60287571E+02 -.20251872E+03 0.44253587E+03 0.30014524E+03 0.0000E+00 0.0000E+00
       23  2    1    2    0    0 -.24718902E+03 -.60287571E+02 -.18364147E+03 0.32670626E+03 0.90971362E+02 0.0000E+00 0.0000E+00
       23  1    3    3    0    0 0.24390422E+03 -.25951918E+02 -.17256814E+03 0.31346098E+03 0.91188000E+02 0.0000E+00 0.9000E+01
      -13  1    4    4    0    0 -.87695436E+02 -.20666720E+02 -.12093668E+03 0.15080880E+03 0.10565837E+00 0.0000E+00 0.9000E+01
       13  1    4    4    0    0 -.15949358E+03 -.39620851E+02 -.62704793E+02 0.17589746E+03 0.10565837E+00 0.0000E+00 0.9000E+01
       23  1    3    3    0    0 0.32847987E+01 0.86239489E+02 -.29950580E+02 0.12907489E+03 0.91188000E+02 0.0000E+00 0.9000E+01
#aMCatNLO 1  0  0  1  2 0.11489411D+03 0.00000000D+00  -5  7  0 0.00000000D+00 0.00000000D+00 0.00000000D+00 0.00000000D+00 0.00000000D+00
  <mgrwgt>
 0.2570970483D-03    9    2    0
 0.332646118485749D+03 0.000000000000000D+00 0.000000000000000D+00 0.332646118485749D+03
 0.332646118485749D+03 0.000000000000000D+00 0.000000000000000D+00 -.332646118485749D+03
 0.262273379986708D+03 0.243904218623108D+03 -.259519175639081D+02 -.175870582605384D+02
 0.104176016032609D+03 -.876953391396219D+02 -.206666943179639D+02 -.522977777308071D+02
 0.166984811312900D+03 -.159493678512320D+03 -.396208767168508D+02 0.295952673919593D+02
 0.131858029639282D+03 0.328479902883409D+01 0.862394885987229D+02 0.402895685993861D+02
 0.000000000000000D+00 -.000000000000000D+00 0.000000000000000D+00 0.000000000000000D+00
 0.444335428453644D+03 0.000000000000000D+00 0.000000000000000D+00 0.444335428453644D+03
 0.368480605635904D+03 0.000000000000000D+00 0.000000000000000D+00 -.368480605635904D+03
 0.302915114699352D+03 0.283161474511478D+03 -.543377410604053D+02 -.175870582605384D+02
 0.955367963940431D+02 -.738235475951496D+02 -.306969987152268D+02 -.522977777308071D+02
 0.151145453753863D+03 -.137396765112662D+03 -.555985366267451D+02 0.295952673919593D+02
 0.125542928695460D+03 0.211635339681777D+02 0.733118755283654D+02 0.402895685993861D+02
 0.137675740546829D+03 -.931046957718441D+02 0.673214008740119D+02 0.758548228177406D+02
0.305543851468D-05 0.000000000000D+00 0.000000000000D+00 0.597697608462D-06 0.000000000000D+00  7 -2 2 23 -13 13 23 21 0 0.29467841D-01 0.88877101D-01 0.10293635D+06 0.10293635D+06 0.10293635D+06 0.11206921D+01  1  2  2  1  7  1       -2 0.199983380832D-03 0.100000000000D+01
-.169476929841D-06 0.000000000000D+00 -.117336884118D-07 0.597697608462D-06 0.000000000000D+00  7 -2 2 23 -13 13 23 21 2 0.29467841D-01 0.88877101D-01 0.10293635D+06 0.10293635D+06 0.10293635D+06 0.11206921D+01  1  2  3  1  7  1       -2 -.139316821972D-04 0.100000000000D+01
0.192271598901D-06 0.000000000000D+00 0.000000000000D+00 0.597697608462D-06 0.000000000000D+00  7 -2 2 23 -13 13 23 21 2 0.29467841D-01 0.88877101D-01 0.10293635D+06 0.10293635D+06 0.10293635D+06 0.11206921D+01  1  2 15  1  7  1       -2 0.158054952610D-04 0.100000000000D+01
0.230748329238D-05 0.000000000000D+00 0.000000000000D+00 0.597697608462D-06 0.000000000000D+00  7 -2 2 23 -13 13 23 21 2 0.40537679D-01 0.88877101D-01 0.14606601D+06 0.14606601D+06 0.14606601D+06 0.11084639D+01  1  2 12  1  7  1       -2 0.103857001580D-03 0.100000000000D+01
-.261900965181D-05 0.000000000000D+00 0.000000000000D+00 0.597697608462D-06 0.000000000000D+00  7 -2 2 23 -13 13 23 21 2 0.29467841D-01 0.88877101D-01 0.10293635D+06 0.10293635D+06 0.10293635D+06 0.11206921D+01  1  2  4  1  7  1       -2 -.215293079565D-03 0.100000000000D+01
-.393553464216D-05 0.000000000000D+00 -.130007281117D-05 0.597697608462D-06 0.000000000000D+00  7 -2 2 23 -13 13 23 21 2 0.43049584D-01 0.88877101D-01 0.10293635D+06 0.10293635D+06 0.10293635D+06 0.11206921D+01  1  2  5  1  7  1       -2 -.162474599727D-03 0.100000000000D+01
0.421033446009D-05 0.000000000000D+00 0.121195755126D-05 0.597697608462D-06 0.000000000000D+00  7 -2 2 23 -13 13 23 21 2 0.29467841D-01 0.88877101D-01 0.10293635D+06 0.10293635D+06 0.10293635D+06 0.11206921D+01  1  2  6  1  7  1       -2 0.346106350270D-03 0.100000000000D+01
0.932222303304D-07 0.000000000000D+00 0.000000000000D+00 0.597697608462D-06 0.000000000000D+00  7 21 2 23 -13 13 23 2 2 0.40537679D-01 0.88877101D-01 0.14606601D+06 0.14606601D+06 0.14606601D+06 0.11084639D+01  1  2 12  3  7  1       -2 0.464771731759D-04 0.100000000000D+01
-.138909727738D-06 0.000000000000D+00 -.594991819029D-07 0.597697608462D-06 0.000000000000D+00  7 21 2 23 -13 13 23 2 2 0.43049584D-01 0.88877101D-01 0.10293635D+06 0.10293635D+06 0.10293635D+06 0.11206921D+01  1  2  5  3  7  1       -2 -.634329913474D-04 0.100000000000D+01
  </mgrwgt>
  </event>
  <event>
  8     66 0.53686478E-06 0.12364444E+03 0.75467711E-02 0.10048911E+00
       -2 -1    0    0    0  501 0.00000000E+00 0.00000000E+00 0.50395187E+02 0.50396203E+02 0.32000000E+00 0.0000E+00 0.9000E+01
        2 -1    0    0  501    0 0.00000000E+00 0.00000000E+00 -.13313723E+04 0.13313723E+04 0.32000000E+00 0.0000E+00 0.9000E+01
       25  2    1    2    0    0 0.68790464E+02 -.13544730E+03 -.74723422E+03 0.81957726E+03 0.30044933E+03 0.0000E+00 0.0000E+00
       23  2    1    2    0    0 -.68790464E+02 0.13544730E+03 -.53374288E+03 0.56219128E+03 0.89997056E+02 0.0000E+00 0.0000E+00
       23  1    3    3    0    0 0.60789232E+02 -.13305152E+03 -.19696599E+03 0.26174203E+03 0.91188000E+02 0.0000E+00 0.9000E+01
      -13  1    4    4    0    0 -.46785343E+02 0.53595329E+02 -.38028201E+03 0.38687949E+03 0.10565837E+00 0.0000E+00 0.9000E+01
       13  1    4    4    0    0 -.22005121E+02 0.81851966E+02 -.15346088E+03 0.17531179E+03 0.10565837E+00 0.0000E+00 0.9000E+01
       23  1    3    3    0    0 0.80012325E+01 -.23957758E+01 -.55026824E+03 0.55783523E+03 0.91188000E+02 0.0000E+00 0.9000E+01
#aMCatNLO 1  0  0  2  1 0.16465245D+03 0.00000000D+00  -5  7  0 0.00000000D+00 0.00000000D+00 0.00000000D+00 0.00000000D+00 0.00000000D+00
  <mgrwgt>
 0.3202170711D-03    8    2    0
 0.259027960108898D+03 0.000000000000000D+00 0.000000000000000D+00 0.259027960108898D+03
 0.259027960108898D+03 0.000000000000000D+00 0.000000000000000D+00 -.259027960108898D+03
 0.211092998655214D+03 0.607892322371653D+02 -.133051519873259D+03 0.121848122844310D+03
 0.915834930762108D+02 -.467853780930350D+02 0.535952916074272D+02 -.576732981391472D+02
 0.881380428795265D+02 -.220050877587060D+02 0.818520065343943D+02 0.241731202300897D+02
 0.127241385606844D+03 0.800123361457575D+01 -.239577826856285D+01 -.883479449352528D+02
 0.000000000000000D+00 -.000000000000000D+00 0.000000000000000D+00 -.000000000000000D+00
 0.311371692003421D+03 0.000000000000000D+00 0.000000000000000D+00 0.311371692003421D+03
 0.443053082280360D+03 0.000000000000000D+00 0.000000000000000D+00 -.443053082280360D+03
 0.245002514699471D+03 0.131161941380901D+03 -.140216122316855D+03 0.121848122844310D+03
 0.795793330811764D+02 -.203760155172042D+02 0.509065705684493D+02 -.576732981391472D+02
 0.828897814339394D+02 0.438344486984852D+01 0.791654061795989D+02 0.241731202300897D+02
 0.136120466338768D+03 0.486363340789634D+02 -.653281297456393D+01 -.883479449352528D+02
 0.210832678730427D+03 -.163805704812508D+03 0.166769585433712D+02 -.131681390276939D+03
0.104014095143D-05 0.000000000000D+00 0.000000000000D+00 0.816290824612D-07 0.000000000000D+00  7 -2 2 23 -13 13 23 21 0 0.77531868D-02 0.20482659D+00 0.44067765D+05 0.44067765D+05 0.44067765D+05 0.11521514D+01  1  2  2  2  7  2        2 0.190439113911D-03 0.100000000000D+01
-.546814619583D-07 0.000000000000D+00 -.399441512890D-08 0.816290824612D-07 0.000000000000D+00  7 -2 2 23 -13 13 23 21 2 0.77531868D-02 0.20482659D+00 0.44067765D+05 0.44067765D+05 0.44067765D+05 0.11521514D+01  1  2  3  2  7  2        2 -.132899437909D-04 0.100000000000D+01
0.669107577566D-07 0.000000000000D+00 0.000000000000D+00 0.816290824612D-07 0.000000000000D+00  7 -2 2 23 -13 13 23 21 2 0.77531868D-02 0.20482659D+00 0.44067765D+05 0.44067765D+05 0.44067765D+05 0.11521514D+01  1  2 15  2  7  2        2 0.162621879106D-04 0.100000000000D+01
0.570271209515D-07 0.000000000000D+00 0.000000000000D+00 0.816290824612D-07 0.000000000000D+00  7 -2 2 23 -13 13 23 21 2 0.77531868D-02 0.35879248D+00 0.94519433D+05 0.94519433D+05 0.94519433D+05 0.11237364D+01  1  2 12  2  7  2        2 0.379773239520D-05 0.100000000000D+01
-.528476601722D-06 0.000000000000D+00 -.307137299364D-06 0.816290824612D-07 0.000000000000D+00  7 -2 2 23 -13 13 23 21 2 0.77531868D-02 0.37531596D+00 0.44067765D+05 0.44067765D+05 0.44067765D+05 0.11521514D+01  1  2  5  2  7  2        2 -.328901936647D-04 0.100000000000D+01
0.641951146447D-06 0.000000000000D+00 0.258304348446D-06 0.816290824612D-07 0.000000000000D+00  7 -2 2 23 -13 13 23 21 2 0.77531868D-02 0.20482659D+00 0.44067765D+05 0.44067765D+05 0.44067765D+05 0.11521514D+01  1  2  6  2  7  2        2 0.156021699992D-03 0.100000000000D+01
0.353015003442D-08 0.000000000000D+00 0.000000000000D+00 0.816290824612D-07 0.000000000000D+00  7 -2 21 23 -13 13 23 -2 2 0.77531868D-02 0.35879248D+00 0.94519433D+05 0.94519433D+05 0.94519433D+05 0.11237364D+01  1  2 12  4  7  2        2 0.350409787780D-07 0.100000000000D+01
-.182163832548D-07 0.000000000000D+00 -.203251599661D-07 0.816290824612D-07 0.000000000000D+00  7 -2 21 23 -13 13 23 -2 2 0.77531868D-02 0.37531596D+00 0.44067765D+05 0.44067765D+05 0.44067765D+05 0.11521514D+01  1  2  5  4  7  2        2 -.158566619059D-06 0.100000000000D+01
  </mgrwgt>
  </event>
  <event>
  8     66 0.53686478E-06 0.18896054E+03 0.75467711E-02 0.10125448E+00
       -2 -1    0    0    0  501 0.00000000E+00 0.00000000E+00 0.67076505E+02 0.67077269E+02 0.32000000E+00 0.0000E+00 0.9000E+01
        2 -1    0    0  501    0 0.00000000E+00 0.00000000E+00 -.10704984E+04 0.10704984E+04 0.32000000E+00 0.0000E+00 0.9000E+01
       25  2    1    2    0    0 -.27263514E+02 -.10384001E+03 -.92155776E+03 0.97497646E+03 0.29964034E+03 0.0000E+00 0.0000E+00
       23  2    1    2    0    0 0.27263514E+02 0.10384001E+03 -.81864133E+02 0.16259926E+03 0.90613120E+02 0.0000E+00 0.0000E+00
       23  1    3    3    0    0 0.30500065E+02 -.11325745E+03 -.22231758E+03 0.26739084E+03 0.91188000E+02 0.0000E+00 0.9000E+01
      -13  1    4    4    0    0 0.64318508E+01 0.99514363E+02 -.26345587E+02 0.10314348E+03 0.10565837E+00 0.0000E+00 0.9000E+01
       13  1    4    4    0    0 0.20831663E+02 0.43256431E+01 -.55518546E+02 0.59455778E+02 0.10565837E+00 0.0000E+00 0.9000E+01
       23  1    3    3    0    0 -.57763579E+02 0.94174415E+01 -.69924018E+03 0.70758562E+03 0.91188000E+02 0.0000E+00 0.9000E+01
#aMCatNLO 1  0  0  1  1 0.15423189D+03 0.00000000D+00  -5  7  0 0.00000000D+00 0.00000000D+00 0.00000000D+00 0.00000000D+00 0.00000000D+00
  <mgrwgt>
 0.4729951814D-03    3    2    0
 0.267965955131178D+03 0.000000000000000D+00 0.000000000000000D+00 0.267965955131178D+03
 0.267965955131178D+03 0.000000000000000D+00 0.000000000000000D+00 -.267965955131178D+03
 0.151323325804842D+03 0.305000651393656D+02 -.113257448283261D+03 0.287401117516510D+02
 0.169607164524661D+03 0.643183246801950D+01 0.995144931693372D+02 0.137193612965213D+03
 0.222543496727138D+02 0.208316815972299D+02 0.432551425191697D+01 -.652587523965257D+01
 0.192747070260138D+03 -.577635792046151D+02 0.941744086200683D+01 -.159407849477211D+03
 0.000000000000000D+00 0.000000000000000D+00 -.000000000000000D+00 -.000000000000000D+00
 0.283320304964340D+03 0.000000000000000D+00 0.000000000000000D+00 0.283320304964340D+03
 0.160664331975787D+04 0.000000000000000D+00 0.000000000000000D+00 -.160664331975787D+04
 0.130817248504991D+03 -.125179105932423D+01 -.892767615791640D+02 0.287401117516510D+02
 0.192273626655645D+03 -.342939187669198D+02 0.130272741601892D+03 0.137193612965213D+03
 0.191238732826622D+02 0.161750121754344D+02 0.784247810404083D+01 -.652587523965257D+01
 0.215468395865411D+03 -.103703794681265D+03 0.441139293939029D+02 -.159407849477211D+03
 0.133228048041350D+04 0.123074492332075D+03 -.929523875206721D+02 -.132332301479353D+04
0.279713238853D-05 0.000000000000D+00 0.000000000000D+00 0.384185349341D-06 0.000000000000D+00  7 -2 2 23 -13 13 23 21 0 0.10319525D-01 0.16469212D+00 0.35706087D+05 0.35706087D+05 0.35706087D+05 0.11603840D+01  1  2  2  1  7  1       -2 0.464484314026D-03 0.100000000000D+01
-.132340816215D-06 0.000000000000D+00 -.107417248738D-07 0.384185349341D-06 0.000000000000D+00  7 -2 2 23 -13 13 23 21 2 0.10319525D-01 0.16469212D+00 0.35706087D+05 0.35706087D+05 0.35706087D+05 0.11603840D+01  1  2  3  1  7  1       -2 -.295907058719D-04 0.100000000000D+01
0.170404630421D-06 0.000000000000D+00 0.000000000000D+00 0.384185349341D-06 0.000000000000D+00  7 -2 2 23 -13 13 23 21 2 0.10319525D-01 0.16469212D+00 0.35706087D+05 0.35706087D+05 0.35706087D+05 0.11603840D+01  1  2 15  1  7  1       -2 0.381015732125D-04 0.100000000000D+01
  </mgrwgt>
  </event>
  <event>
  8     66 0.53686478E-06 0.34189533E+03 0.75467711E-02 0.86662399E-01
       -2 -1    0    0    0  501 0.00000000E+00 0.00000000E+00 0.66564306E+03 0.66564314E+03 0.32000000E+00 0.0000E+00 0.9000E+01
        2 -1    0    0  501    0 0.00000000E+00 0.00000000E+00 -.16676637E+04 0.16676637E+04 0.32000000E+00 0.0000E+00 0.9000E+01
       25  2    1    2    0    0 -.36884000E+03 0.93892443E+03 -.28015260E+03 0.10895080E+04 0.30152975E+03 0.0000E+00 0.0000E+00
       23  2    1    2    0    0 0.36884000E+03 -.93892443E+03 -.72186799E+03 0.12437988E+04 0.91214270E+02 0.0000E+00 0.0000E+00
       23  1    3    3    0    0 -.31551734E+03 0.60444236E+03 -.99854955E+02 0.69511727E+03 0.91188000E+02 0.0000E+00 0.9000E+01
      -11  1    4    4    0    0 0.66936435E+02 -.22503580E+03 -.20946456E+03 0.31463789E+03 0.51099893E-03 0.0000E+00 0.9000E+01
       11  1    4    4    0    0 0.30190357E+03 -.71388863E+03 -.51240343E+03 0.92916092E+03 0.51099893E-03 0.0000E+00 0.9000E+01
       23  1    3    3    0    0 -.53322661E+02 0.33448207E+03 -.18029764E+03 0.39439074E+03 0.91188000E+02 0.0000E+00 0.9000E+01
#aMCatNLO 1  0  0  2  1 0.10380263D+03 0.00000000D+00  -5  7  0 0.00000000D+00 0.00000000D+00 0.00000000D+00 0.00000000D+00 0.00000000D+00
  <mgrwgt>
 0.4039513013D-03    9    2    0
 0.105359805690719D+04 0.000000000000000D+00 0.000000000000000D+00 0.105359805690719D+04
 0.105359805690719D+04 0.000000000000000D+00 0.000000000000000D+00 -.105359805690719D+04
 0.722222835281928D+03 -.315517340271248D+03 0.604442359977874D+03 0.219974575601826D+03
 0.248794557306583D+03 0.669364347173173D+02 -.225035799881015D+03 -.823233516362473D+02
 0.785203959961979D+03 0.301903566477725D+03 -.713888634365189D+03 -.125548847116204D+03
 0.350974761263887D+03 -.533226609237950D+02 0.334482074268330D+03 -.121023768493742D+02
 0.000000000000000D+00 0.000000000000000D+00 -.000000000000000D+00 -.000000000000000D+00
 0.109194413912021D+04 0.000000000000000D+00 0.000000000000000D+00 0.109194413912021D+04
 0.112754505953568D+04 0.000000000000000D+00 0.000000000000000D+00 -.112754505953568D+04
 0.756023405827378D+03 -.325644784670630D+03 0.639392523509968D+03 0.219974575601826D+03
 0.237531034907694D+03 0.636046248617070D+02 -.213537607966130D+03 -.823233516362473D+02
 0.748239514570663D+03 0.291397966601299D+03 -.677633443104281D+03 -.125548847116204D+03
 0.367957321060382D+03 -.582480546019197D+02 0.351479779486133D+03 -.121023768493742D+02
 0.109737922289771D+03 0.288902478095438D+02 -.997012519256898D+02 -.356009204154756D+02
0.190042879698D-03 0.000000000000D+00 0.000000000000D+00 0.878394741044D-06 0.000000000000D+00  7 -2 2 23 -11 11 23 21 0 0.10240663D+00 0.25656365D+00 0.10491448D+07 0.10491448D+07 0.10491448D+07 0.10464798D+01  1  2  2  2  7  2        2 0.183712483044D-03 0.100000000000D+01
-.105477124255D-04 0.000000000000D+00 -.729814697480D-06 0.878394741044D-06 0.000000000000D+00  7 -2 2 23 -11 11 23 21 2 0.10240663D+00 0.25656365D+00 0.10491448D+07 0.10491448D+07 0.10491448D+07 0.10464798D+01  1  2  3  2  7  2        2 -.111662426979D-04 0.100000000000D+01
0.116005845635D-04 0.000000000000D+00 0.000000000000D+00 0.878394741044D-06 0.000000000000D+00  7 -2 2 23 -11 11 23 21 2 0.10240663D+00 0.25656365D+00 0.10491448D+07 0.10491448D+07 0.10491448D+07 0.10464798D+01  1  2 15  2  7  2        2 0.122808564974D-04 0.100000000000D+01
0.419821377832D-03 0.000000000000D+00 0.000000000000D+00 0.878394741044D-06 0.000000000000D+00  7 -2 2 23 -11 11 23 21 2 0.10240663D+00 0.27898596D+00 0.11613454D+07 0.11613454D+07 0.11613454D+07 0.10435669D+01  1  2 12  2  7  2        2 0.364429372228D-03 0.100000000000D+01
-.390490935675D-03 0.000000000000D+00 0.000000000000D+00 0.878394741044D-06 0.000000000000D+00  7 -2 2 23 -11 11 23 21 2 0.10240663D+00 0.25656365D+00 0.10491448D+07 0.10491448D+07 0.10491448D+07 0.10464798D+01  1  2  4  2  7  2        2 -.413389783792D-03 0.100000000000D+01
-.137368969867D-02 0.000000000000D+00 -.244911066618D-03 0.878394741044D-06 0.000000000000D+00  7 -2 2 23 -11 11 23 21 2 0.10240663D+00 0.27952393D+00 0.10491448D+07 0.10491448D+07 0.10491448D+07 0.10464798D+01  1  2  5  2  7  2        2 -.120130874672D-02 0.100000000000D+01
0.139046757355D-02 0.000000000000D+00 0.244014204970D-03 0.878394741044D-06 0.000000000000D+00  7 -2 2 23 -11 11 23 21 2 0.10240663D+00 0.25656365D+00 0.10491448D+07 0.10491448D+07 0.10491448D+07 0.10464798D+01  1  2  6  2  7  2        2 0.147200622879D-02 0.100000000000D+01
0.584351137655D-05 0.000000000000D+00 0.000000000000D+00 0.878394741044D-06 0.000000000000D+00  7 -2 21 23 -11 11 23 -2 2 0.10240663D+00 0.27898596D+00 0.11613454D+07 0.11613454D+07 0.11613454D+07 0.10435669D+01  1  2 12  4  7  2        2 0.115585612013D-05 0.100000000000D+01
-.188980622748D-04 0.000000000000D+00 -.347708285722D-05 0.878394741044D-06 0.000000000000D+00  7 -2 21 23 -11 11 23 -2 2 0.10240663D+00 0.27952393D+00 0.10491448D+07 0.10491448D+07 0.10491448D+07 0.10464798D+01  1  2  5  4  7  2        2 -.376872221115D-05 0.100000000000D+01
  </mgrwgt>
  </event>
  <event>
  8     66 0.53686478E-06 0.49057821E+03 0.75467711E-02 0.89226302E-01
       -2 -1    0    0    0  501 0.00000000E+00 0.00000000E+00 0.64591785E+03 0.64591793E+03 0.32000000E+00 0.0000E+00 0.9000E+01
        2 -1    0    0  501    0 0.00000000E+00 0.00000000E+00 -.43584914E+03 0.43584925E+03 0.32000000E+00 0.0000E+00 0.9000E+01
       25  2    1    2    0    0 -.82714890E+02 0.46031351E+03 -.10782082E+02 0.55707976E+03 0.30247533E+03 0.0000E+00 0.0000E+00
       23  2    1    2    0    0 0.82714890E+02 -.46031351E+03 0.22085080E+03 0.52468742E+03 0.88269671E+02 0.0000E+00 0.0000E+00
       23  1    3    3    0    0 -.77909986E+02 0.16962292E+03 0.10294621E+03 0.23185140E+03 0.91188000E+02 0.0000E+00 0.9000E+01
      -11  1    4    4    0    0 0.79071368E+02 -.37112201E+03 0.14063557E+03 0.40467541E+03 0.51099893E-03 0.0000E+00 0.9000E+01
       11  1    4    4    0    0 0.36435223E+01 -.89191504E+02 0.80215231E+02 0.12001201E+03 0.51099893E-03 0.0000E+00 0.9000E+01
       23  1    3    3    0    0 -.48049040E+01 0.29069060E+03 -.11372829E+03 0.32522836E+03 0.91188000E+02 0.0000E+00 0.9000E+01
#aMCatNLO 1  0  0  1  1 0.54087478D+03 0.00000000D+00  -5  7  0 0.00000000D+00 0.00000000D+00 0.00000000D+00 0.00000000D+00 0.00000000D+00
  <mgrwgt>
 0.4395031753D-03    3    2    0
 0.530587264733889D+03 0.000000000000000D+00 0.000000000000000D+00 0.530587264733889D+03
 0.530587264733889D+03 0.000000000000000D+00 0.000000000000000D+00 -.530587264733889D+03
 0.215971506756555D+03 -.779099860577253D+02 0.169622916097315D+03 0.590469372095177D+02
 0.384688322567141D+03 0.790713677077330D+02 -.371122009073604D+03 0.632556614819656D+02
 0.106461607142647D+03 0.364352231102832D+01 -.891915041626426D+02 0.580144303235818D+02
 0.354053093001436D+03 -.480490396103603D+01 0.290690597138931D+03 -.180317029015065D+03
 0.000000000000000D+00 -.000000000000000D+00 0.000000000000000D+00 -.000000000000000D+00
 0.829609440273208D+03 0.000000000000000D+00 0.000000000000000D+00 0.829609440273208D+03
 0.907978927557452D+03 0.000000000000000D+00 0.000000000000000D+00 -.907978927557452D+03
 0.188571922163312D+03 0.178257450174223D+02 0.153100687474340D+03 0.590469372095177D+02
 0.503660225068294D+03 0.289300212320286D+03 -.407403645979956D+03 0.632556614819656D+02
 0.129054195233980D+03 0.593786446944959D+02 -.988103624928342D+02 0.580144303235818D+02
 0.369779107242170D+03 0.166490932065955D+03 0.261128082357693D+03 -.180317029015065D+03
 0.546522918122904D+03 -.532995534098159D+03 0.919852386407565D+02 -.783694872842441D+02
0.581691471203D-04 0.000000000000D+00 0.000000000000D+00 0.135497539230D-07 0.000000000000D+00  7 -2 2 23 -11 11 23 21 0 0.99371993D-01 0.67053729D-01 0.24066698D+06 0.24066698D+06 0.24066698D+06 0.10917043D+01  1  2  2  1  7  1       -2 0.436483701235D-03 0.100000000000D+01
-.320746852507D-05 0.000000000000D+00 -.223384841230D-06 0.135497539230D-07 0.000000000000D+00  7 -2 2 23 -11 11 23 21 2 0.99371993D-01 0.67053729D-01 0.24066698D+06 0.24066698D+06 0.24066698D+06 0.10917043D+01  1  2  3  1  7  1       -2 -.286845351711D-04 0.100000000000D+01
0.354510230938D-05 0.000000000000D+00 0.000000000000D+00 0.135497539230D-07 0.000000000000D+00  7 -2 2 23 -11 11 23 21 2 0.99371993D-01 0.67053729D-01 0.24066698D+06 0.24066698D+06 0.24066698D+06 0.10917043D+01  1  2 15  1  7  1       -2 0.317040092782D-04 0.100000000000D+01
  </mgrwgt>
  </event>
  <event>
  8     66 0.53686478E-06 0.44411671E+03 0.75467711E-02 0.92628578E-01
       -2 -1    0    0    0  501 0.00000000E+00 0.00000000E+00 0.41299354E+03 0.41299367E+03 0.32000000E+00 0.0000E+00 0.9000E+01
        2 -1    0    0  501    0 0.00000000E+00 0.00000000E+00 -.13668184E+04 0.13668185E+04 0.32000000E+00 0.0000E+00 0.9000E+01
       25  2    1    2    0    0 0.25065089E+03 -.44576051E+03 -.10920480E+04 0.12425445E+04 0.29969943E+03 0.0000E+00 0.0000E+00
       23  2    1    2    0    0 -.25065089E+03 0.44576051E+03 0.13822307E+03 0.53726765E+03 0.89569066E+02 0.0000E+00 0.0000E+00
       23  1    3    3    0    0 0.49135646E+01 -.15404463E+03 -.51154541E+03 0.54198510E+03 0.91188000E+02 0.0000E+00 0.9000E+01
      -13  1    4    4    0    0 -.48359616E+02 0.11318068E+03 0.71441033E+02 0.14231076E+03 0.10565837E+00 0.0000E+00 0.9000E+01
       13  1    4    4    0    0 -.20229127E+03 0.33257982E+03 0.66782038E+02 0.39495690E+03 0.10565837E+00 0.0000E+00 0.9000E+01
       23  1    3    3    0    0 0.24573732E+03 -.29171588E+03 -.58050255E+03 0.70055938E+03 0.91188000E+02 0.0000E+00 0.9000E+01
#aMCatNLO 1  0  0  1  2 0.11226229D+03 0.00000000D+00  -5  7  0 0.00000000D+00 0.00000000D+00 0.00000000D+00 0.00000000D+00 0.00000000D+00
  <mgrwgt>
 0.3748352320D-03    9    2    0
 0.751323719229660D+03 0.000000000000000D+00 0.000000000000000D+00 0.751323719229660D+03
 0.751323719229660D+03 0.000000000000000D+00 0.000000000000000D+00 -.751323719229660D+03
 0.317244686031913D+03 0.491356456743449D+01 -.154044625412788D+03 -.261868382467533D+03
 0.213907816031676D+03 -.483594013489058D+02 0.113180378981071D+03 0.174951775853570D+03
 0.510198231552210D+03 -.202291485187357D+03 0.332580129323370D+03 0.329804257217741D+03
 0.461296704843522D+03 0.245737321968828D+03 -.291715882891654D+03 -.242887650603778D+03
 0.000000000000000D+00 -.000000000000000D+00 0.000000000000000D+00 0.000000000000000D+00
 0.813084133446392D+03 0.000000000000000D+00 0.000000000000000D+00 0.813084133446392D+03
 0.806222785457706D+03 0.000000000000000D+00 0.000000000000000D+00 -.806222785457706D+03
 0.319985271767209D+03 0.284833320963454D+02 -.157127250534277D+03 -.261868382467533D+03
 0.209824991603335D+03 -.326864348662498D+02 0.111130554766707D+03 0.174951775853570D+03
 0.493412364522647D+03 -.165170084742318D+03 0.327725123374908D+03 0.329804257217741D+03
 0.483612514615033D+03 0.280687484568659D+03 -.296286918609262D+03 -.242887650603778D+03
 0.112471776395874D+03 -.111314297056437D+03 0.145584910019242D+02 0.686134798868593D+01
0.487237199662D-04 0.000000000000D+00 0.000000000000D+00 0.117717135436D-05 0.000000000000D+00  7 -2 2 23 -13 13 23 21 0 0.63537481D-01 0.21027977D+00 0.29354811D+06 0.29354811D+06 0.29354811D+06 0.10852511D+01  1  2  2  1  7  1       -2 0.219150009347D-03 0.100000000000D+01
-.235508554767D-05 0.000000000000D+00 -.187111913920D-06 0.117717135436D-05 0.000000000000D+00  7 -2 2 23 -13 13 23 21 2 0.63537481D-01 0.21027977D+00 0.29354811D+06 0.29354811D+06 0.29354811D+06 0.10852511D+01  1  2  3  1  7  1       -2 -.124757948361D-04 0.100000000000D+01
0.298740454540D-05 0.000000000000D+00 0.000000000000D+00 0.117717135436D-05 0.000000000000D+00  7 -2 2 23 -13 13 23 21 2 0.63537481D-01 0.21027977D+00 0.29354811D+06 0.29354811D+06 0.29354811D+06 0.10852511D+01  1  2 15  1  7  1       -2 0.158254320051D-04 0.100000000000D+01
0.569223653254D-04 0.000000000000D+00 0.000000000000D+00 0.117717135436D-05 0.000000000000D+00  7 -2 2 23 -13 13 23 21 2 0.70906012D-01 0.21027977D+00 0.35830942D+06 0.35830942D+06 0.35830942D+06 0.10788907D+01  1  2 12  1  7  1       -2 0.233470505909D-03 0.100000000000D+01
-.472828409776D-04 0.000000000000D+00 0.000000000000D+00 0.117717135436D-05 0.000000000000D+00  7 -2 2 23 -13 13 23 21 2 0.63537481D-01 0.21027977D+00 0.29354811D+06 0.29354811D+06 0.29354811D+06 0.10852511D+01  1  2  4  1  7  1       -2 -.250475412194D-03 0.100000000000D+01
-.156072866921D-03 0.000000000000D+00 -.438966309408D-04 0.117717135436D-05 0.000000000000D+00  7 -2 2 23 -13 13 23 21 2 0.73491830D-01 0.21027977D+00 0.29354811D+06 0.29354811D+06 0.29354811D+06 0.10852511D+01  1  2  5  1  7  1       -2 -.604559179565D-03 0.100000000000D+01
0.161212130116D-03 0.000000000000D+00 0.434357654262D-04 0.117717135436D-05 0.000000000000D+00  7 -2 2 23 -13 13 23 21 2 0.63537481D-01 0.21027977D+00 0.29354811D+06 0.29354811D+06 0.29354811D+06 0.10852511D+01  1  2  6  1  7  1       -2 0.854002718673D-03 0.100000000000D+01
0.100120253853D-05 0.000000000000D+00 0.000000000000D+00 0.117717135436D-05 0.000000000000D+00  7 21 2 23 -13 13 23 2 2 0.70906012D-01 0.21027977D+00 0.35830942D+06 0.35830942D+06 0.35830942D+06 0.10788907D+01  1  2 12  3  7  1       -2 0.399864971352D-04 0.100000000000D+01
-.318551518055D-05 0.000000000000D+00 -.977112592682D-06 0.117717135436D-05 0.000000000000D+00  7 21 2 23 -13 13 23 2 2 0.73491830D-01 0.21027977D+00 0.29354811D+06 0.29354811D+06 0.29354811D+06 0.10852511D+01  1  2  5  3  7  1       -2 -.120089544499D-03 0.100000000000D+01
  </mgrwgt>
  </event>
  <event>
  8     66 0.53686478E-06 0.37749307E+03 0.75467711E-02 0.91072171E-01
       -2 -1    0    0    0  501 0.00000000E+00 0.00000000E+00 0.23648503E+03 0.23648525E+03 0.32000000E+00 0.0000E+00 0.9000E+01
        2 -1    0    0  501    0 0.00000000E+00 0.00000000E+00 -.65861107E+03 0.65861114E+03 0.32000000E+00 0.0000E+00 0.9000E+01
       25  2    1    2    0    0 -.27584562E+03 0.16210606E+03 -.33062332E+03 0.55069784E+03 0.30263368E+03 0.0000E+00 0.0000E+00
       23  2    1    2    0    0 0.27584562E+03 -.16210606E+03 -.91502715E+02 0.34439856E+03 0.88704220E+02 0.0000E+00 0.0000E+00
       23  1    3    3    0    0 -.21793377E+03 -.43920054E+01 -.13551735E+03 0.27238690E+03 0.91188000E+02 0.0000E+00 0.9000E+01
      -11  1    4    4    0    0 0.25637602E+03 -.15449353E+03 -.57979055E+02 0.30489094E+03 0.51099893E-03 0.0000E+00 0.9000E+01
       11  1    4    4    0    0 0.19469601E+02 -.76125248E+01 -.33523660E+02 0.39507615E+02 0.51099893E-03 0.0000E+00 0.9000E+01
       23  1    3    3    0    0 -.57911851E+02 0.16649806E+03 -.19510597E+03 0.27831094E+03 0.91188000E+02 0.0000E+00 0.9000E+01
#aMCatNLO 1  0  0  1  1 0.48385234D+03 0.00000000D+00  -5  7  0 0.00000000D+00 0.00000000D+00 0.00000000D+00 0.00000000D+00 0.00000000D+00
  <mgrwgt>
 0.4484494672D-03    3    2    0
 0.394654016428744D+03 0.000000000000000D+00 0.000000000000000D+00 0.394654016428744D+03
 0.394654016428744D+03 0.000000000000000D+00 0.000000000000000D+00 -.394654016428744D+03
 0.236418638305607D+03 -.217933773391474D+03 -.439200538529056D+01 -.800636611245593D+01
 0.314746976902760D+03 0.256376023526259D+03 -.154493533315029D+03 0.973074621708293D+02
 0.268740636830728D+02 0.194696005822972D+02 -.761252475250532D+01 -.168878482614026D+02
 0.211268353966050D+03 -.579118507170824D+02 0.166498063452825D+03 -.724132477969708D+02
 0.000000000000000D+00 -.000000000000000D+00 -.000000000000000D+00 -.000000000000000D+00
 0.556357899191890D+03 0.000000000000000D+00 0.000000000000000D+00 0.556357899191890D+03
 0.108918319031230D+04 0.000000000000000D+00 0.000000000000000D+00 -.108918319031230D+04
 0.167142029903627D+03 -.125391081941271D+03 0.619207678212697D+02 -.800636611245593D+01
 0.441764424636798D+03 0.429855767035202D+03 -.301841717980140D+02 0.973074621708293D+02
 0.385049327960776D+02 0.344620138056716D+02 0.313050078869188D+01 -.168878482614026D+02
 0.278396505446197D+03 0.543758610653254D+02 0.246959409979765D+03 -.724132477969708D+02
 0.719733196721485D+03 -.393302559964928D+03 -.281826506791712D+03 -.532825291120405D+03
0.115763916274D-04 0.000000000000D+00 0.000000000000D+00 0.959014565046D-08 0.000000000000D+00  7 -2 2 23 -11 11 23 21 0 0.36382336D-01 0.10132480D+00 0.14250102D+06 0.14250102D+06 0.14250102D+06 0.11093139D+01  1  2  2  1  7  1       -2 0.444590403360D-03 0.100000000000D+01
-.641587373799D-06 0.000000000000D+00 -.444563919830D-07 0.959014565046D-08 0.000000000000D+00  7 -2 2 23 -11 11 23 21 2 0.36382336D-01 0.10132480D+00 0.14250102D+06 0.14250102D+06 0.14250102D+06 0.11093139D+01  1  2  3  1  7  1       -2 -.303215621537D-04 0.100000000000D+01
0.723243015504D-06 0.000000000000D+00 0.000000000000D+00 0.959014565046D-08 0.000000000000D+00  7 -2 2 23 -11 11 23 21 2 0.36382336D-01 0.10132480D+00 0.14250102D+06 0.14250102D+06 0.14250102D+06 0.11093139D+01  1  2 15  1  7  1       -2 0.341806259636D-04 0.100000000000D+01
  </mgrwgt>
  </event>
  <event>
  7     66 0.53686478E-06 0.27474575E+03 0.75467711E-02 0.10015737E+00
       -2 -1    0    0    0  501 0.00000000E+00 0.00000000E+00 0.77461715E+03 0.77461721E+03 0.32000000E+00 0.0000E+00 0.9000E+01
        2 -1    0    0  501    0 0.00000000E+00 0.00000000E+00 -.17341417E+03 0.17341447E+03 0.32000000E+00 0.0000E+00 0.9000E+01
       25  2    1    2    0    0 0.13573844E+03 0.10269157E+03 0.91148763E+02 0.36207141E+03 0.30629581E+03 0.0000E+00 0.0000E+00
       23  1    3    3    0    0 0.80551828E+02 0.10889642E+02 0.16333280E+03 0.20396087E+03 0.91188000E+02 0.0000E+00 0.9000E+01
      -13  1    1    2    0    0 -.19983254E+03 -.56510823E+02 0.33912342E+03 0.39765717E+03 0.10565837E+00 0.0000E+00 0.9000E+01
       13  1    1    2    0    0 0.64094094E+02 -.46180746E+02 0.17093079E+03 0.18830311E+03 0.10565837E+00 0.0000E+00 0.9000E+01
       23  1    3    3    0    0 0.55186616E+02 0.91801927E+02 -.72184035E+02 0.15811054E+03 0.91188000E+02 0.0000E+00 0.9000E+01
#aMCatNLO 1  0  0  2  2 0.83284072D+02 0.00000000D+00  -5  7  0 0.00000000D+00 0.00000000D+00 0.00000000D+00 0.00000000D+00 0.00000000D+00
  <mgrwgt>
 0.5691424936D-03    4    2    0
 0.366510250318243D+03 0.000000000000000D+00 0.000000000000000D+00 0.366510250318243D+03
 0.366510250318243D+03 0.000000000000000D+00 0.000000000000000D+00 -.366510250318243D+03
 0.129826329488625D+03 0.805529302997178D+02 0.108905218129418D+02 0.439573252059260D+02
 0.236159084106026D+03 -.199829498058309D+03 -.565133981327864D+02 0.112452303413698D+03
 0.103340339002595D+03 0.640876371412443D+02 -.461807562789393D+02 0.666283586795350D+02
 0.263694748039241D+03 0.551889306173466D+02 0.918036325987839D+02 -.223037987299159D+03
 0.000000000000000D+00 0.000000000000000D+00 0.000000000000000D+00 0.000000000000000D+00
 0.494838931259457D+03 0.000000000000000D+00 0.000000000000000D+00 0.494838931259457D+03
 0.382633882875431D+03 0.000000000000000D+00 0.000000000000000D+00 -.382633882875431D+03
 0.128300034719360D+03 0.787422509253412D+02 -.361373005909977D+01 0.439573252059260D+02
 0.246862452779965D+03 -.203217749920542D+03 -.836546242997116D+02 0.112452303413698D+03
 0.108309740935855D+03 0.626029750242785D+02 -.580734820668852D+02 0.666283586795350D+02
 0.254264371582881D+03 0.515556020437709D+02 0.626992458637393D+02 -.223037987299159D+03
 0.139736214116827D+03 0.103169219271513D+02 0.826425905619573D+02 0.112205048384026D+03
0.471887113455D-04 0.000000000000D+00 0.000000000000D+00 0.123027620707D-11 0.000000000000D+00  7 -2 2 23 -13 13 23 21 0 0.11917190D+00 0.26679131D-01 0.75485225D+05 0.75485225D+05 0.75485225D+05 0.11318848D+01  1  2  2  2  7  2        2 0.647284590918D-03 0.100000000000D+01
-.235688167476D-05 0.000000000000D+00 -.181217076640D-06 0.123027620707D-11 0.000000000000D+00  7 -2 2 23 -13 13 23 21 2 0.11917190D+00 0.26679131D-01 0.75485225D+05 0.75485225D+05 0.75485225D+05 0.11318848D+01  1  2  3  2  7  2        2 -.414189818796D-04 0.100000000000D+01
0.290089545731D-05 0.000000000000D+00 0.000000000000D+00 0.123027620707D-11 0.000000000000D+00  7 -2 2 23 -13 13 23 21 2 0.11917190D+00 0.26679131D-01 0.75485225D+05 0.75485225D+05 0.75485225D+05 0.11318848D+01  1  2 15  2  7  2        2 0.509792823575D-04 0.100000000000D+01
-.499056627647D-05 0.000000000000D+00 0.000000000000D+00 0.123027620707D-11 0.000000000000D+00  7 -2 2 23 -13 13 23 21 2 0.11917190D+00 0.26679131D-01 0.75485225D+05 0.75485225D+05 0.75485225D+05 0.11318848D+01  1  2  4  2  7  2        2 -.877023977858D-04 0.100000000000D+01
  </mgrwgt>
  </event>
  <event>
  8     66 0.53686478E-06 0.21383938E+03 0.75467711E-02 0.82085346E-01
       -2 -1    0    0    0  501 0.00000000E+00 0.00000000E+00 0.12304482E+03 0.12304524E+03 0.32000000E+00 0.0000E+00 0.9000E+01
        2 -1    0    0  501    0 0.00000000E+00 0.00000000E+00 -.56054192E+03 0.56054201E+03 0.32000000E+00 0.0000E+00 0.9000E+01
       25  2    1    2    0    0 0.22399363E+02 0.15827498E+03 -.25849571E+03 0.42734991E+03 0.30042505E+03 0.0000E+00 0.0000E+00
       23  2    1    2    0    0 -.22399363E+02 -.15827498E+03 -.17900139E+03 0.25623734E+03 0.89796316E+02 0.0000E+00 0.0000E+00
       23  1    3    3    0    0 0.44867483E+02 0.92632484E+02 -.27890778E+03 0.31096410E+03 0.91188000E+02 0.0000E+00 0.9000E+01
      -11  1    4    4    0    0 -.62312779E+01 -.15926617E+03 -.17947375E+03 0.24003202E+03 0.51099893E-03 0.0000E+00 0.9000E+01
       11  1    4    4    0    0 -.16168085E+02 0.99119046E+00 0.47236414E+00 0.16205325E+02 0.51099893E-03 0.0000E+00 0.9000E+01
       23  1    3    3    0    0 -.22468119E+02 0.65642496E+02 0.20412068E+02 0.11638581E+03 0.91188000E+02 0.0000E+00 0.9000E+01
#aMCatNLO 1  0  0  1  2 0.17773840D+04 0.00000000D+00  -5  7  0 0.00000000D+00 0.00000000D+00 0.00000000D+00 0.00000000D+00 0.00000000D+00
  <mgrwgt>
 0.3019380823D-03    5    2    0
 0.262625122251899D+03 0.000000000000000D+00 0.000000000000000D+00 0.262625122251899D+03
 0.262625122251899D+03 0.000000000000000D+00 0.000000000000000D+00 -.262625122251899D+03
 0.172393536691409D+03 0.448674827950579D+02 0.926324843293501D+02 -.103973131065580D+03
 0.162900602971623D+03 -.623127787347970D+01 -.159266170490766D+03 -.336461671188287D+02
 0.214838773702917D+02 -.161680854642617D+02 0.991190458948928D+00 0.141126730549583D+02
 0.168472227470474D+03 -.224681194573164D+02 0.656424957024670D+02 0.123506625129450D+03
 0.000000000000000D+00 -.000000000000000D+00 0.000000000000000D+00 0.000000000000000D+00
 0.613836824882828D+04 0.000000000000000D+00 0.000000000000000D+00 0.613836824882828D+04
 0.107822425508629D+04 0.000000000000000D+00 0.000000000000000D+00 -.107822425508629D+04
 0.310950671791399D+03 0.797105840662840D+02 -.266853667293058D+03 -.103973131065580D+03
 0.110919217536122D+04 0.854707777712464D+02 -.110538227028840D+04 -.336461671188287D+02
 0.671903527754483D+02 -.977577719431394D+01 -.649600657756762D+02 0.141126730549583D+02
 0.366037205494841D+03 0.160633576481935D+02 -.331897674822636D+03 0.123506625129450D+03
 0.536322209849167D+04 -.171468942291410D+03 0.176909367817977D+04 0.506014399374200D+04
0.209185553861D-05 0.000000000000D+00 0.000000000000D+00 0.742746769816D-07 0.000000000000D+00  7 -2 2 23 -11 11 23 21 0 0.18930012D-01 0.86237258D-01 0.45727282D+05 0.45727282D+05 0.45727282D+05 0.11507235D+01  1  2  2  1  7  1       -2 0.298711550100D-03 0.100000000000D+01
-.110246941103D-06 0.000000000000D+00 -.803327606648D-08 0.742746769816D-07 0.000000000000D+00  7 -2 2 23 -11 11 23 21 2 0.18930012D-01 0.86237258D-01 0.45727282D+05 0.45727282D+05 0.45727282D+05 0.11507235D+01  1  2  3  1  7  1       -2 -.208462915095D-04 0.100000000000D+01
0.127247852451D-06 0.000000000000D+00 0.000000000000D+00 0.742746769816D-07 0.000000000000D+00  7 -2 2 23 -11 11 23 21 2 0.18930012D-01 0.86237258D-01 0.45727282D+05 0.45727282D+05 0.45727282D+05 0.11507235D+01  1  2 15  1  7  1       -2 0.240609471755D-04 0.100000000000D+01
0.104748073684D-04 0.000000000000D+00 -.502669329309D-05 0.742746769816D-07 0.000000000000D+00  7 -2 2 23 -11 11 23 21 2 0.69920228D+00 0.86237258D-01 0.45727282D+05 0.45727282D+05 0.45727282D+05 0.11507235D+01  1  2  5  1  7  1       -2 0.805873852828D-08 0.100000000000D+01
0.207211583299D-05 0.000000000000D+00 -.173608665202D-05 0.742746769816D-07 0.000000000000D+00  7 21 2 23 -11 11 23 2 2 0.69920228D+00 0.86237258D-01 0.45727282D+05 0.45727282D+05 0.45727282D+05 0.11507235D+01  1  2  5  3  7  1       -2 0.381777427038D-08 0.100000000000D+01
  </mgrwgt>
  </event>
  <event>
  8     66 0.53686478E-06 0.27887482E+03 0.75467711E-02 0.10011976E+00
       -2 -1    0    0    0  501 0.00000000E+00 0.00000000E+00 0.76383981E+02 0.76384652E+02 0.32000000E+00 0.0000E+00 0.9000E+01
        2 -1    0    0  501    0 0.00000000E+00 0.00000000E+00 -.10590220E+04 0.10590221E+04 0.32000000E+00 0.0000E+00 0.9000E+01
       25  2    1    2    0    0 0.31358274E+02 -.18066463E+03 -.64979707E+03 0.73906414E+03 0.30059362E+03 0.0000E+00 0.0000E+00
       23  2    1    2    0    0 -.31358274E+02 0.18066463E+03 -.33284097E+03 0.39634257E+03 0.11261117E+03 0.0000E+00 0.0000E+00
       23  1    3    3    0    0 -.90366828E+01 0.44901949E+02 -.14586271E+03 0.17801413E+03 0.91188000E+02 0.0000E+00 0.9000E+01
      -11  1    4    4    0    0 0.28787659E+02 0.12091149E+03 -.24220459E+03 0.27223405E+03 0.51099893E-03 0.0000E+00 0.9000E+01
       11  1    4    4    0    0 -.60145933E+02 0.59753145E+02 -.90636379E+02 0.12410852E+03 0.51099893E-03 0.0000E+00 0.9000E+01
       23  1    3    3    0    0 0.40394956E+02 -.22556658E+03 -.50393435E+03 0.56105001E+03 0.91188000E+02 0.0000E+00 0.9000E+01
#aMCatNLO 1  0  0  1  2 0.70341797D+02 0.00000000D+00  -5  7  0 0.00000000D+00 0.00000000D+00 0.00000000D+00 0.00000000D+00 0.00000000D+00
  <mgrwgt>
 0.2092806032D-03    4    2    0
 0.284416465270050D+03 0.000000000000000D+00 0.000000000000000D+00 0.284416465270050D+03
 0.284416465270050D+03 0.000000000000000D+00 0.000000000000000D+00 -.284416465270050D+03
 0.103348770840000D+03 -.903668270256992D+01 0.449019482409649D+02 0.163667498312162D+02
 0.124987369979305D+03 0.287876579050614D+02 0.120911488653452D+03 -.131729009064384D+02
 0.911531156056771D+02 -.601459317705367D+02 0.597531463609955D+02 0.334801265833529D+02
 0.249343674115118D+03 0.403949565680452D+02 -.225566583255413D+03 -.366739755081308D+02
 0.000000000000000D+00 0.000000000000000D+00 0.000000000000000D+00 -.000000000000000D+00
 0.292613274076773D+03 0.000000000000000D+00 0.000000000000000D+00 0.292613274076773D+03
 0.491707336586185D+03 0.000000000000000D+00 0.000000000000000D+00 -.491707336586185D+03
 0.104723291303534D+03 -.217955060432998D+02 0.436898365037427D+02 0.163667498312162D+02
 0.120981370994254D+03 0.137050385418788D+02 0.119478612010368D+03 -.131729009064384D+02
 0.985528878115730D+02 -.717785621166853D+02 0.586480250343037D+02 0.334801265833529D+02
 0.248908107676351D+03 0.984252969443660D+01 -.228469120129319D+03 -.366739755081308D+02
 0.211154952877246D+03 0.700264999236697D+02 0.665264658090394D+01 -.199094062509412D+03
0.156259769909D-05 0.000000000000D+00 0.000000000000D+00 0.313511038712D-09 0.000000000000D+00  7 -2 2 23 -11 11 23 21 0 0.11751437D-01 0.16292652D+00 0.77771165D+05 0.77771165D+05 0.77771165D+05 0.11307933D+01  1  2  2  1  7  1       -2 0.215708746667D-03 0.100000000000D+01
-.867701179040D-07 0.000000000000D+00 -.600078660594D-08 0.313511038712D-09 0.000000000000D+00  7 -2 2 23 -11 11 23 21 2 0.11751437D-01 0.16292652D+00 0.77771165D+05 0.77771165D+05 0.77771165D+05 0.11307933D+01  1  2  3  1  7  1       -2 -.153164180131D-04 0.100000000000D+01
0.982320638201D-07 0.000000000000D+00 0.000000000000D+00 0.313511038712D-09 0.000000000000D+00  7 -2 2 23 -11 11 23 21 2 0.11751437D-01 0.16292652D+00 0.77771165D+05 0.77771165D+05 0.77771165D+05 0.11307933D+01  1  2 15  1  7  1       -2 0.173396485807D-04 0.100000000000D+01
-.478784740818D-07 0.000000000000D+00 0.000000000000D+00 0.313511038712D-09 0.000000000000D+00  7 -2 2 23 -11 11 23 21 2 0.11751437D-01 0.16292652D+00 0.77771165D+05 0.77771165D+05 0.77771165D+05 0.11307933D+01  1  2  4  1  7  1       -2 -.845137405113D-05 0.100000000000D+01
  </mgrwgt>
  </event>
  <event>
  8     66 0.53686478E-06 0.27811802E+03 0.75467711E-02 0.84620239E-01
       -2 -1    0    0    0  501 0.00000000E+00 0.00000000E+00 0.14890592E+03 0.14890626E+03 0.32000000E+00 0.0000E+00 0.9000E+01
        2 -1    0    0  501    0 0.00000000E+00 0.00000000E+00 -.95291789E+03 0.95291795E+03 0.32000000E+00 0.0000E+00 0.9000E+01
       25  2    1    2    0    0 -.49649683E+02 0.23046930E+03 -.75262075E+03 0.84387576E+03 0.30017848E+03 0.0000E+00 0.0000E+00
       23  2    1    2    0    0 0.49649683E+02 -.23046930E+03 -.51391229E+02 0.25794845E+03 0.91187451E+02 0.0000E+00 0.0000E+00
       23  1    3    3    0    0 0.26921910E+02 0.59925399E+02 -.75161894E+02 0.13520505E+03 0.91188000E+02 0.0000E+00 0.9000E+01
      -13  1    4    4    0    0 0.67342341E+01 -.43437946E+02 -.49292429E+02 0.66045135E+02 0.10565837E+00 0.0000E+00 0.9000E+01
       13  1    4    4    0    0 0.42915449E+02 -.18703136E+03 -.20987992E+01 0.19190331E+03 0.10565837E+00 0.0000E+00 0.9000E+01
       23  1    3    3    0    0 -.76571593E+02 0.17054390E+03 -.67745885E+03 0.70867072E+03 0.91188000E+02 0.0000E+00 0.9000E+01
#aMCatNLO 1  0  0  2  2 0.12951939D+04 0.00000000D+00  -5  7  0 0.00000000D+00 0.00000000D+00 0.00000000D+00 0.00000000D+00 0.00000000D+00
  <mgrwgt>
 0.4062896149D-03    3    2    0
 0.376689966346060D+03 0.000000000000000D+00 0.000000000000000D+00 0.376689966346060D+03
 0.376689966346060D+03 0.000000000000000D+00 0.000000000000000D+00 -.376689966346060D+03
 0.117525202442595D+03 0.269219095261519D+02 0.599253992271111D+02 0.343668325585887D+02
 0.439860231089101D+02 0.673418554948339D+01 -.434377527989558D+02 -.160704875455146D+01
 0.278420597164401D+03 0.429154974563155D+02 -.187031550986094D+03 0.201731226980840D+03
 0.313448109976212D+03 -.765715925319508D+02 0.170543904557939D+03 -.234491010784877D+03
 0.000000000000000D+00 -.000000000000000D+00 0.000000000000000D+00 0.000000000000000D+00
 0.231726145420979D+04 0.000000000000000D+00 0.000000000000000D+00 0.231726145420979D+04
 0.101663409239750D+04 0.000000000000000D+00 0.000000000000000D+00 -.101663409239750D+04
 0.243759427277125D+03 0.223286712993898D+03 -.808527443829786D+01 0.343668325585887D+02
 0.122861796418247D+03 0.974190267947068D+02 -.748463200951891D+02 -.160704875455146D+01
 0.728688523413381D+03 0.590297722618373D+03 -.376616615255807D+03 0.201731226980840D+03
 0.403058927720213D+03 0.312863086019600D+03 0.356637510414587D+02 -.234491010784877D+03
 0.183552687177833D+04 -.122386654842658D+04 0.423884458747835D+03 0.130062736181229D+04
0.732797607305D-05 0.000000000000D+00 0.000000000000D+00 0.102268509331D-05 0.000000000000D+00  7 -2 2 23 -13 13 23 21 0 0.22908633D-01 0.14660278D+00 0.77349633D+05 0.77349633D+05 0.77349633D+05 0.11309919D+01  1  2  2  2  7  2        2 0.399611055001D-03 0.100000000000D+01
-.361552466094D-06 0.000000000000D+00 -.281413576209D-07 0.102268509331D-05 0.000000000000D+00  7 -2 2 23 -13 13 23 21 2 0.22908633D-01 0.14660278D+00 0.77349633D+05 0.77349633D+05 0.77349633D+05 0.11309919D+01  1  2  3  2  7  2        2 -.252199238475D-04 0.100000000000D+01
0.457296205362D-06 0.000000000000D+00 0.000000000000D+00 0.102268509331D-05 0.000000000000D+00  7 -2 2 23 -13 13 23 21 2 0.22908633D-01 0.14660278D+00 0.77349633D+05 0.77349633D+05 0.77349633D+05 0.11309919D+01  1  2 15  2  7  2        2 0.318984837791D-04 0.100000000000D+01
  </mgrwgt>
  </event>
  <event>
  9     66 0.53686478E-06 0.26738101E+03 0.75467711E-02 0.97327901E-01
       21 -1    0    0  502  501 0.00000000E+00 0.00000000E+00 0.41127652E+02 0.41134490E+02 0.75000000E+00 0.0000E+00 0.9000E+01
        2 -1    0    0  501    0 0.00000000E+00 0.00000000E+00 -.50277395E+04 0.50277395E+04 0.32000000E+00 0.0000E+00 0.9000E+01
       25  2    1    2    0    0 -.23633286E+02 0.17847458E+03 -.11437219E+04 0.11964614E+04 0.30167631E+03 0.0000E+00 0.0000E+00
       23  2    1    2    0    0 -.18262644E+03 -.10000548E+03 -.25214085E+04 0.25326312E+04 0.11561476E+03 0.0000E+00 0.0000E+00
       23  1    3    3    0    0 0.68285191E+02 -.17802653E+02 -.33768848E+03 0.35683128E+03 0.91188000E+02 0.0000E+00 0.9000E+01
      -13  1    4    4    0    0 -.14453131E+03 -.38055396E+02 -.12079560E+04 0.12171669E+04 0.10565837E+00 0.0000E+00 0.9000E+01
       13  1    4    4    0    0 -.38095134E+02 -.61950085E+02 -.13134525E+04 0.13154643E+04 0.10565837E+00 0.0000E+00 0.9000E+01
       23  1    3    3    0    0 -.91918477E+02 0.19627724E+03 -.80603337E+03 0.83963016E+03 0.91188000E+02 0.0000E+00 0.9000E+01
        2  1    1    2  502    0 0.20625973E+03 -.78469103E+02 -.13214815E+04 0.13397813E+04 0.32000000E+00 0.0000E+00 0.9000E+01
#aMCatNLO 2  0  0  1  2 0.22068184D+03 0.00000000D+00  -5  7  0 0.00000000D+00 0.00000000D+00 0.00000000D+00 0.00000000D+00 0.00000000D+00
  <mgrwgt>
 0.4055875228D-05    1    2    0
 0.325672926740741D+03 0.000000000000000D+00 0.000000000000000D+00 0.325672926740741D+03
 0.325672926740741D+03 0.000000000000000D+00 0.000000000000000D+00 -.325672926740741D+03
 0.166526146762888D+03 0.114762308600167D+03 -.354842214992431D+02 0.706129503777288D+02
 0.130172090538469D+03 -.994814325944221D+02 -.551941224804275D+02 -.632599918410717D+02
 0.135899541938413D+03 0.333449848473809D+01 -.777117274346008D+02 -.111438117527424D+03
 0.218748074241712D+03 -.186153744904829D+02 0.168390071414271D+03 0.104085158990767D+03
 0.000000000000000D+00 0.000000000000000D+00 -.000000000000000D+00 -.000000000000000D+00
 0.442235926722835D+03 0.000000000000000D+00 0.000000000000000D+00 0.442235926722835D+03
 0.467615497175579D+03 0.000000000000000D+00 0.000000000000000D+00 -.467615497175579D+03
 0.135208150734043D+03 0.682852308969545D+02 -.178025605243116D+02 0.706129503777288D+02
 0.162293620881774D+03 -.144530840991034D+03 -.380556016061888D+02 -.632599918410717D+02
 0.133069717580212D+03 -.380956779258497D+02 -.619501010668357D+02 -.111438117527424D+03
 0.257143493135444D+03 -.919184412574176D+02 0.196277366378734D+03 0.104085158990767D+03
 0.222136441566941D+03 0.206259729277347D+03 -.784691031813975D+02 -.253795704527436D+02
0.422813926968D-06 0.000000000000D+00 0.000000000000D+00 0.153878074236D-09 0.173545665260D-14  7 21 2 23 -13 13 23 2 2 0.63278563D-02 0.77349872D+00 0.15733338D+06 0.15733338D+06 0.15733338D+06 0.11059197D+01  1  2  1  3  7  1       -2 0.405587522834D-05 0.100000000000D+01
  </mgrwgt>
  </event>
  <event>
  8     66 0.53686478E-06 0.94175784E+02 0.75467711E-02 0.10522609E+00
       -2 -1    0    0    0  501 0.00000000E+00 0.00000000E+00 0.21238392E+02 0.21240803E+02 0.32000000E+00 0.0000E+00 0.9000E+01
        2 -1    0    0  501    0 0.00000000E+00 0.00000000E+00 -.23566370E+04 0.23566370E+04 0.32000000E+00 0.0000E+00 0.9000E+01
       25  2    1    2    0    0 -.41710326E+02 0.22332930E+01 -.20960773E+04 0.21179474E+04 0.30069292E+03 0.0000E+00 0.0000E+00
       23  2    1    2    0    0 0.41710326E+02 -.22332930E+01 -.23932129E+03 0.25993045E+03 0.92436022E+02 0.0000E+00 0.0000E+00
       23  1    3    3    0    0 -.76902115E+01 -.88245507E+02 -.48451910E+03 0.50091957E+03 0.91188000E+02 0.0000E+00 0.9000E+01
      -13  1    4    4    0    0 0.51508580E+02 0.35422158E+02 -.14547941E+03 0.15834183E+03 0.10565837E+00 0.0000E+00 0.9000E+01
       13  1    4    4    0    0 -.97982537E+01 -.37655451E+02 -.93841882E+02 0.10158862E+03 0.10565837E+00 0.0000E+00 0.9000E+01
       23  1    3    3    0    0 -.34020115E+02 0.90478800E+02 -.16115582E+04 0.16170278E+04 0.91188000E+02 0.0000E+00 0.9000E+01
#aMCatNLO 1  0  0  2  1 0.65377793D+02 0.00000000D+00  -5  7  0 0.00000000D+00 0.00000000D+00 0.00000000D+00 0.00000000D+00 0.00000000D+00
  <mgrwgt>
 0.3561452544D-03    9    2    0
 0.223727673833971D+03 0.000000000000000D+00 0.000000000000000D+00 0.223727673833971D+03
 0.223727673833971D+03 0.000000000000000D+00 0.000000000000000D+00 -.223727673833971D+03
 0.133153626030280D+03 -.769022282749900D+01 -.882454870405179D+02 0.396008998743332D+02
 0.821649045786401D+02 0.515086696908770D+02 0.354222479042132D+02 0.533215982928647D+02
 0.500767765885257D+02 -.979832256352068D+01 -.376555420277243D+02 0.315235877246960D+02
 0.182060040470496D+03 -.340201242998573D+02 0.904787811640289D+02 -.124446085891894D+03
 0.000000000000000D+00 0.000000000000000D+00 0.000000000000000D+00 -.000000000000000D+00
 0.252443625350246D+03 0.000000000000000D+00 0.000000000000000D+00 0.252443625350246D+03
 0.266670534770995D+03 0.000000000000000D+00 0.000000000000000D+00 -.266670534770995D+03
 0.135850538824820D+03 -.272370729060739D+02 -.884874462488667D+02 0.396008998743332D+02
 0.754478830663893D+02 0.400559342574938D+02 0.352804810830757D+02 0.533215982928647D+02
 0.521081025879138D+02 -.172234585818982D+02 -.377474535134965D+02 0.315235877246960D+02
 0.188799782447375D+03 -.609681879577090D+02 0.901452065920146D+02 -.124446085891894D+03
 0.669078531947428D+02 0.653727851881873D+02 0.809212087272855D+00 -.142269094207487D+02
0.111232760642D-05 0.000000000000D+00 0.000000000000D+00 0.363542513645D-07 0.000000000000D+00  7 -2 2 23 -13 13 23 21 0 0.32676320D-02 0.36255972D+00 0.32659409D+05 0.32659409D+05 0.32659409D+05 0.11639289D+01  1  2  2  2  7  2        2 0.208759008561D-03 0.100000000000D+01
-.583716276384D-07 0.000000000000D+00 -.427163089122D-08 0.363542513645D-07 0.000000000000D+00  7 -2 2 23 -13 13 23 21 2 0.32676320D-02 0.36255972D+00 0.32659409D+05 0.32659409D+05 0.32659409D+05 0.11639289D+01  1  2  3  2  7  2        2 -.148411377145D-04 0.100000000000D+01
0.698684659743D-07 0.000000000000D+00 0.000000000000D+00 0.363542513645D-07 0.000000000000D+00  7 -2 2 23 -13 13 23 21 2 0.32676320D-02 0.36255972D+00 0.32659409D+05 0.32659409D+05 0.32659409D+05 0.11639289D+01  1  2 15  2  7  2        2 0.177642386785D-04 0.100000000000D+01
0.641732019551D-06 0.000000000000D+00 0.000000000000D+00 0.363542513645D-07 0.000000000000D+00  7 -2 2 23 -13 13 23 21 2 0.32676320D-02 0.45169325D+00 0.46694463D+05 0.46694463D+05 0.46694463D+05 0.11499174D+01  1  2 12  2  7  2        2 0.735888621416D-04 0.100000000000D+01
-.673686635841D-06 0.000000000000D+00 0.000000000000D+00 0.363542513645D-07 0.000000000000D+00  7 -2 2 23 -13 13 23 21 2 0.32676320D-02 0.36255972D+00 0.32659409D+05 0.32659409D+05 0.32659409D+05 0.11639289D+01  1  2  4  2  7  2        2 -.171286574376D-03 0.100000000000D+01
-.162490862510D-05 0.000000000000D+00 -.522213335852D-06 0.363542513645D-07 0.000000000000D+00  7 -2 2 23 -13 13 23 21 2 0.32676320D-02 0.45166989D+00 0.32659409D+05 0.32659409D+05 0.32659409D+05 0.11639289D+01  1  2  5  2  7  2        2 -.192514708678D-03 0.100000000000D+01
0.171056017954D-05 0.000000000000D+00 0.509851930767D-06 0.363542513645D-07 0.000000000000D+00  7 -2 2 23 -13 13 23 21 2 0.32676320D-02 0.36255972D+00 0.32659409D+05 0.32659409D+05 0.32659409D+05 0.11639289D+01  1  2  6  2  7  2        2 0.434914362003D-03 0.100000000000D+01
0.197317548276D-07 0.000000000000D+00 0.000000000000D+00 0.363542513645D-07 0.000000000000D+00  7 -2 21 23 -13 13 23 -2 2 0.32676320D-02 0.45169325D+00 0.46694463D+05 0.46694463D+05 0.46694463D+05 0.11499174D+01  1  2 12  4  7  2        2 0.183204085136D-06 0.100000000000D+01
-.428913195217D-07 0.000000000000D+00 -.160539868470D-07 0.363542513645D-07 0.000000000000D+00  7 -2 21 23 -13 13 23 -2 2 0.32676320D-02 0.45166989D+00 0.32659409D+05 0.32659409D+05 0.32659409D+05 0.11639289D+01  1  2  5  4  7  2        2 -.422000297242D-06 0.100000000000D+01
  </mgrwgt>
  </event>
  <event>
  9     66 0.53686478E-06 0.29922584E+03 0.75467711E-02 0.99364716E-01
       -2 -1    0    0    0  501 0.00000000E+00 0.00000000E+00 0.52856344E+02 0.52857312E+02 0.32000000E+00 0.0000E+00 0.9000E+01
        2 -1    0    0  502    0 0.00000000E+00 0.00000000E+00 -.22331979E+04 0.22331980E+04 0.32000000E+00 0.0000E+00 0.9000E+01
       25  2    1    2    0    0 0.24991806E+03 -.16988065E+02 -.14345161E+04 0.14868045E+04 0.30000570E+03 0.0000E+00 0.0000E+00
       23  2    1    2    0    0 -.18281600E+03 0.34839435E+02 -.59324197E+03 0.63160937E+03 0.11117056E+03 0.0000E+00 0.0000E+00
       23  1    3    3    0    0 0.13855518E+03 -.12339027E+03 -.88701150E+03 0.91078392E+03 0.91188000E+02 0.0000E+00 0.9000E+01
      -13  1    4    4    0    0 0.87539070E+01 -.16291854E+02 -.48893779E+02 0.52274928E+02 0.10565837E+00 0.0000E+00 0.9000E+01
       13  1    4    4    0    0 -.19156990E+03 0.51131289E+02 -.54434819E+03 0.57933444E+03 0.10565837E+00 0.0000E+00 0.9000E+01
       23  1    3    3    0    0 0.11136288E+03 0.10640220E+03 -.54750464E+03 0.57602057E+03 0.91188000E+02 0.0000E+00 0.9000E+01
       21  1    1    2  502  501 -.67102062E+02 -.17851370E+02 -.15258349E+03 0.16764141E+03 0.75000000E+00 0.0000E+00 0.9000E+01
#aMCatNLO 2  0  0  2  1 0.69436000D+02 0.00000000D+00  -5  7  0 0.00000000D+00 0.00000000D+00 0.00000000D+00 0.00000000D+00 0.00000000D+00
  <mgrwgt>
 0.1426414763D-03    1    2    0
 0.304570604058355D+03 0.000000000000000D+00 0.000000000000000D+00 0.304570604058355D+03
 0.304570604058355D+03 0.000000000000000D+00 0.000000000000000D+00 -.304570604058355D+03
 0.203036604662541D+03 0.115697790825590D+03 -.129471175945803D+03 -.525342486972245D+02
 0.185479308831477D+02 0.669714752045945D+01 -.168388369542271D+02 0.395316647311802D+01
 0.222289665817949D+03 -.214830309646166D+03 0.449432205926868D+02 0.352241466829910D+02
 0.165267006753072D+03 0.924353713001166D+02 0.101366792307343D+03 0.133569355411156D+02
 0.000000000000000D+00 -.000000000000000D+00 -.000000000000000D+00 0.000000000000000D+00
 0.357457760898582D+03 0.000000000000000D+00 0.000000000000000D+00 0.357457760898582D+03
 0.330216631628265D+03 0.000000000000000D+00 0.000000000000000D+00 -.330216631628265D+03
 0.213302282408428D+03 0.138555406022189D+03 -.123390293428978D+03 -.525342486972245D+02
 0.189123171700974D+02 0.875377005023117D+01 -.162917072612373D+02 0.395316647311802D+01
 0.201380908653792D+03 -.191570174064004D+03 0.511311868605581D+02 0.352241466829910D+02
 0.179490431568917D+03 0.111363060031691D+03 0.106402184254481D+03 0.133569355411156D+02
 0.745884527256118D+02 -.671020620401076D+02 -.178513704248232D+02 0.272411292703172D+02
0.206214399182D-05 0.000000000000D+00 0.000000000000D+00 0.217416140027D-08 0.308355759696D-11  7 -2 2 23 -13 13 23 21 2 0.81317762D-02 0.34356708D+00 0.11287297D+06 0.11287297D+06 0.11287297D+06 0.11174318D+01  1  2  1  2  7  2        2 0.142641476346D-03 0.100000000000D+01
  </mgrwgt>
  </event>
  <event>
  9     66 0.53686478E-06 0.22508297E+03 0.75467711E-02 0.10112641E+00
       21 -1    0    0  502  501 0.00000000E+00 0.00000000E+00 0.13711450E+03 0.13711655E+03 0.75000000E+00 0.0000E+00 0.9000E+01
        2 -1    0    0  501    0 0.00000000E+00 0.00000000E+00 -.80545251E+03 0.80545257E+03 0.32000000E+00 0.0000E+00 0.9000E+01
       25  2    1    2    0    0 0.15947112E+03 -.73422122E+02 -.46778772E+03 0.58294246E+03 0.30029106E+03 0.0000E+00 0.0000E+00
       23  2    1    2    0    0 -.11482434E+03 -.40389508E+02 -.44182163E+02 0.16113858E+03 0.95904310E+02 0.0000E+00 0.0000E+00
       23  1    3    3    0    0 0.20121396E+03 -.89175389E+01 -.35850563E+03 0.42119843E+03 0.91188000E+02 0.0000E+00 0.9000E+01
      -11  1    4    4    0    0 -.22047184E+02 -.16302843E+01 -.55706048E+02 0.59932462E+02 0.51099893E-03 0.0000E+00 0.9000E+01
       11  1    4    4    0    0 -.92777159E+02 -.38759223E+02 0.11523885E+02 0.10120612E+03 0.51099893E-03 0.0000E+00 0.9000E+01
       23  1    3    3    0    0 -.41742837E+02 -.64504583E+02 -.10928209E+03 0.16174403E+03 0.91188000E+02 0.0000E+00 0.9000E+01
        2  1    1    2  502    0 -.44646780E+02 0.11381163E+03 -.15636813E+03 0.19848808E+03 0.32000000E+00 0.0000E+00 0.9000E+01
#aMCatNLO 2  0  0  1  2 0.12225556D+03 0.00000000D+00  -5  7  0 0.00000000D+00 0.00000000D+00 0.00000000D+00 0.00000000D+00 0.00000000D+00
  <mgrwgt>
 0.5451688143D-04    1    2    0
 0.262962458706598D+03 0.000000000000000D+00 0.000000000000000D+00 0.262962458706598D+03
 0.262962458706598D+03 0.000000000000000D+00 0.000000000000000D+00 -.262962458706598D+03
 0.227909354431408D+03 0.181593112712145D+03 0.410990733088073D+02 -.946690555673442D+02
 0.320836295074812D+02 -.246381232803823D+02 0.497442470796685D+01 -.199393395682698D+02
 0.153893427890842D+03 -.105523054621921D+03 -.626794200988884D+01 0.111842679663059D+03
 0.112038505583465D+03 -.514319348098416D+02 -.398055560068853D+02 0.276571547255520D+01
 0.000000000000000D+00 -.000000000000000D+00 0.000000000000000D+00 -.000000000000000D+00
 0.318964291530724D+03 0.000000000000000D+00 0.000000000000000D+00 0.318964291530724D+03
 0.346245890938685D+03 0.000000000000000D+00 0.000000000000000D+00 -.346245890938685D+03
 0.240507924894024D+03 0.201213960774012D+03 -.891753892344386D+01 -.946690555673442D+02
 0.297710164900412D+02 -.220471842510071D+02 -.163028434135893D+01 -.199393395682698D+02
 0.150395025553249D+03 -.927771595076220D+02 -.387592232977655D+02 0.111842679663059D+03
 0.119273660806523D+03 -.417428369223015D+02 -.645045827968260D+02 0.276571547255520D+01
 0.125262554725571D+03 -.446467800930813D+02 0.113811629359394D+03 -.272815994079608D+02
0.431958993324D-07 0.000000000000D+00 0.000000000000D+00 0.203811453781D-07 0.331533025656D-12  7 21 2 23 -11 11 23 2 2 0.21094688D-01 0.12391586D+00 0.85627864D+05 0.85627864D+05 0.85627864D+05 0.11272941D+01  1  2  1  3  7  1       -2 0.545168814347D-04 0.100000000000D+01
  </mgrwgt>
  </event>
  <event>
  8     66 0.53686478E-06 0.18982519E+03 0.75467711E-02 0.10431981E+00
       -2 -1    0    0    0  501 0.00000000E+00 0.00000000E+00 0.18284928E+03 0.18284956E+03 0.32000000E+00 0.0000E+00 0.9000E+01
        2 -1    0    0  501    0 0.00000000E+00 0.00000000E+00 -.27843241E+03 0.27843260E+03 0.32000000E+00 0.0000E+00 0.9000E+01
       25  2    1    2    0    0 -.77365473E+02 0.51229791E+02 -.29095997E+02 0.31490447E+03 0.29951351E+03 0.0000E+00 0.0000E+00
       23  2    1    2    0    0 0.77365473E+02 -.51229791E+02 -.66487133E+02 0.14637769E+03 0.91629580E+02 0.0000E+00 0.0000E+00
       23  1    3    3    0    0 0.12383494E+02 -.31912115E+02 -.10606622E+03 0.14400357E+03 0.91188000E+02 0.0000E+00 0.9000E+01
      -13  1    4    4    0    0 -.73746159E+01 -.44000735E+02 -.30417620E+02 0.53997152E+02 0.10565837E+00 0.0000E+00 0.9000E+01
       13  1    4    4    0    0 0.84740089E+02 -.72290553E+01 -.36069513E+02 0.92380533E+02 0.10565837E+00 0.0000E+00 0.9000E+01
       23  1    3    3    0    0 -.89748967E+02 0.83141905E+02 0.76970220E+02 0.17090091E+03 0.91188000E+02 0.0000E+00 0.9000E+01
#aMCatNLO 1  0  0  1  2 0.76978577D+02 0.00000000D+00  -5  7  0 0.00000000D+00 0.00000000D+00 0.00000000D+00 0.00000000D+00 0.00000000D+00
  <mgrwgt>
 0.2163696586D-03    4    2    0
 0.225635267591797D+03 0.000000000000000D+00 0.000000000000000D+00 0.225635267591797D+03
 0.225635267591797D+03 0.000000000000000D+00 0.000000000000000D+00 -.225635267591797D+03
 0.124732569064734D+03 0.123834831292736D+02 -.319121074967024D+02 -.779180927782159D+02
 0.487523148562909D+02 -.737470746772210D+01 -.440007753713622D+02 -.196553723020290D+02
 0.867902404036482D+02 0.847402081501062D+02 -.722903335397779D+01 -.173027173810013D+02
 0.190995410858920D+03 -.897489838116577D+02 0.831419162220424D+02 0.114876182461246D+03
 0.000000000000000D+00 -.000000000000000D+00 -.000000000000000D+00 -.000000000000000D+00
 0.239867652396675D+03 0.000000000000000D+00 0.000000000000000D+00 0.239867652396675D+03
 0.363899244429015D+03 0.000000000000000D+00 0.000000000000000D+00 -.363899244429015D+03
 0.128079817418062D+03 0.336795788332942D+02 -.297261681563781D+02 -.779180927782159D+02
 0.474387143163710D+02 0.728112934507841D+00 -.431690607636244D+02 -.196553723020290D+02
 0.102297581462480D+03 0.100668353154979D+03 -.559408771565743D+01 -.173027173810013D+02
 0.179972918225365D+03 -.584998146184498D+02 0.863494895369476D+02 0.114876182461246D+03
 0.145977865403412D+03 -.765762303043309D+02 -.786017290128772D+01 -.124031592032340D+03
0.147903275739D-05 0.000000000000D+00 0.000000000000D+00 0.477429150522D-07 0.000000000000D+00  7 -2 2 23 -13 13 23 21 0 0.28130695D-01 0.42835792D-01 0.36033604D+05 0.36033604D+05 0.36033604D+05 0.11600230D+01  1  2  2  1  7  1       -2 0.232557385435D-03 0.100000000000D+01
-.791847822798D-07 0.000000000000D+00 -.567987522665D-08 0.477429150522D-07 0.000000000000D+00  7 -2 2 23 -13 13 23 21 2 0.28130695D-01 0.42835792D-01 0.36033604D+05 0.36033604D+05 0.36033604D+05 0.11600230D+01  1  2  3  1  7  1       -2 -.167543378076D-04 0.100000000000D+01
0.985471338128D-07 0.000000000000D+00 0.000000000000D+00 0.477429150522D-07 0.000000000000D+00  7 -2 2 23 -13 13 23 21 2 0.28130695D-01 0.42835792D-01 0.36033604D+05 0.36033604D+05 0.36033604D+05 0.11600230D+01  1  2 15  1  7  1       -2 0.208511272284D-04 0.100000000000D+01
-.958692022958D-07 0.000000000000D+00 0.000000000000D+00 0.477429150522D-07 0.000000000000D+00  7 -2 2 23 -13 13 23 21 2 0.28130695D-01 0.42835792D-01 0.36033604D+05 0.36033604D+05 0.36033604D+05 0.11600230D+01  1  2  4  1  7  1       -2 -.202845162209D-04 0.100000000000D+01
  </mgrwgt>
  </event>
  <event>
  8     66 0.53686478E-06 0.94400865E+03 0.75467711E-02 0.83793415E-01
       -2 -1    0    0    0  501 0.00000000E+00 0.00000000E+00 0.60625780E+03 0.60625789E+03 0.32000000E+00 0.0000E+00 0.9000E+01
        2 -1    0    0  501    0 0.00000000E+00 0.00000000E+00 -.16423039E+04 0.16423040E+04 0.32000000E+00 0.0000E+00 0.9000E+01
       25  2    1    2    0    0 -.16870592E+03 -.91434441E+03 -.85159122E+03 0.12960981E+04 0.30029207E+03 0.0000E+00 0.0000E+00
       23  2    1    2    0    0 0.16870592E+03 0.91434441E+03 -.18445490E+03 0.95246372E+03 0.93145799E+02 0.0000E+00 0.0000E+00
       23  1    3    3    0    0 -.13451508E+03 -.69963074E+03 -.50943367E+03 0.88057674E+03 0.91188000E+02 0.0000E+00 0.9000E+01
      -13  1    4    4    0    0 -.59441658E+01 0.14300190E+03 -.38845477E+02 0.14830327E+03 0.10565837E+00 0.0000E+00 0.9000E+01
       13  1    4    4    0    0 0.17465008E+03 0.77134251E+03 -.14560943E+03 0.80416045E+03 0.10565837E+00 0.0000E+00 0.9000E+01
       23  1    3    3    0    0 -.34190839E+02 -.21471368E+03 -.34215755E+03 0.41552138E+03 0.91188000E+02 0.0000E+00 0.9000E+01
#aMCatNLO 1  0  0  1  2 0.87261194D+03 0.00000000D+00  -5  7  0 0.00000000D+00 0.00000000D+00 0.00000000D+00 0.00000000D+00 0.00000000D+00
  <mgrwgt>
 0.3145572042D-03    3    2    0
 0.997827488520500D+03 0.000000000000000D+00 0.000000000000000D+00 0.997827488520500D+03
 0.997827488520500D+03 0.000000000000000D+00 0.000000000000000D+00 -.997827488520500D+03
 0.727698169590456D+03 -.134515076982716D+03 -.699630738908463D+03 -.116841336521077D+03
 0.146930014206077D+03 -.594439814558988D+01 0.143001096091851D+03 0.332231804891385D+02
 0.830478315866097D+03 0.174650313853961D+03 0.771343318224627D+03 0.253418599208352D+03
 0.290548477378369D+03 -.341908387256547D+02 -.214713675408015D+03 -.169800443176414D+03
 0.000000000000000D+00 -.000000000000000D+00 0.000000000000000D+00 -.000000000000000D+00
 0.122724547048365D+04 0.000000000000000D+00 0.000000000000000D+00 0.122724547048365D+04
 0.246650333827976D+04 0.000000000000000D+00 0.000000000000000D+00 -.246650333827976D+04
 0.104329616531488D+04 0.279754384745442D+02 -.103233575649537D+04 -.116841336521077D+03
 0.103036106104018D+03 0.169902453682247D+02 0.960416107819530D+02 0.332231804891385D+02
 0.636850932347216D+03 0.309279251501262D+03 0.495685856362287D+03 0.253418599208352D+03
 0.394910085707169D+03 0.287006754057643D+02 -.343486251802878D+03 -.169800443176414D+03
 0.151565551929012D+04 -.382945610749795D+03 0.784094541154005D+03 -.123925786779611D+04
0.247747078153D-03 0.000000000000D+00 0.000000000000D+00 0.106680141414D-05 0.000000000000D+00  7 -2 2 23 -13 13 23 21 0 0.93270440D-01 0.25266215D+00 0.89115234D+06 0.89115234D+06 0.89115234D+06 0.10512118D+01  1  2  2  1  7  1       -2 0.313191109196D-03 0.100000000000D+01
-.137122815308D-04 0.000000000000D+00 -.951414013411D-06 0.106680141414D-05 0.000000000000D+00  7 -2 2 23 -13 13 23 21 2 0.93270440D-01 0.25266215D+00 0.89115234D+06 0.89115234D+06 0.89115234D+06 0.10512118D+01  1  2  3  1  7  1       -2 -.191553935382D-04 0.100000000000D+01
0.146901929865D-04 0.000000000000D+00 0.000000000000D+00 0.106680141414D-05 0.000000000000D+00  7 -2 2 23 -13 13 23 21 2 0.93270440D-01 0.25266215D+00 0.89115234D+06 0.89115234D+06 0.89115234D+06 0.10512118D+01  1  2 15  1  7  1       -2 0.205214885048D-04 0.100000000000D+01
  </mgrwgt>
  </event>
  <event>
  8     66 0.53686478E-06 0.95347162E+02 0.75467711E-02 0.10524191E+00
       -2 -1    0    0    0  501 0.00000000E+00 0.00000000E+00 0.31714239E+02 0.31715853E+02 0.32000000E+00 0.0000E+00 0.9000E+01
        2 -1    0    0  501    0 0.00000000E+00 0.00000000E+00 -.24751566E+04 0.24751566E+04 0.32000000E+00 0.0000E+00 0.9000E+01
       25  2    1    2    0    0 0.85619533E+02 -.60231134E+02 -.22273778E+04 0.22499876E+04 0.30045609E+03 0.0000E+00 0.0000E+00
       23  2    1    2    0    0 -.85619533E+02 0.60231134E+02 -.21606457E+03 0.25688488E+03 0.91364370E+02 0.0000E+00 0.0000E+00
       23  1    3    3    0    0 0.41308438E+02 0.40431772E+02 -.17052958E+04 0.17087101E+04 0.91188000E+02 0.0000E+00 0.9000E+01
      -13  1    4    4    0    0 -.44021778E+02 0.76299400E+02 -.10411036E+03 0.13637630E+03 0.10565837E+00 0.0000E+00 0.9000E+01
       13  1    4    4    0    0 -.41597755E+02 -.16068267E+02 -.11195421E+03 0.12050858E+03 0.10565837E+00 0.0000E+00 0.9000E+01
       23  1    3    3    0    0 0.44311095E+02 -.10066291E+03 -.52208198E+03 0.54127750E+03 0.91188000E+02 0.0000E+00 0.9000E+01
#aMCatNLO 1  0  0  2  1 0.46911661D+02 0.00000000D+00  -5  7  0 0.00000000D+00 0.00000000D+00 0.00000000D+00 0.00000000D+00 0.00000000D+00
  <mgrwgt>
 0.4025465682D-03    9    2    0
 0.280178081689896D+03 0.000000000000000D+00 0.000000000000000D+00 0.280178081689896D+03
 0.280178081689896D+03 0.000000000000000D+00 0.000000000000000D+00 -.280178081689896D+03
 0.208307278714419D+03 0.413084382133079D+02 0.404317715881485D+02 -.178144760798705D+03
 0.156133543965076D+03 -.440217829528811D+02 0.762995228012578D+02 0.128911399794758D+03
 0.509424445759151D+02 -.415977506436928D+02 -.160683887276394D+02 0.246285745517845D+02
 0.144972896124383D+03 0.443110953832659D+02 -.100662905661767D+03 0.246047864521622D+02
 0.000000000000000D+00 0.000000000000000D+00 0.000000000000000D+00 -.000000000000000D+00
 0.302774665216973D+03 0.000000000000000D+00 0.000000000000000D+00 0.302774665216973D+03
 0.306609908679366D+03 0.000000000000000D+00 0.000000000000000D+00 -.306609908679366D+03
 0.204951180158922D+03 0.244152538315967D+02 0.368520621518774D+02 -.178144760798705D+03
 0.158960922196613D+03 -.569022184291158D+02 0.735701252302779D+02 0.128911399794758D+03
 0.548063271973300D+02 -.459205502412503D+02 -.169844011360068D+02 0.246285745517845D+02
 0.143597970471981D+03 0.325148919373816D+02 -.103162551662974D+03 0.246047864521622D+02
 0.470681738714931D+02 0.458926229013878D+02 0.972476541682595D+01 -.383524346239230D+01
0.204834339046D-05 0.000000000000D+00 0.000000000000D+00 0.300957768170D-06 0.000000000000D+00  7 -2 2 23 -13 13 23 21 0 0.48792394D-02 0.38079345D+00 0.36771110D+05 0.36771110D+05 0.36771110D+05 0.11592231D+01  1  2  2  2  7  2        2 0.183219022344D-03 0.100000000000D+01
-.939025393562D-07 0.000000000000D+00 -.786617796056D-08 0.300957768170D-06 0.000000000000D+00  7 -2 2 23 -13 13 23 21 2 0.48792394D-02 0.38079345D+00 0.36771110D+05 0.36771110D+05 0.36771110D+05 0.11592231D+01  1  2  3  2  7  2        2 -.112870176630D-04 0.100000000000D+01
0.127770594244D-06 0.000000000000D+00 0.000000000000D+00 0.300957768170D-06 0.000000000000D+00  7 -2 2 23 -13 13 23 21 2 0.48792394D-02 0.38079345D+00 0.36771110D+05 0.36771110D+05 0.36771110D+05 0.11592231D+01  1  2 15  2  7  2        2 0.153579334908D-04 0.100000000000D+01
0.205402255092D-05 0.000000000000D+00 0.000000000000D+00 0.300957768170D-06 0.000000000000D+00  7 -2 2 23 -13 13 23 21 2 0.48792394D-02 0.43076167D+00 0.46589649D+05 0.46589649D+05 0.46589649D+05 0.11500039D+01  1  2 12  2  7  2        2 0.157422776437D-03 0.100000000000D+01
-.176538321445D-05 0.000000000000D+00 0.000000000000D+00 0.300957768170D-06 0.000000000000D+00  7 -2 2 23 -13 13 23 21 2 0.48792394D-02 0.38079345D+00 0.36771110D+05 0.36771110D+05 0.36771110D+05 0.11592231D+01  1  2  4  2  7  2        2 -.212197792095D-03 0.100000000000D+01
-.610914135836D-05 0.000000000000D+00 -.158935430923D-05 0.300957768170D-06 0.000000000000D+00  7 -2 2 23 -13 13 23 21 2 0.48792394D-02 0.42981069D+00 0.36771110D+05 0.36771110D+05 0.36771110D+05 0.11592231D+01  1  2  5  2  7  2        2 -.482730363608D-03 0.100000000000D+01
0.626717212128D-05 0.000000000000D+00 0.157777332039D-05 0.300957768170D-06 0.000000000000D+00  7 -2 2 23 -13 13 23 21 2 0.48792394D-02 0.38079345D+00 0.36771110D+05 0.36771110D+05 0.36771110D+05 0.11592231D+01  1  2  6  2  7  2        2 0.753309579430D-03 0.100000000000D+01
0.398691877130D-07 0.000000000000D+00 0.000000000000D+00 0.300957768170D-06 0.000000000000D+00  7 -2 21 23 -13 13 23 -2 2 0.48792394D-02 0.43076167D+00 0.46589649D+05 0.46589649D+05 0.46589649D+05 0.11500039D+01  1  2 12  4  7  2        2 0.289107536519D-06 0.100000000000D+01
-.109321814302D-06 0.000000000000D+00 -.303855434526D-07 0.300957768170D-06 0.000000000000D+00  7 -2 21 23 -13 13 23 -2 2 0.48792394D-02 0.42981069D+00 0.36771110D+05 0.36771110D+05 0.36771110D+05 0.11592231D+01  1  2  5  4  7  2        2 -.836677678809D-06 0.100000000000D+01
  </mgrwgt>
  </event>
  <event>
  9     66 0.53686478E-06 0.22457086E+03 0.75467711E-02 0.10185009E+00
       21 -1    0    0  502  501 0.00000000E+00 0.00000000E+00 0.10053471E+03 0.10053751E+03 0.75000000E+00 0.0000E+00 0.9000E+01
        2 -1    0    0  501    0 0.00000000E+00 0.00000000E+00 -.11642984E+04 0.11642985E+04 0.32000000E+00 0.0000E+00 0.9000E+01
       25  2    1    2    0    0 0.12000719E+03 0.10395717E+03 -.36015884E+03 0.49501700E+03 0.30019764E+03 0.0000E+00 0.0000E+00
       23  2    1    2    0    0 -.42152618E+02 -.16080198E+03 -.59497141E+03 0.62458124E+03 0.92068614E+02 0.0000E+00 0.0000E+00
       23  1    3    3    0    0 0.46740224E+02 -.34560429E+02 -.27343140E+03 0.29403920E+03 0.91188000E+02 0.0000E+00 0.9000E+01
      -13  1    4    4    0    0 -.36093426E+02 -.15613847E+03 -.59571904E+03 0.61689800E+03 0.10565837E+00 0.0000E+00 0.9000E+01
       13  1    4    4    0    0 -.60591922E+01 -.46635107E+01 0.74762711E+00 0.76832449E+01 0.10565837E+00 0.0000E+00 0.9000E+01
       23  1    3    3    0    0 0.73266967E+02 0.13851760E+03 -.86727439E+02 0.20097780E+03 0.91188000E+02 0.0000E+00 0.9000E+01
        2  1    1    2  502    0 -.77854573E+02 0.56844809E+02 -.10863347E+03 0.14523774E+03 0.32000000E+00 0.0000E+00 0.9000E+01
#aMCatNLO 2  0  0  1  2 0.96398480D+02 0.00000000D+00  -5  7  0 0.00000000D+00 0.00000000D+00 0.00000000D+00 0.00000000D+00 0.00000000D+00
  <mgrwgt>
 0.3301840545D-04    2    2    0
 0.288068466919349D+03 0.000000000000000D+00 0.000000000000000D+00 0.288068466919349D+03
 0.288068466919349D+03 0.000000000000000D+00 0.000000000000000D+00 -.288068466919349D+03
 0.108376412651520D+03 0.316522240146386D+02 -.235440620285302D+02 -.432898294445290D+02
 0.200686941440890D+03 -.635376338715847D+02 -.136100562315788D+03 -.133097161818824D+03
 0.165285837849546D+02 -.823833405525372D+01 -.307220230844990D+01 0.139959103636121D+02
 0.250544995961334D+03 0.401237439121999D+02 0.162716826652768D+03 0.162391080899741D+03
 0.000000000000000D+00 -.000000000000000D+00 0.000000000000000D+00 0.000000000000000D+00
 0.357076917401487D+03 0.000000000000000D+00 0.000000000000000D+00 0.357076917401487D+03
 0.327811795705219D+03 0.000000000000000D+00 0.000000000000000D+00 -.327811795705219D+03
 0.116483185426221D+03 0.467402245534018D+02 -.345604285042952D+02 -.432898294445290D+02
 0.208319172493421D+03 -.360934663992903D+02 -.156138671786975D+03 -.133097161818824D+03
 0.159482072687202D+02 -.605915271229973D+01 -.466331176191621D+01 0.139959103636121D+02
 0.243395335608120D+03 0.732669677396312D+02 0.138517602976095D+03 0.162391080899741D+03
 0.100742812310224D+03 -.778545731814430D+02 0.568448090770913D+02 0.292651216962680D+02
-.373507499320D-07 0.000000000000D+00 0.000000000000D+00 0.312718955016D-06 0.000000000000D+00  7 21 2 23 -13 13 23 2 2 0.16160705D-01 0.15740637D+00 0.76657778D+05 0.76657778D+05 0.76657778D+05 0.11313205D+01  1  2 13  3  7  1       -2 -.563056600326D-04 0.100000000000D+01
0.662342612699D-07 0.000000000000D+00 0.000000000000D+00 0.312718955016D-06 0.782722072026D-11  7 21 2 23 -13 13 23 2 2 0.15467085D-01 0.17912292D+00 0.76657778D+05 0.76657778D+05 0.76657778D+05 0.11313205D+01  1  2  1  3  7  1       -2 0.893240654806D-04 0.100000000000D+01
  </mgrwgt>
  </event>
  <event>
  9     66 0.53686478E-06 0.18372971E+03 0.75467711E-02 0.98457018E-01
       -2 -1    0    0    0  502 0.00000000E+00 0.00000000E+00 0.47788712E+03 0.47788723E+03 0.32000000E+00 0.0000E+00 0.9000E+01
        2 -1    0    0  501    0 0.00000000E+00 0.00000000E+00 -.71653562E+03 0.71653569E+03 0.32000000E+00 0.0000E+00 0.9000E+01
       25  2    1    2    0    0 -.23807764E+02 0.12830681E+03 0.19546351E+03 0.38151650E+03 0.30053187E+03 0.0000E+00 0.0000E+00
       23  2    1    2    0    0 -.52312316E+02 0.11751871E+03 -.51839561E+03 0.54211361E+03 0.92768164E+02 0.0000E+00 0.0000E+00
       23  1    3    3    0    0 0.90337158E+02 0.87935754E+02 0.16523173E+03 0.22695875E+03 0.91188000E+02 0.0000E+00 0.9000E+01
      -13  1    4    4    0    0 0.25691026E+02 0.15561785E+02 -.88344875E+02 0.93311447E+02 0.10565837E+00 0.0000E+00 0.9000E+01
       13  1    4    4    0    0 -.78003343E+02 0.10195693E+03 -.43005073E+03 0.44880216E+03 0.10565837E+00 0.0000E+00 0.9000E+01
       23  1    3    3    0    0 -.11414492E+03 0.40371060E+02 0.30231784E+02 0.15455775E+03 0.91188000E+02 0.0000E+00 0.9000E+01
       21  1    1    2  501  502 0.76120080E+02 -.24582553E+03 0.84283604E+02 0.27079281E+03 0.75000000E+00 0.0000E+00 0.9000E+01
#aMCatNLO 2  0  0  1  2 0.25734113D+03 0.00000000D+00  -5  7  0 0.00000000D+00 0.00000000D+00 0.00000000D+00 0.00000000D+00 0.00000000D+00
  <mgrwgt>
 0.5822151960D-04    1    2    0
 0.413092901772387D+03 0.000000000000000D+00 0.000000000000000D+00 0.413092901772387D+03
 0.413092901772387D+03 0.000000000000000D+00 0.000000000000000D+00 -.413092901772387D+03
 0.300470161556819D+03 0.117534832495852D+03 0.102388884344075D+00 0.261060566360891D+03
 0.675220267765073D+02 0.317280332072238D+02 -.393406830007722D+01 -.594733479419059D+02
 0.296118636921089D+03 -.503429565694568D+02 0.126289430596207D+02 -.291534463919870D+03
 0.162074978290358D+03 -.989199091336194D+02 -.879726364388755D+01 0.899472455008855D+02
 0.000000000000000D+00 0.000000000000000D+00 -.000000000000000D+00 0.000000000000000D+00
 0.688420720947471D+03 0.000000000000000D+00 0.000000000000000D+00 0.688420720947471D+03
 0.497403228850236D+03 0.000000000000000D+00 0.000000000000000D+00 -.497403228850236D+03
 0.303910133842685D+03 0.903371574808262D+02 0.879357536949212D+02 0.261060566360891D+03
 0.666279259013139D+02 0.256911606553138D+02 0.155616727466823D+02 -.594733479419059D+02
 0.318546894719638D+03 -.780034767746239D+02 0.101957040431492D+03 -.291534463919870D+03
 0.176251649656959D+03 -.114144921838176D+03 0.403710602803500D+02 0.899472455008855D+02
 0.320487345677111D+03 0.761200804766594D+02 -.245825527153446D+03 0.191017492097236D+03
0.548598072344D-05 0.000000000000D+00 0.000000000000D+00 0.371572700997D-06 0.409847286940D-10  7 -2 2 23 -13 13 23 21 2 0.73521049D-01 0.11023617D+00 0.13065161D+06 0.13065161D+06 0.13065161D+06 0.11123162D+01  1  2  1  1  7  1       -2 0.582215195989D-04 0.100000000000D+01
  </mgrwgt>
  </event>
  <event>
  8     66 0.53686478E-06 0.11861125E+03 0.75467711E-02 0.10038241E+00
       -2 -1    0    0    0  501 0.00000000E+00 0.00000000E+00 0.71864680E+02 0.71865392E+02 0.32000000E+00 0.0000E+00 0.9000E+01
        2 -1    0    0  501    0 0.00000000E+00 0.00000000E+00 -.24602539E+04 0.24602539E+04 0.32000000E+00 0.0000E+00 0.9000E+01
       25  2    1    2    0    0 0.20809636E+03 -.13783543E+03 -.21135010E+04 0.21491300E+04 0.29928378E+03 0.0000E+00 0.0000E+00
       23  2    1    2    0    0 -.20809636E+03 0.13783543E+03 -.27488827E+03 0.38298931E+03 0.93885853E+02 0.0000E+00 0.0000E+00
       23  1    3    3    0    0 0.24322459E+02 -.24951481E+02 -.12695229E+04 0.12732705E+04 0.91188000E+02 0.0000E+00 0.9000E+01
      -13  1    4    4    0    0 -.48297523E+02 0.17214542E+02 -.12207076E+02 0.52706879E+02 0.10565837E+00 0.0000E+00 0.9000E+01
       13  1    4    4    0    0 -.15979884E+03 0.12062089E+03 -.26268119E+03 0.33028243E+03 0.10565837E+00 0.0000E+00 0.9000E+01
       23  1    3    3    0    0 0.18377390E+03 -.11288395E+03 -.84397804E+03 0.87585947E+03 0.91188000E+02 0.0000E+00 0.9000E+01
#aMCatNLO 1  0  0  1  2 0.38935918D+02 0.00000000D+00  -5  7  0 0.00000000D+00 0.00000000D+00 0.00000000D+00 0.00000000D+00 0.00000000D+00
  <mgrwgt>
 0.2253350882D-03    9    2    0
 0.420483396599401D+03 0.000000000000000D+00 0.000000000000000D+00 0.420483396599401D+03
 0.420483396599401D+03 0.000000000000000D+00 0.000000000000000D+00 -.420483396599401D+03
 0.228258778731300D+03 0.243224587352411D+02 -.249514807782868D+02 -.206331433213526D+03
 0.124029539275396D+03 -.482973823742855D+02 0.172144117564224D+02 0.112935173867752D+03
 0.248439936499423D+03 -.159798977371020D+03 0.120621017845576D+03 0.147096087415372D+03
 0.240238538692683D+03 0.183773901010065D+03 -.112883948823711D+03 -.536998280695978D+02
 0.000000000000000D+00 -.000000000000000D+00 0.000000000000000D+00 0.000000000000000D+00
 0.446969784881206D+03 0.000000000000000D+00 0.000000000000000D+00 0.446969784881206D+03
 0.435490675866626D+03 0.000000000000000D+00 0.000000000000000D+00 -.435490675866626D+03
 0.230047391010796D+03 0.336065576890876D+02 -.300747354970266D+02 -.206331433213526D+03
 0.121819519649999D+03 -.433171155974759D+02 0.144661455658406D+02 0.112935173867752D+03
 0.239530164750915D+03 -.149913963802305D+03 0.115166159742222D+03 0.147096087415372D+03
 0.250470582230102D+03 0.193714400041020D+03 -.118369425531806D+03 -.536998280695978D+02
 0.405928031060205D+02 -.340898783303267D+02 0.188118557207699D+02 0.114791090145797D+02
0.731843855058D-05 0.000000000000D+00 0.000000000000D+00 0.728917854160D-07 0.000000000000D+00  7 -2 2 23 -13 13 23 21 0 0.11056161D-01 0.37850066D+00 0.85049488D+05 0.85049488D+05 0.85049488D+05 0.11275394D+01  1  2  2  1  7  1       -2 0.190522365798D-03 0.100000000000D+01
-.340392163361D-06 0.000000000000D+00 -.281047310233D-07 0.728917854160D-07 0.000000000000D+00  7 -2 2 23 -13 13 23 21 2 0.11056161D-01 0.37850066D+00 0.85049488D+05 0.85049488D+05 0.85049488D+05 0.11275394D+01  1  2  3  1  7  1       -2 -.112660203901D-04 0.100000000000D+01
0.472765424208D-06 0.000000000000D+00 0.000000000000D+00 0.728917854160D-07 0.000000000000D+00  7 -2 2 23 -13 13 23 21 2 0.11056161D-01 0.37850066D+00 0.85049488D+05 0.85049488D+05 0.85049488D+05 0.11275394D+01  1  2 15  1  7  1       -2 0.156472019105D-04 0.100000000000D+01
0.152718109151D-04 0.000000000000D+00 0.000000000000D+00 0.728917854160D-07 0.000000000000D+00  7 -2 2 23 -13 13 23 21 2 0.11940041D-01 0.37850066D+00 0.96107851D+05 0.96107851D+05 0.96107851D+05 0.11231396D+01  1  2 12  1  7  1       -2 0.442920295810D-03 0.100000000000D+01
-.139681856111D-04 0.000000000000D+00 0.000000000000D+00 0.728917854160D-07 0.000000000000D+00  7 -2 2 23 -13 13 23 21 2 0.11056161D-01 0.37850066D+00 0.85049488D+05 0.85049488D+05 0.85049488D+05 0.11275394D+01  1  2  4  1  7  1       -2 -.462307540671D-03 0.100000000000D+01
-.418662495305D-04 0.000000000000D+00 -.941362450385D-05 0.728917854160D-07 0.000000000000D+00  7 -2 2 23 -13 13 23 21 2 0.12280274D-01 0.37850066D+00 0.85049488D+05 0.85049488D+05 0.85049488D+05 0.11275394D+01  1  2  5  1  7  1       -2 -.117631232363D-02 0.100000000000D+01
0.426709337399D-04 0.000000000000D+00 0.936196290232D-05 0.728917854160D-07 0.000000000000D+00  7 -2 2 23 -13 13 23 21 2 0.11056161D-01 0.37850066D+00 0.85049488D+05 0.85049488D+05 0.85049488D+05 0.11275394D+01  1  2  6  1  7  1       -2 0.141228753574D-02 0.100000000000D+01
0.198576183608D-06 0.000000000000D+00 0.000000000000D+00 0.728917854160D-07 0.000000000000D+00  7 21 2 23 -13 13 23 2 2 0.11940041D-01 0.37850066D+00 0.96107851D+05 0.96107851D+05 0.96107851D+05 0.11231396D+01  1  2 12  3  7  1       -2 0.814317730042D-04 0.100000000000D+01
-.675204181356D-06 0.000000000000D+00 -.159466506464D-06 0.728917854160D-07 0.000000000000D+00  7 21 2 23 -13 13 23 2 2 0.12280274D-01 0.37850066D+00 0.85049488D+05 0.85049488D+05 0.85049488D+05 0.11275394D+01  1  2  5  3  7  1       -2 -.267588199371D-03 0.100000000000D+01
  </mgrwgt>
  </event>
  <event>
  9     66 0.53686478E-06 0.21824996E+03 0.75467711E-02 0.10372785E+00
       -2 -1    0    0    0  501 0.00000000E+00 0.00000000E+00 0.36505445E+02 0.36506847E+02 0.32000000E+00 0.0000E+00 0.9000E+01
        2 -1    0    0  502    0 0.00000000E+00 0.00000000E+00 -.28700398E+04 0.28700398E+04 0.32000000E+00 0.0000E+00 0.9000E+01
       25  2    1    2    0    0 0.91809283E+02 0.12449024E+03 -.23426132E+04 0.23668778E+04 0.30057845E+03 0.0000E+00 0.0000E+00
       23  2    1    2    0    0 -.46838136E+02 -.11689254E+03 -.45871438E+03 0.48383005E+03 0.88402268E+02 0.0000E+00 0.0000E+00
       23  1    3    3    0    0 -.53912178E+02 0.70066766E+02 -.14902120E+04 0.14956145E+04 0.91188000E+02 0.0000E+00 0.9000E+01
      -11  1    4    4    0    0 -.24350860E+01 -.37333663E+02 -.37862839E+02 0.53229002E+02 0.51099893E-03 0.0000E+00 0.9000E+01
       11  1    4    4    0    0 -.44403050E+02 -.79558877E+02 -.42085154E+03 0.43060105E+03 0.51099893E-03 0.0000E+00 0.9000E+01
       23  1    3    3    0    0 0.14572146E+03 0.54423476E+02 -.85240122E+03 0.87126331E+03 0.91188000E+02 0.0000E+00 0.9000E+01
       21  1    1    2  502  501 -.44971147E+02 -.75977021E+01 -.32206797E+02 0.55838780E+02 0.75000000E+00 0.0000E+00 0.9000E+01
#aMCatNLO 2  0  0  2  2 0.45608432D+02 0.00000000D+00  -5  7  0 0.00000000D+00 0.00000000D+00 0.00000000D+00 0.00000000D+00 0.00000000D+00
  <mgrwgt>
 0.1380653611D-04    1    2    0
 0.263163080118912D+03 0.000000000000000D+00 0.000000000000000D+00 0.263163080118912D+03
 0.263163080118912D+03 0.000000000000000D+00 0.000000000000000D+00 -.263163080118912D+03
 0.172669430064539D+03 -.684578501775791D+02 0.676093309949806D+02 -.110643489850456D+03
 0.875261072189694D+02 -.985396765845868D+01 -.385870549699270D+02 0.779407336059933D+02
 0.972326984636628D+02 -.524699678008497D+02 -.809217512433407D+02 0.123600285280515D+02
 0.168897924490653D+03 0.130781785636887D+03 0.518994752182872D+02 0.203427277164113D+02
 0.000000000000000D+00 -.000000000000000D+00 -.000000000000000D+00 0.000000000000000D+00
 0.390561862596244D+03 0.000000000000000D+00 0.000000000000000D+00 0.390561862596244D+03
 0.268263043829823D+03 0.000000000000000D+00 0.000000000000000D+00 -.268263043829823D+03
 0.168443188766684D+03 -.539121776781357D+02 0.700667663703832D+02 -.110643489850456D+03
 0.864551330323729D+02 -.243508602806333D+01 -.373336634773607D+02 0.779407336059933D+02
 0.919457232327212D+02 -.444030502667355D+02 -.795588765794470D+02 0.123600285280515D+02
 0.181454503199005D+03 0.145721460662748D+03 0.544234758038204D+02 0.203427277164113D+02
 0.130526358195283D+03 -.449711466898135D+02 -.759770211739587D+01 0.122298818766421D+03
0.249394859481D-06 0.000000000000D+00 0.000000000000D+00 0.273877348489D-07 0.973824979374D-10  7 -2 2 23 -11 11 23 21 2 0.56163093D-02 0.44154295D+00 0.57948902D+05 0.57948902D+05 0.57948902D+05 0.11417017D+01  1  2  1  2  7  2        2 0.138065361107D-04 0.100000000000D+01
  </mgrwgt>
  </event>
  <event>
  9     66 -.53686478E-06 0.77071257E+03 0.75467711E-02 0.89819080E-01
       -2 -1    0    0    0  502 0.00000000E+00 0.00000000E+00 0.47022894E+03 0.47022904E+03 0.32000000E+00 0.0000E+00 0.9000E+01
        2 -1    0    0  501    0 0.00000000E+00 0.00000000E+00 -.14619653E+04 0.14619653E+04 0.32000000E+00 0.0000E+00 0.9000E+01
       25  2    1    2    0    0 -.41536177E+03 -.60178230E+03 -.20558701E+03 0.81811590E+03 0.30394123E+03 0.0000E+00 0.0000E+00
       23  2    1    2    0    0 0.42839966E+03 0.61929347E+03 -.78566292E+03 0.10922284E+04 0.92983328E+02 0.0000E+00 0.0000E+00
       23  1    3    3    0    0 -.18519471E+03 -.10051753E+03 -.26820526E+02 0.23116108E+03 0.91188000E+02 0.0000E+00 0.9000E+01
      -13  1    4    4    0    0 0.18428543E+03 0.26592240E+03 -.40465652E+03 0.51809532E+03 0.10565837E+00 0.0000E+00 0.9000E+01
       13  1    4    4    0    0 0.24411423E+03 0.35337106E+03 -.38100640E+03 0.57413304E+03 0.10565837E+00 0.0000E+00 0.9000E+01
       23  1    3    3    0    0 -.23016705E+03 -.50126477E+03 -.17876649E+03 0.58695482E+03 0.91188000E+02 0.0000E+00 0.9000E+01
       21  1    1    2  501  502 -.13037896E+02 -.17511166E+02 -.48641218E+00 0.21850098E+02 0.75000000E+00 0.0000E+00 0.9000E+01
#aMCatNLO 2  0  0  1  2 0.21831804D+02 0.00000000D+00  -5  7  0 0.00000000D+00 0.00000000D+00 0.00000000D+00 0.00000000D+00 0.00000000D+00
  <mgrwgt>
 -.9090664293D-04    3    2    0
 0.816449958627401D+03 0.000000000000000D+00 0.000000000000000D+00 0.816449958627401D+03
 0.816449958627401D+03 0.000000000000000D+00 0.000000000000000D+00 -.816449958627401D+03
 0.256712692482836D+03 -.187234047391180D+03 -.103256553544938D+03 0.108938747860098D+03
 0.356154832656026D+03 0.181424634572185D+03 0.262080062277067D+03 -.158888035268360D+03
 0.434655352187422D+03 0.240621201835782D+03 0.348679596387314D+03 -.972072604050536D+02
 0.585377039928518D+03 -.234811789016787D+03 -.507503105119443D+03 0.147156547813316D+03
 0.000000000000000D+00 -.000000000000000D+00 -.000000000000000D+00 0.000000000000000D+00
 0.835496783776022D+03 0.000000000000000D+00 0.000000000000000D+00 0.835496783776022D+03
 0.822802986196509D+03 0.000000000000000D+00 0.000000000000000D+00 -.822802986196509D+03
 0.254133344892667D+03 -.185194712334960D+03 -.100517527726166D+03 0.108938747860098D+03
 0.360445787514356D+03 0.184285357097372D+03 0.265922291553188D+03 -.158888035268360D+03
 0.440354668800485D+03 0.244114306371764D+03 0.353371176362139D+03 -.972072604050536D+02
 0.578112054685729D+03 -.230167054743488D+03 -.501264774121751D+03 0.147156547813316D+03
 0.252539140792942D+02 -.130378963906881D+02 -.175111660674095D+02 0.126937975795134D+02
-.714512413650D-04 0.000000000000D+00 0.000000000000D+00 0.333782784907D-07 0.000000000000D+00  7 -2 2 23 -13 13 23 21 2 0.72613135D-01 0.22317961D+00 0.61115563D+06 0.61115563D+06 0.61115563D+06 0.10624029D+01  1  2 13  1  7  1       -2 -.235982656549D-03 0.100000000000D+01
-.369619201381D-03 0.000000000000D+00 0.000000000000D+00 0.333782784907D-07 0.000000000000D+00  7 -2 2 23 -13 13 23 21 2 0.70693246D-01 0.22317961D+00 0.59399787D+06 0.59399787D+06 0.59399787D+06 0.10632627D+01  1  2  8  1  7  1       -2 -.129855789465D-02 0.100000000000D+01
0.439883947024D-03 0.000000000000D+00 0.000000000000D+00 0.333782784907D-07 0.421690834127D-09  7 -2 2 23 -13 13 23 21 2 0.72342437D-01 0.22491623D+00 0.61115563D+06 0.61115563D+06 0.61115563D+06 0.10624029D+01  1  2  1  1  7  1       -2 0.144363390827D-02 0.100000000000D+01
  </mgrwgt>
  </event>
  <event>
  8     66 0.53686478E-06 0.32138956E+03 0.75467711E-02 0.98153805E-01
       -2 -1    0    0    0  501 0.00000000E+00 0.00000000E+00 0.47871999E+02 0.47873068E+02 0.32000000E+00 0.0000E+00 0.9000E+01
        2 -1    0    0  501    0 0.00000000E+00 0.00000000E+00 -.24735798E+04 0.24735798E+04 0.32000000E+00 0.0000E+00 0.9000E+01
       25  2    1    2    0    0 -.19197524E+03 -.16481833E+03 -.17454381E+04 0.17888300E+04 0.29889605E+03 0.0000E+00 0.0000E+00
       23  2    1    2    0    0 0.19197524E+03 0.16481833E+03 -.68026968E+03 0.73262292E+03 0.99749334E+02 0.0000E+00 0.0000E+00
       23  1    3    3    0    0 -.21933582E+03 -.16092519E+03 -.11195414E+04 0.11557220E+04 0.91188000E+02 0.0000E+00 0.9000E+01
      -11  1    4    4    0    0 0.13573139E+03 0.76307207E+02 -.50411829E+03 0.52761828E+03 0.51099893E-03 0.0000E+00 0.9000E+01
       11  1    4    4    0    0 0.56243857E+02 0.88511122E+02 -.17615139E+03 0.20500464E+03 0.51099893E-03 0.0000E+00 0.9000E+01
       23  1    3    3    0    0 0.27360575E+02 -.38931390E+01 -.62589672E+03 0.63310798E+03 0.91188000E+02 0.0000E+00 0.9000E+01
#aMCatNLO 1  0  0  1  2 0.91859675D+02 0.00000000D+00  -5  7  0 0.00000000D+00 0.00000000D+00 0.00000000D+00 0.00000000D+00 0.00000000D+00
  <mgrwgt>
 0.3093696968D-03    4    2    0
 0.344117109286288D+03 0.000000000000000D+00 0.000000000000000D+00 0.344117109286288D+03
 0.344117109286288D+03 0.000000000000000D+00 0.000000000000000D+00 -.344117109286288D+03
 0.288300460754002D+03 -.219335819773501D+03 -.160925190497388D+03 -.282273901492104D+02
 0.156227293273077D+03 0.135731387443619D+03 0.763072074493398D+02 0.126951848094361D+02
 0.130214016353196D+03 0.562438574558332D+02 0.885111220476493D+02 0.771887286278534D+02
 0.113492448192301D+03 0.273605748740489D+02 -.389313899960156D+01 -.616565232880791D+02
 0.000000000000000D+00 -.000000000000000D+00 0.000000000000000D+00 -.000000000000000D+00
 0.364965145986956D+03 0.000000000000000D+00 0.000000000000000D+00 0.364965145986956D+03
 0.465706726528836D+03 0.000000000000000D+00 0.000000000000000D+00 -.465706726528836D+03
 0.285200251917438D+03 -.192284150510812D+03 -.187760358588999D+03 -.282273901492104D+02
 0.163301445878231D+03 0.150803357853527D+03 0.613558617303702D+02 0.126951848094361D+02
 0.128378327781365D+03 0.684414962953846D+02 0.764111039156222D+02 0.771887286278534D+02
 0.117457456839099D+03 0.382543371817831D+02 -.146997158447990D+02 -.616565232880791D+02
 0.136334390099659D+03 -.652150408198829D+02 0.646931087878061D+02 -.100741580541881D+03
0.719786055219D-05 0.000000000000D+00 0.000000000000D+00 0.233481489304D-08 0.000000000000D+00  7 -2 2 23 -11 11 23 21 0 0.73650068D-02 0.38055083D+00 0.10329125D+06 0.10329125D+06 0.10329125D+06 0.11205698D+01  1  2  2  1  7  1       -2 0.340950128673D-03 0.100000000000D+01
-.397611221617D-06 0.000000000000D+00 -.276416797606D-07 0.233481489304D-08 0.000000000000D+00  7 -2 2 23 -11 11 23 21 2 0.73650068D-02 0.38055083D+00 0.10329125D+06 0.10329125D+06 0.10329125D+06 0.11205698D+01  1  2  3  1  7  1       -2 -.236496046435D-04 0.100000000000D+01
0.474308618887D-06 0.000000000000D+00 0.000000000000D+00 0.233481489304D-08 0.000000000000D+00  7 -2 2 23 -11 11 23 21 2 0.73650068D-02 0.38055083D+00 0.10329125D+06 0.10329125D+06 0.10329125D+06 0.11205698D+01  1  2 15  1  7  1       -2 0.282115058776D-04 0.100000000000D+01
-.607646404474D-06 0.000000000000D+00 0.000000000000D+00 0.233481489304D-08 0.000000000000D+00  7 -2 2 23 -11 11 23 21 2 0.73650068D-02 0.38055083D+00 0.10329125D+06 0.10329125D+06 0.10329125D+06 0.11205698D+01  1  2  4  1  7  1       -2 -.361423331323D-04 0.100000000000D+01
  </mgrwgt>
  </event>
  <event>
  9     66 -.53686478E-06 0.67778849E+03 0.75467711E-02 0.91061297E-01
       -2 -1    0    0    0  501 0.00000000E+00 0.00000000E+00 0.40130203E+03 0.40130216E+03 0.32000000E+00 0.0000E+00 0.9000E+01
        2 -1    0    0  502    0 0.00000000E+00 0.00000000E+00 -.22365037E+04 0.22365037E+04 0.32000000E+00 0.0000E+00 0.9000E+01
       25  2    1    2    0    0 0.65695181E+03 0.89766584E+02 -.49168361E+02 0.72833171E+03 0.29733118E+03 0.0000E+00 0.0000E+00
       23  2    1    2    0    0 -.62844488E+03 -.10131671E+03 -.16750051E+04 0.17942619E+04 0.92333723E+02 0.0000E+00 0.0000E+00
       23  1    3    3    0    0 0.26416140E+03 -.53753819E+02 0.50095785E+02 0.28895597E+03 0.91188000E+02 0.0000E+00 0.9000E+01
      -13  1    4    4    0    0 -.37682562E+03 -.14719343E+02 -.98522529E+03 0.10549327E+04 0.10565837E+00 0.0000E+00 0.9000E+01
       13  1    4    4    0    0 -.25161926E+03 -.86597370E+02 -.68977984E+03 0.73932915E+03 0.10565837E+00 0.0000E+00 0.9000E+01
       23  1    3    3    0    0 0.39279041E+03 0.14352040E+03 -.99264147E+02 0.43937574E+03 0.91188000E+02 0.0000E+00 0.9000E+01
       21  1    1    2  502  501 -.28506927E+02 0.11550128E+02 -.11102818E+03 0.11521228E+03 0.75000000E+00 0.0000E+00 0.9000E+01
#aMCatNLO 2  0  0  2  1 0.30757932D+02 0.00000000D+00  -5  7  0 0.00000000D+00 0.00000000D+00 0.00000000D+00 0.00000000D+00 0.00000000D+00
  <mgrwgt>
 -.4945503082D-04    3    2    0
 0.920564800078211D+03 0.000000000000000D+00 0.000000000000000D+00 0.920564800078211D+03
 0.920564800078211D+03 0.000000000000000D+00 0.000000000000000D+00 -.920564800078211D+03
 0.438394462643469D+03 0.257340242145654D+03 -.509900977094814D+02 0.339190894984593D+03
 0.528501509661345D+03 -.384963197123677D+03 -.114222214269150D+02 -.361920869020166D+03
 0.370370000484960D+03 -.257326925289965D+03 -.842848262269416D+02 -.252691232233998D+03
 0.503863627366648D+03 0.384949880267988D+03 0.146697145363338D+03 0.275421206269571D+03
 0.000000000000000D+00 -.000000000000000D+00 0.000000000000000D+00 -.000000000000000D+00
 0.925515522652177D+03 0.000000000000000D+00 0.000000000000000D+00 0.925515522652177D+03
 0.969739146758951D+03 0.000000000000000D+00 0.000000000000000D+00 -.969739146758951D+03
 0.442760014507698D+03 0.264161395420958D+03 -.537538187634989D+02 0.339190894984593D+03
 0.522686375267283D+03 -.376825788905061D+03 -.147192484121242D+02 -.361920869020166D+03
 0.366966138975216D+03 -.251619092040409D+03 -.865974643231610D+02 -.252691232233998D+03
 0.508973974662661D+03 0.392790413007230D+03 0.143520403171573D+03 0.275421206269571D+03
 0.538681659982709D+02 -.285069274827188D+02 0.115501283272115D+02 -.442236241067738D+02
-.299402492103D-03 0.000000000000D+00 0.000000000000D+00 0.680189746378D-07 0.000000000000D+00  7 -2 2 23 -13 13 23 21 2 0.61408363D-01 0.34492739D+00 0.48064499D+06 0.48064499D+06 0.48064499D+06 0.10697243D+01  1  2 13  2  7  2        2 -.530410016941D-03 0.100000000000D+01
-.191659702541D-03 0.000000000000D+00 0.000000000000D+00 0.680189746378D-07 0.000000000000D+00  7 -2 2 23 -13 13 23 21 2 0.61408363D-01 0.32662881D+00 0.45939724D+06 0.45939724D+06 0.45939724D+06 0.10711197D+01  1  2  8  2  7  2        2 -.398042051566D-03 0.100000000000D+01
0.498196495129D-03 0.000000000000D+00 0.000000000000D+00 0.680189746378D-07 0.440032320578D-09  7 -2 2 23 -13 13 23 21 2 0.61738612D-01 0.34407654D+00 0.48064499D+06 0.48064499D+06 0.48064499D+06 0.10697243D+01  1  2  1  2  7  2        2 0.878997037683D-03 0.100000000000D+01
  </mgrwgt>
  </event>
  <event>
  8     66 0.53686478E-06 0.24416396E+03 0.75467711E-02 0.91794918E-01
       -2 -1    0    0    0  501 0.00000000E+00 0.00000000E+00 0.41280711E+03 0.41280723E+03 0.32000000E+00 0.0000E+00 0.9000E+01
        2 -1    0    0  501    0 0.00000000E+00 0.00000000E+00 -.14688982E+04 0.14688982E+04 0.32000000E+00 0.0000E+00 0.9000E+01
       25  2    1    2    0    0 0.20949117E+03 -.54464595E+03 -.11062187E+04 0.12853535E+04 0.29645919E+03 0.0000E+00 0.0000E+00
       23  2    1    2    0    0 -.20949117E+03 0.54464595E+03 0.50127611E+02 0.59635196E+03 0.11223687E+03 0.0000E+00 0.0000E+00
       23  1    3    3    0    0 0.82717073E+02 -.25450855E+03 -.74289095E+03 0.79487039E+03 0.91188000E+02 0.0000E+00 0.9000E+01
      -13  1    4    4    0    0 -.90808312E+02 0.25029267E+03 0.78820979E+02 0.27767846E+03 0.10565837E+00 0.0000E+00 0.9000E+01
       13  1    4    4    0    0 -.11868286E+03 0.29435328E+03 -.28693368E+02 0.31867350E+03 0.10565837E+00 0.0000E+00 0.9000E+01
       23  1    3    3    0    0 0.12677410E+03 -.29013740E+03 -.36332776E+03 0.49048312E+03 0.91188000E+02 0.0000E+00 0.9000E+01
#aMCatNLO 1  0  0  1  2 0.94547484D+02 0.00000000D+00  -5  7  0 0.00000000D+00 0.00000000D+00 0.00000000D+00 0.00000000D+00 0.00000000D+00
  <mgrwgt>
 0.5057961046D-03    9    2    0
 0.778698764882831D+03 0.000000000000000D+00 0.000000000000000D+00 0.778698764882831D+03
 0.778698764882831D+03 0.000000000000000D+00 0.000000000000000D+00 -.778698764882831D+03
 0.456628076794022D+03 0.827170733663796D+02 -.254508552899433D+03 -.358576674432881D+03
 0.388950945870825D+03 -.908082902237300D+02 0.250292634084783D+03 0.283531814869783D+03
 0.365575781671119D+03 -.118682885000771D+03 0.294353318551780D+03 0.181428081646413D+03
 0.346242725429697D+03 0.126774101858121D+03 -.290137399737130D+03 -.106383222083315D+03
 0.000000000000000D+00 -.000000000000000D+00 -.000000000000000D+00 0.000000000000000D+00
 0.881872795609800D+03 0.000000000000000D+00 0.000000000000000D+00 0.881872795609800D+03
 0.802098184633419D+03 0.000000000000000D+00 0.000000000000000D+00 -.802098184633419D+03
 0.452834306070940D+03 0.105425527451119D+03 -.238855362353578D+03 -.358576674432881D+03
 0.393751800019726D+03 -.712649097585987D+02 0.263764104101601D+03 0.283531814869783D+03
 0.370458407164376D+03 -.100304776244567D+03 0.307021553789627D+03 0.181428081646413D+03
 0.343220301613112D+03 0.143989370777113D+03 -.278270722961972D+03 -.106383222083315D+03
 0.123706165375065D+03 -.778452122250658D+02 -.536595725756777D+02 0.797746109763812D+02
0.929601620164D-04 0.000000000000D+00 0.000000000000D+00 0.450020888222D-09 0.000000000000D+00  7 -2 2 23 -13 13 23 21 0 0.63508798D-01 0.22598435D+00 0.35751586D+06 0.35751586D+06 0.35751586D+06 0.10789608D+01  1  2  2  1  7  1       -2 0.363902628110D-03 0.100000000000D+01
-.472629683166D-05 0.000000000000D+00 -.356991499116D-06 0.450020888222D-09 0.000000000000D+00  7 -2 2 23 -13 13 23 21 2 0.63508798D-01 0.22598435D+00 0.35751586D+06 0.35751586D+06 0.35751586D+06 0.10789608D+01  1  2  3  1  7  1       -2 -.215387561114D-04 0.100000000000D+01
0.564732002932D-05 0.000000000000D+00 0.000000000000D+00 0.450020888222D-09 0.000000000000D+00  7 -2 2 23 -13 13 23 21 2 0.63508798D-01 0.22598435D+00 0.35751586D+06 0.35751586D+06 0.35751586D+06 0.10789608D+01  1  2 15  1  7  1       -2 0.257360578751D-04 0.100000000000D+01
0.235587290335D-03 0.000000000000D+00 0.000000000000D+00 0.450020888222D-09 0.000000000000D+00  7 -2 2 23 -13 13 23 21 2 0.72791727D-01 0.22598435D+00 0.41837011D+06 0.41837011D+06 0.41837011D+06 0.10740247D+01  1  2 12  1  7  1       -2 0.787047026062D-03 0.100000000000D+01
-.238844161070D-03 0.000000000000D+00 0.000000000000D+00 0.450020888222D-09 0.000000000000D+00  7 -2 2 23 -13 13 23 21 2 0.63508798D-01 0.22598435D+00 0.35751586D+06 0.35751586D+06 0.35751586D+06 0.10789608D+01  1  2  4  1  7  1       -2 -.108846446111D-02 0.100000000000D+01
-.435951839951D-03 0.000000000000D+00 -.835057850279D-04 0.450020888222D-09 0.000000000000D+00  7 -2 2 23 -13 13 23 21 2 0.73493549D-01 0.22598435D+00 0.35751586D+06 0.35751586D+06 0.35751586D+06 0.10789608D+01  1  2  5  1  7  1       -2 -.145043441235D-02 0.100000000000D+01
0.444282851851D-03 0.000000000000D+00 0.826233872116D-04 0.450020888222D-09 0.000000000000D+00  7 -2 2 23 -13 13 23 21 2 0.63508798D-01 0.22598435D+00 0.35751586D+06 0.35751586D+06 0.35751586D+06 0.10789608D+01  1  2  6  1  7  1       -2 0.202469297450D-02 0.100000000000D+01
0.497347591208D-05 0.000000000000D+00 0.000000000000D+00 0.450020888222D-09 0.000000000000D+00  7 21 2 23 -13 13 23 2 2 0.72791727D-01 0.22598435D+00 0.41837011D+06 0.41837011D+06 0.41837011D+06 0.10740247D+01  1  2 12  3  7  1       -2 0.160295228298D-03 0.100000000000D+01
-.917758931077D-05 0.000000000000D+00 -.186372224776D-05 0.450020888222D-09 0.000000000000D+00  7 21 2 23 -13 13 23 2 2 0.73493549D-01 0.22598435D+00 0.35751586D+06 0.35751586D+06 0.35751586D+06 0.10789608D+01  1  2  5  3  7  1       -2 -.295440180701D-03 0.100000000000D+01
  </mgrwgt>
  </event>
  <event>
  8     66 0.53686478E-06 0.77012476E+02 0.75467711E-02 0.10786833E+00
       -2 -1    0    0    0  501 0.00000000E+00 0.00000000E+00 0.37240633E+02 0.37242007E+02 0.32000000E+00 0.0000E+00 0.9000E+01
        2 -1    0    0  501    0 0.00000000E+00 0.00000000E+00 -.11236330E+04 0.11236330E+04 0.32000000E+00 0.0000E+00 0.9000E+01
       25  2    1    2    0    0 -.14418262E+02 0.22682286E+02 -.93159585E+03 0.97903835E+03 0.29987144E+03 0.0000E+00 0.0000E+00
       23  2    1    2    0    0 0.14418262E+02 -.22682286E+02 -.15479648E+03 0.18183668E+03 0.91543721E+02 0.0000E+00 0.0000E+00
       23  1    3    3    0    0 -.67447140E+02 0.48785619E+02 -.17210336E+03 0.21181117E+03 0.91188000E+02 0.0000E+00 0.9000E+01
      -13  1    4    4    0    0 0.33358981E+01 0.20856990E+02 -.12756195E+03 0.12929890E+03 0.10565837E+00 0.0000E+00 0.9000E+01
       13  1    4    4    0    0 0.11082364E+02 -.43539276E+02 -.27234534E+02 0.52537780E+02 0.10565837E+00 0.0000E+00 0.9000E+01
       23  1    3    3    0    0 0.53028877E+02 -.26103333E+02 -.75949249E+03 0.76722718E+03 0.91188000E+02 0.0000E+00 0.9000E+01
#aMCatNLO 1  0  0  1  2 0.55531283D+02 0.00000000D+00  -5  7  0 0.00000000D+00 0.00000000D+00 0.00000000D+00 0.00000000D+00 0.00000000D+00
  <mgrwgt>
 0.3833318027D-03    9    2    0
 0.204562037372039D+03 0.000000000000000D+00 0.000000000000000D+00 0.204562037372039D+03
 0.204562037372039D+03 0.000000000000000D+00 0.000000000000000D+00 -.204562037372039D+03
 0.144001544347146D+03 -.674472471366001D+02 0.487857884254009D+02 0.741080908657708D+02
 0.281511735924118D+02 0.333595234717100D+01 0.208568009205699D+02 -.186105844058488D+02
 0.767555978166218D+02 0.110825373761134D+02 -.435394441607585D+02 0.622327563560079D+02
 0.160215758987899D+03 0.530287574133158D+02 -.261031451852123D+02 -.117730262815930D+03
 0.000000000000000D+00 -.000000000000000D+00 -.000000000000000D+00 0.000000000000000D+00
 0.295184760129105D+03 0.000000000000000D+00 0.000000000000000D+00 0.295184760129105D+03
 0.215124622766264D+03 0.000000000000000D+00 0.000000000000000D+00 -.215124622766264D+03
 0.139720671806131D+03 -.499921956762009D+02 0.567043739552760D+02 0.741080908657708D+02
 0.299912052846205D+02 0.691296591025537D+01 0.224795339102187D+02 -.186105844058488D+02
 0.763878134268513D+02 0.205041687179177D+02 -.392652663515271D+02 0.622327563560079D+02
 0.166775874125985D+03 0.731458136682244D+02 -.169769257108551D+02 -.117730262815930D+03
 0.974338182517802D+02 -.505707526201966D+02 -.229417158031124D+02 0.800601373628414D+02
0.108061169827D-05 0.000000000000D+00 0.000000000000D+00 0.117593155788D-06 0.000000000000D+00  7 -2 2 23 -13 13 23 21 0 0.57294374D-02 0.17286672D+00 0.22228688D+05 0.22228688D+05 0.22228688D+05 0.11796130D+01  1  2  2  1  7  1       -2 0.401404606410D-03 0.100000000000D+01
-.527313086121D-07 0.000000000000D+00 -.414983345295D-08 0.117593155788D-06 0.000000000000D+00  7 -2 2 23 -13 13 23 21 2 0.57294374D-02 0.17286672D+00 0.22228688D+05 0.22228688D+05 0.22228688D+05 0.11796130D+01  1  2  3  1  7  1       -2 -.272558902715D-04 0.100000000000D+01
0.657313750572D-07 0.000000000000D+00 0.000000000000D+00 0.117593155788D-06 0.000000000000D+00  7 -2 2 23 -13 13 23 21 2 0.57294374D-02 0.17286672D+00 0.22228688D+05 0.22228688D+05 0.22228688D+05 0.11796130D+01  1  2 15  1  7  1       -2 0.339753970290D-04 0.100000000000D+01
0.161072428113D-05 0.000000000000D+00 0.000000000000D+00 0.117593155788D-06 0.000000000000D+00  7 -2 2 23 -13 13 23 21 2 0.83644414D-02 0.17286672D+00 0.32385617D+05 0.32385617D+05 0.32385617D+05 0.11642652D+01  1  2 12  1  7  1       -2 0.464424616272D-03 0.100000000000D+01
-.185747654221D-05 0.000000000000D+00 0.000000000000D+00 0.117593155788D-06 0.000000000000D+00  7 -2 2 23 -13 13 23 21 2 0.57294374D-02 0.17286672D+00 0.22228688D+05 0.22228688D+05 0.22228688D+05 0.11796130D+01  1  2  4  1  7  1       -2 -.960097106424D-03 0.100000000000D+01
-.201610099053D-05 0.000000000000D+00 -.442642921188D-06 0.117593155788D-06 0.000000000000D+00  7 -2 2 23 -13 13 23 21 2 0.86873281D-02 0.17286672D+00 0.22228688D+05 0.22228688D+05 0.22228688D+05 0.11796130D+01  1  2  5  1  7  1       -2 -.562551156975D-03 0.100000000000D+01
0.205545807430D-05 0.000000000000D+00 0.406882315504D-06 0.117593155788D-06 0.000000000000D+00  7 -2 2 23 -13 13 23 21 2 0.57294374D-02 0.17286672D+00 0.22228688D+05 0.22228688D+05 0.22228688D+05 0.11796130D+01  1  2  6  1  7  1       -2 0.106243029436D-02 0.100000000000D+01
0.736201750726D-07 0.000000000000D+00 0.000000000000D+00 0.117593155788D-06 0.000000000000D+00  7 21 2 23 -13 13 23 2 2 0.83644414D-02 0.17286672D+00 0.32385617D+05 0.32385617D+05 0.32385617D+05 0.11642652D+01  1  2 12  3  7  1       -2 0.326225085711D-03 0.100000000000D+01
-.828888954920D-07 0.000000000000D+00 -.216973152739D-07 0.117593155788D-06 0.000000000000D+00  7 21 2 23 -13 13 23 2 2 0.86873281D-02 0.17286672D+00 0.22228688D+05 0.22228688D+05 0.22228688D+05 0.11796130D+01  1  2  5  3  7  1       -2 -.355224043381D-03 0.100000000000D+01
  </mgrwgt>
  </event>
  <event>
  8     66 0.53686478E-06 0.20639319E+03 0.75467711E-02 0.88252260E-01
       -4 -1    0    0    0  501 0.00000000E+00 0.00000000E+00 0.14566766E+03 0.14567591E+03 0.15500000E+01 0.0000E+00 0.9000E+01
        4 -1    0    0  501    0 0.00000000E+00 0.00000000E+00 -.45543061E+03 0.45543325E+03 0.15500000E+01 0.0000E+00 0.9000E+01
       25  2    1    2    0    0 0.72266642E+02 0.80614558E+02 -.75407761E+02 0.32773196E+03 0.30000122E+03 0.0000E+00 0.0000E+00
       23  2    1    2    0    0 -.72266642E+02 -.80614558E+02 -.23435519E+03 0.27337720E+03 0.89953144E+02 0.0000E+00 0.0000E+00
       23  1    3    3    0    0 -.23550559E+02 -.51678081E+02 0.31901826E+02 0.11206351E+03 0.91188000E+02 0.0000E+00 0.9000E+01
      -13  1    4    4    0    0 -.17643390E+01 0.62004241E+01 0.56638547E+01 0.85818742E+01 0.10565837E+00 0.0000E+00 0.9000E+01
       13  1    4    4    0    0 -.70502303E+02 -.86814982E+02 -.24001904E+03 0.26479533E+03 0.10565837E+00 0.0000E+00 0.9000E+01
       23  1    3    3    0    0 0.95817201E+02 0.13229264E+03 -.10730959E+03 0.21566844E+03 0.91188000E+02 0.0000E+00 0.9000E+01
#aMCatNLO 1  0  0  1  1 0.86093726D+03 0.00000000D+00  -5  7  0 0.00000000D+00 0.00000000D+00 0.00000000D+00 0.00000000D+00 0.00000000D+00
  <mgrwgt>
 0.2356080305D-04    3    2    0
 0.257574813243789D+03 0.000000000000000D+00 0.000000000000000D+00 0.257574813243789D+03
 0.257574813243789D+03 0.000000000000000D+00 0.000000000000000D+00 -.257574813243789D+03
 0.149945576037929D+03 -.235505587393977D+02 -.516780803360129D+02 0.104609615357257D+03
 0.134193765515010D+02 -.176424465799233D+01 0.620055116625896D+01 0.117694635838820D+02
 0.164655075455985D+03 -.705023984705556D+02 -.868151105047278D+02 -.120846358122067D+03
 0.187129598442163D+03 0.958172018679457D+02 0.132292639674482D+03 0.446727918092847D+01
 0.000000000000000D+00 0.000000000000000D+00 0.000000000000000D+00 -.000000000000000D+00
 0.603322170639146D+03 0.000000000000000D+00 0.000000000000000D+00 0.603322170639146D+03
 0.232411754485622D+04 0.000000000000000D+00 0.000000000000000D+00 -.232411754485622D+04
 0.335770090754997D+03 -.298582338345694D+03 -.658157891728345D+02 0.104609615357257D+03
 0.285478011260817D+02 -.255277514806784D+02 0.497901400105615D+01 0.117694635838820D+02
 0.445796665958345D+03 -.416164769037086D+03 -.104583507880153D+03 -.120846358122067D+03
 0.193176077747416D+03 -.119527194180510D+03 0.121223095728206D+03 0.446727918092847D+01
 0.192414907990853D+04 0.859802053043969D+03 0.441971873237256D+02 -.172079537421707D+04
0.290206863427D-05 0.000000000000D+00 0.000000000000D+00 0.248631331532D-06 0.000000000000D+00  7 -4 4 23 -13 13 23 21 0 0.22411247D-01 0.70067085D-01 0.42598149D+05 0.42598149D+05 0.42598149D+05 0.11534663D+01  1  2  2  1  7  1       -4 0.233168780429D-04 0.100000000000D+01
-.151606132683D-06 0.000000000000D+00 -.111447076878D-07 0.248631331532D-06 0.000000000000D+00  7 -4 4 23 -13 13 23 21 2 0.22411247D-01 0.70067085D-01 0.42598149D+05 0.42598149D+05 0.42598149D+05 0.11534663D+01  1  2  3  1  7  1       -4 -.162065030304D-05 0.100000000000D+01
0.174424458403D-06 0.000000000000D+00 0.000000000000D+00 0.248631331532D-06 0.000000000000D+00  7 -4 4 23 -13 13 23 21 2 0.22411247D-01 0.70067085D-01 0.42598149D+05 0.42598149D+05 0.42598149D+05 0.11534663D+01  1  2 15  1  7  1       -4 0.186457530685D-05 0.100000000000D+01
  </mgrwgt>
  </event>
  <event>
  8     66 0.53686478E-06 0.49994392E+03 0.75467711E-02 0.84024768E-01
       -2 -1    0    0    0  501 0.00000000E+00 0.00000000E+00 0.23008692E+03 0.23008714E+03 0.32000000E+00 0.0000E+00 0.9000E+01
        2 -1    0    0  501    0 0.00000000E+00 0.00000000E+00 -.21232489E+04 0.21232489E+04 0.32000000E+00 0.0000E+00 0.9000E+01
       25  2    1    2    0    0 -.45099844E+03 0.35816169E+02 -.16888441E+03 0.56841250E+03 0.29981400E+03 0.0000E+00 0.0000E+00
       23  2    1    2    0    0 0.45099844E+03 -.35816169E+02 -.17242776E+04 0.17849236E+04 0.90203223E+02 0.0000E+00 0.0000E+00
       23  1    3    3    0    0 -.15881894E+03 -.96323797E+02 -.38693951E+02 0.21050939E+03 0.91188000E+02 0.0000E+00 0.9000E+01
      -11  1    4    4    0    0 0.59409567E+02 0.22789901E+02 -.18968655E+03 0.20007465E+03 0.51099893E-03 0.0000E+00 0.9000E+01
       11  1    4    4    0    0 0.39158887E+03 -.58606070E+02 -.15345910E+04 0.15848489E+04 0.51099893E-03 0.0000E+00 0.9000E+01
       23  1    3    3    0    0 -.29217950E+03 0.13213997E+03 -.13019046E+03 0.35790311E+03 0.91188000E+02 0.0000E+00 0.9000E+01
#aMCatNLO 1  0  0  2  1 0.12751477D+04 0.00000000D+00  -5  7  0 0.00000000D+00 0.00000000D+00 0.00000000D+00 0.00000000D+00 0.00000000D+00
  <mgrwgt>
 0.3719083516D-03    3    2    0
 0.698950705657899D+03 0.000000000000000D+00 0.000000000000000D+00 0.698950705657899D+03
 0.698950705657899D+03 0.000000000000000D+00 0.000000000000000D+00 -.698950705657899D+03
 0.301985116496588D+03 -.158818940267419D+03 -.963237967638041D+02 0.219950061674911D+03
 0.799308972085487D+02 0.594095673025794D+02 0.227899014401063D+02 -.483742910421860D+02
 0.589778899824978D+03 0.391588869111364D+03 -.586060700439848D+02 -.437107122820990D+03
 0.426206497785683D+03 -.292179496146524D+03 0.132139965367683D+03 0.265531352188264D+03
 0.000000000000000D+00 0.000000000000000D+00 -.000000000000000D+00 0.000000000000000D+00
 0.832436801402380D+04 0.000000000000000D+00 0.000000000000000D+00 0.832436801402380D+04
 0.100115556218981D+04 0.000000000000000D+00 0.000000000000000D+00 -.100115556218981D+04
 0.345543507470510D+03 -.199520449135372D+03 0.151322916166205D+03 0.219950061674911D+03
 0.119914731928985D+03 0.468479316535950D+02 0.992206742546448D+02 -.483742910421860D+02
 0.687610452287562D+03 0.311296396904794D+03 0.429930285684034D+03 -.437107122820990D+03
 0.739054438085075D+03 -.365423946753595D+03 0.577792913813715D+03 0.265531352188264D+03
 0.743340044644148D+04 0.206800067330578D+03 -.125826678991860D+04 0.732321245183399D+04
0.665225222051D-04 0.000000000000D+00 0.000000000000D+00 0.286727247589D-05 0.000000000000D+00  7 -2 2 23 -11 11 23 21 0 0.35398007D-01 0.32665370D+00 0.24994393D+06 0.24994393D+06 0.24994393D+06 0.10904664D+01  1  2  2  2  7  2        2 0.365616693278D-03 0.100000000000D+01
-.319116706156D-05 0.000000000000D+00 -.255464001050D-06 0.286727247589D-05 0.000000000000D+00  7 -2 2 23 -11 11 23 21 2 0.35398007D-01 0.32665370D+00 0.24994393D+06 0.24994393D+06 0.24994393D+06 0.10904664D+01  1  2  3  2  7  2        2 -.208560210136D-04 0.100000000000D+01
0.415384987341D-05 0.000000000000D+00 0.000000000000D+00 0.286727247589D-05 0.000000000000D+00  7 -2 2 23 -11 11 23 21 2 0.35398007D-01 0.32665370D+00 0.24994393D+06 0.24994393D+06 0.24994393D+06 0.10904664D+01  1  2 15  2  7  2        2 0.271476793837D-04 0.100000000000D+01
  </mgrwgt>
  </event>
  <event>
  8     66 0.53686478E-06 0.11760137E+03 0.75467711E-02 0.10914547E+00
       -2 -1    0    0    0  501 0.00000000E+00 0.00000000E+00 0.24811691E+02 0.24813755E+02 0.32000000E+00 0.0000E+00 0.9000E+01
        2 -1    0    0  501    0 0.00000000E+00 0.00000000E+00 -.16793819E+04 0.16793820E+04 0.32000000E+00 0.0000E+00 0.9000E+01
       25  2    1    2    0    0 -.52212703E+02 -.32137975E+02 -.13239761E+04 0.13559170E+04 0.28607564E+03 0.0000E+00 0.0000E+00
       23  2    1    2    0    0 0.52212703E+02 0.32137975E+02 -.33059416E+03 0.34827871E+03 0.90810467E+02 0.0000E+00 0.0000E+00
       23  1    3    3    0    0 0.55101918E+02 -.41892314E+02 -.28091910E+03 0.30335125E+03 0.91188000E+02 0.0000E+00 0.9000E+01
      -13  1    4    4    0    0 0.27745208E+02 0.29937250E+02 -.41735268E+02 0.58377044E+02 0.10565837E+00 0.0000E+00 0.9000E+01
       13  1    4    4    0    0 0.24467495E+02 0.22007250E+01 -.28885889E+03 0.28990166E+03 0.10565837E+00 0.0000E+00 0.9000E+01
       23  1    3    3    0    0 -.10731462E+03 0.97543382E+01 -.10430570E+04 0.10525658E+04 0.91188000E+02 0.0000E+00 0.9000E+01
#aMCatNLO 1  0  0  2  1 0.10050974D+02 0.00000000D+00  -5  7  0 0.00000000D+00 0.00000000D+00 0.00000000D+00 0.00000000D+00 0.00000000D+00
  <mgrwgt>
 0.2982550997D-02    9    2    0
 0.204132531486242D+03 0.000000000000000D+00 0.000000000000000D+00 0.204132531486242D+03
 0.204132531486242D+03 0.000000000000000D+00 0.000000000000000D+00 -.204132531486242D+03
 0.127782682053299D+03 0.551008958336798D+02 -.418924053458810D+02 0.567633697149567D+02
 0.745405766463190D+02 0.277459069091277D+02 0.299377146031717D+02 0.623714314481784D+02
 0.394641824302423D+02 0.244678572990901D+02 0.220091420292955D+01 -.308852979708817D+02
 0.166477621842623D+03 -.107314660041898D+03 0.975377653977982D+01 -.882495031922534D+02
 0.000000000000000D+00 0.000000000000000D+00 0.000000000000000D+00 -.000000000000000D+00
 0.207155628216437D+03 0.000000000000000D+00 0.000000000000000D+00 0.207155628216437D+03
 0.212723064842162D+03 0.000000000000000D+00 0.000000000000000D+00 -.212723064842162D+03
 0.128506490551447D+03 0.543624212873484D+02 -.449590233460329D+02 0.567633697149567D+02
 0.736866975046328D+02 0.273188031500416D+02 0.281641069926552D+02 0.623714314481784D+02
 0.392824367261694D+02 0.242409558921143D+02 0.125867463306454D+01 -.308852979708817D+02
 0.166913140648722D+03 -.108275295989096D+03 0.576460250269692D+01 -.882495031922534D+02
 0.114899276276282D+02 0.235311565959180D+01 0.977163921761626D+01 -.556743662572485D+01
0.313539005527D-05 0.000000000000D+00 0.000000000000D+00 0.353399967579D-09 0.000000000000D+00  7 -2 2 23 -13 13 23 21 0 0.38173443D-02 0.25836661D+00 0.25765042D+05 0.25765042D+05 0.25765042D+05 0.11735180D+01  1  2  2  2  7  2        2 0.106878120486D-02 0.100000000000D+01
-.161950455056D-06 0.000000000000D+00 -.120407233794D-07 0.353399967579D-09 0.000000000000D+00  7 -2 2 23 -13 13 23 21 2 0.38173443D-02 0.25836661D+00 0.25765042D+05 0.25765042D+05 0.25765042D+05 0.11735180D+01  1  2  3  2  7  2        2 -.760254354505D-04 0.100000000000D+01
0.200093406878D-06 0.000000000000D+00 0.000000000000D+00 0.353399967579D-09 0.000000000000D+00  7 -2 2 23 -13 13 23 21 2 0.38173443D-02 0.25836661D+00 0.25765042D+05 0.25765042D+05 0.25765042D+05 0.11735180D+01  1  2 15  2  7  2        2 0.939311246972D-04 0.100000000000D+01
0.896953610617D-05 0.000000000000D+00 0.000000000000D+00 0.353399967579D-09 0.000000000000D+00  7 -2 2 23 -13 13 23 21 2 0.38173443D-02 0.27109683D+00 0.27312103D+05 0.27312103D+05 0.27312103D+05 0.11711373D+01  1  2 12  2  7  2        2 0.379941938916D-02 0.100000000000D+01
-.877608376581D-05 0.000000000000D+00 0.000000000000D+00 0.353399967579D-09 0.000000000000D+00  7 -2 2 23 -13 13 23 21 2 0.38173443D-02 0.25836661D+00 0.25765042D+05 0.25765042D+05 0.25765042D+05 0.11735180D+01  1  2  4  2  7  2        2 -.411981299845D-02 0.100000000000D+01
-.478059132585D-04 0.000000000000D+00 -.703397097967D-05 0.353399967579D-09 0.000000000000D+00  7 -2 2 23 -13 13 23 21 2 0.38173443D-02 0.27109526D+00 0.25765042D+05 0.25765042D+05 0.25765042D+05 0.11735180D+01  1  2  5  2  7  2        2 -.203284243518D-01 0.100000000000D+01
0.480966801410D-04 0.000000000000D+00 0.702584502201D-05 0.353399967579D-09 0.000000000000D+00  7 -2 2 23 -13 13 23 21 2 0.38173443D-02 0.25836661D+00 0.25765042D+05 0.25765042D+05 0.25765042D+05 0.11735180D+01  1  2  6  2  7  2        2 0.225783314420D-01 0.100000000000D+01
0.128364787054D-06 0.000000000000D+00 0.000000000000D+00 0.353399967579D-09 0.000000000000D+00  7 -2 21 23 -13 13 23 -2 2 0.38173443D-02 0.27109683D+00 0.27312103D+05 0.27312103D+05 0.27312103D+05 0.11711373D+01  1  2 12  4  7  2        2 0.159770136965D-04 0.100000000000D+01
-.395873532884D-06 0.000000000000D+00 -.590918173733D-07 0.353399967579D-09 0.000000000000D+00  7 -2 21 23 -13 13 23 -2 2 0.38173443D-02 0.27109526D+00 0.25765042D+05 0.25765042D+05 0.25765042D+05 0.11735180D+01  1  2  5  4  7  2        2 -.496263913059D-04 0.100000000000D+01
  </mgrwgt>
  </event>
  <event>
  8     66 0.53686478E-06 0.28066463E+03 0.75467711E-02 0.93398916E-01
       -4 -1    0    0    0  501 0.00000000E+00 0.00000000E+00 0.57455063E+03 0.57455272E+03 0.15500000E+01 0.0000E+00 0.9000E+01
        4 -1    0    0  501    0 0.00000000E+00 0.00000000E+00 -.21544740E+03 0.21545298E+03 0.15500000E+01 0.0000E+00 0.9000E+01
       25  2    1    2    0    0 0.10643262E+03 0.16543691E+03 0.43364449E+03 0.56292224E+03 0.30022764E+03 0.0000E+00 0.0000E+00
       23  2    1    2    0    0 -.10643262E+03 -.16543691E+03 -.74541259E+02 0.22708345E+03 0.85517383E+02 0.0000E+00 0.0000E+00
       23  1    3    3    0    0 -.68019821E+02 0.79858380E+02 0.12471139E+03 0.18674110E+03 0.91188000E+02 0.0000E+00 0.9000E+01
      -13  1    4    4    0    0 -.45069300E+02 -.18990066E+02 0.55919048E+01 0.49225450E+02 0.10565837E+00 0.0000E+00 0.9000E+01
       13  1    4    4    0    0 -.61363322E+02 -.14644684E+03 -.80133164E+02 0.17785800E+03 0.10565837E+00 0.0000E+00 0.9000E+01
       23  1    3    3    0    0 0.17445244E+03 0.85578528E+02 0.30893310E+03 0.37618114E+03 0.91188000E+02 0.0000E+00 0.9000E+01
#aMCatNLO 1  0  0  1  2 0.41230086D+03 0.00000000D+00  -5  7  0 0.00000000D+00 0.00000000D+00 0.00000000D+00 0.00000000D+00 0.00000000D+00
  <mgrwgt>
 0.2312877225D-04    3    2    0
 0.351835853673806D+03 0.000000000000000D+00 0.000000000000000D+00 0.351835853673806D+03
 0.351835853673806D+03 0.000000000000000D+00 0.000000000000000D+00 -.351835853673806D+03
 0.146008813343840D+03 -.680198210978842D+02 0.798583798578484D+02 0.447131449840851D+02
 0.524109645944393D+02 -.450692745574995D+02 -.189898718558746D+02 -.188428890427597D+02
 0.240573999445638D+03 -.613633476353069D+02 -.146447035847437D+03 -.180730889633615D+03
 0.264677929963694D+03 0.174452443290691D+03 0.855785278454629D+02 0.154860633692290D+03
 0.000000000000000D+00 0.000000000000000D+00 0.000000000000000D+00 -.000000000000000D+00
 0.545158068804880D+03 0.000000000000000D+00 0.000000000000000D+00 0.545158068804880D+03
 0.717138417144522D+03 0.000000000000000D+00 0.000000000000000D+00 -.717138417144522D+03
 0.125036692786197D+03 -.726505733275449D+02 0.644608871494997D+01 0.447131449840851D+02
 0.735120583811510D+02 -.472206414173879D+02 -.530959441397031D+02 -.188428890427597D+02
 0.366729086976142D+03 -.717389858876462D+02 -.310934215985325D+03 -.180730889633615D+03
 0.250286917389395D+03 0.165654383329744D+03 -.538989711251561D+02 0.154860633692290D+03
 0.446731730416517D+03 0.259558173028349D+02 0.411483042535234D+03 -.171980348339642D+03
0.107293184251D-04 0.000000000000D+00 0.000000000000D+00 0.348863042409D-07 0.000000000000D+00  7 -4 4 23 -13 13 23 21 0 0.88392994D-01 0.33146344D-01 0.78772634D+05 0.78772634D+05 0.78772634D+05 0.11303261D+01  1  2  2  1  7  1       -4 0.228409249052D-04 0.100000000000D+01
-.559055118244D-06 0.000000000000D+00 -.412034078468D-07 0.348863042409D-07 0.000000000000D+00  7 -4 4 23 -13 13 23 21 2 0.88392994D-01 0.33146344D-01 0.78772634D+05 0.78772634D+05 0.78772634D+05 0.11303261D+01  1  2  3  1  7  1       -4 -.152056058388D-05 0.100000000000D+01
0.664886174688D-06 0.000000000000D+00 0.000000000000D+00 0.348863042409D-07 0.000000000000D+00  7 -4 4 23 -13 13 23 21 2 0.88392994D-01 0.33146344D-01 0.78772634D+05 0.78772634D+05 0.78772634D+05 0.11303261D+01  1  2 15  1  7  1       -4 0.180840793154D-05 0.100000000000D+01
  </mgrwgt>
  </event>
  <event>
  8     66 0.53686478E-06 0.15428447E+03 0.75467711E-02 0.10800421E+00
       -2 -1    0    0    0  501 0.00000000E+00 0.00000000E+00 0.37082807E+02 0.37084187E+02 0.32000000E+00 0.0000E+00 0.9000E+01
        2 -1    0    0  501    0 0.00000000E+00 0.00000000E+00 -.17445507E+04 0.17445507E+04 0.32000000E+00 0.0000E+00 0.9000E+01
       25  2    1    2    0    0 -.16616092E+02 -.14064376E+02 -.62123519E+03 0.69038008E+03 0.30036243E+03 0.0000E+00 0.0000E+00
       23  2    1    2    0    0 0.16616092E+02 0.14064376E+02 -.10862327E+04 0.10912548E+04 0.10228262E+03 0.0000E+00 0.0000E+00
       23  1    3    3    0    0 -.21198323E+02 -.11165177E+03 -.45101373E+03 0.47396637E+03 0.91188000E+02 0.0000E+00 0.9000E+01
      -13  1    4    4    0    0 0.90130155E+01 0.18385910E+02 -.10807252E+04 0.10809191E+04 0.10565837E+00 0.0000E+00 0.9000E+01
       13  1    4    4    0    0 0.76030764E+01 -.43215336E+01 -.55075118E+01 0.10335680E+02 0.10565837E+00 0.0000E+00 0.9000E+01
       23  1    3    3    0    0 0.45822315E+01 0.97587390E+02 -.17022146E+03 0.21641371E+03 0.91188000E+02 0.0000E+00 0.9000E+01
#aMCatNLO 1  0  0  1  1 0.35895568D+02 0.00000000D+00  -5  7  0 0.00000000D+00 0.00000000D+00 0.00000000D+00 0.00000000D+00 0.00000000D+00
  <mgrwgt>
 0.2895253804D-03    4    2    0
 0.254350331109567D+03 0.000000000000000D+00 0.000000000000000D+00 0.254350331109567D+03
 0.254350331109567D+03 0.000000000000000D+00 0.000000000000000D+00 -.254350331109567D+03
 0.146144101284025D+03 -.211983608501801D+02 -.111651798188628D+03 0.112850544804605D+02
 0.158246157080865D+03 0.901318496629439D+01 0.183859105464865D+02 -.156915795957582D+03
 0.177121209489466D+02 0.760299225722721D+01 -.432146234911083D+01 0.154025549962295D+02
 0.186598282905298D+03 0.458218362665852D+01 0.975873499912520D+02 0.130228186480892D+03
 0.000000000000000D+00 -.000000000000000D+00 -.000000000000000D+00 -.000000000000000D+00
 0.257855704398870D+03 0.000000000000000D+00 0.000000000000000D+00 0.257855704398870D+03
 0.367106164341457D+03 0.000000000000000D+00 0.000000000000000D+00 -.367106164341457D+03
 0.140494761029887D+03 -.132197091664531D+02 -.105458111910713D+03 0.112850544804605D+02
 0.159937579328181D+03 0.178698947080962D+02 0.252612177750442D+02 -.156915795957582D+03
 0.179929616493413D+02 0.859685057459123D+01 -.354994770397298D+01 0.154025549962295D+02
 0.191540241497429D+03 0.151077472227901D+02 0.105758158969622D+03 0.130228186480892D+03
 0.114996325235488D+03 -.283547833390245D+02 -.220113171299800D+02 -.109250459942586D+03
0.167175371100D-05 0.000000000000D+00 0.000000000000D+00 0.431162392443D-08 0.000000000000D+00  7 -2 2 23 -13 13 23 21 0 0.57051556D-02 0.26839252D+00 0.23803699D+05 0.23803699D+05 0.23803699D+05 0.11767747D+01  1  2  2  1  7  1       -2 0.292474905314D-03 0.100000000000D+01
-.646541899160D-07 0.000000000000D+00 -.641997443309D-08 0.431162392443D-08 0.000000000000D+00  7 -2 2 23 -13 13 23 21 2 0.57051556D-02 0.26839252D+00 0.23803699D+05 0.23803699D+05 0.23803699D+05 0.11767747D+01  1  2  3  1  7  1       -2 -.156638904097D-04 0.100000000000D+01
0.104371345769D-06 0.000000000000D+00 0.000000000000D+00 0.431162392443D-08 0.000000000000D+00  7 -2 2 23 -13 13 23 21 2 0.57051556D-02 0.26839252D+00 0.23803699D+05 0.23803699D+05 0.23803699D+05 0.11767747D+01  1  2 15  1  7  1       -2 0.252862393631D-04 0.100000000000D+01
-.518915990858D-07 0.000000000000D+00 0.000000000000D+00 0.431162392443D-08 0.000000000000D+00  7 -2 2 23 -13 13 23 21 2 0.57051556D-02 0.26839252D+00 0.23803699D+05 0.23803699D+05 0.23803699D+05 0.11767747D+01  1  2  4  1  7  1       -2 -.125718738773D-04 0.100000000000D+01
  </mgrwgt>
  </event>
  <event>
  9     66 0.53686478E-06 0.31674244E+03 0.75467711E-02 0.98296121E-01
       -2 -1    0    0    0  501 0.00000000E+00 0.00000000E+00 0.56373851E+03 0.56373860E+03 0.32000000E+00 0.0000E+00 0.9000E+01
        2 -1    0    0  502    0 0.00000000E+00 0.00000000E+00 -.22484078E+04 0.22484078E+04 0.32000000E+00 0.0000E+00 0.9000E+01
       25  2    1    2    0    0 0.15038865E+03 -.23542348E+03 -.21288712E+04 0.21685440E+04 0.30405505E+03 0.0000E+00 0.0000E+00
       23  2    1    2    0    0 -.16044749E+03 0.13916491E+03 0.48597895E+03 0.53818528E+03 0.91419873E+02 0.0000E+00 0.0000E+00
       23  1    3    3    0    0 0.75695624E+02 -.25847730E+03 -.16793650E+04 0.17032682E+04 0.91188000E+02 0.0000E+00 0.9000E+01
      -13  1    4    4    0    0 -.12655463E+03 0.50443980E+02 0.28975737E+03 0.32018747E+03 0.10565837E+00 0.0000E+00 0.9000E+01
       13  1    4    4    0    0 -.33892861E+02 0.88720932E+02 0.19622157E+03 0.21799781E+03 0.10565837E+00 0.0000E+00 0.9000E+01
       23  1    3    3    0    0 0.74693026E+02 0.23053819E+02 -.44950620E+03 0.46527583E+03 0.91188000E+02 0.0000E+00 0.9000E+01
       21  1    1    2  502  501 0.10058842E+02 0.96258566E+02 -.41777017E+02 0.10541714E+03 0.75000000E+00 0.0000E+00 0.9000E+01
#aMCatNLO 2  0  0  2  1 0.96782704D+02 0.00000000D+00  -5  7  0 0.00000000D+00 0.00000000D+00 0.00000000D+00 0.00000000D+00 0.00000000D+00
  <mgrwgt>
 0.1227629195D-03    2    2    0
 0.107446748766216D+04 0.000000000000000D+00 0.000000000000000D+00 0.107446748766216D+04
 0.107446748766216D+04 0.000000000000000D+00 0.000000000000000D+00 -.107446748766216D+04
 0.850258759694683D+03 0.796977559005117D+02 -.220178705220483D+03 -.812277238734039D+03
 0.626489029581307D+03 -.123629119407057D+03 0.784409364813462D+02 0.609139856276285D+03
 0.428412515190848D+03 -.318983496559183D+02 0.107806370460896D+03 0.413397587014518D+03
 0.243774670857475D+03 0.758297131624640D+02 0.339313982782411D+02 -.210260204556764D+03
 0.000000000000000D+00 0.000000000000000D+00 0.000000000000000D+00 0.000000000000000D+00
 0.113989643755530D+04 0.000000000000000D+00 0.000000000000000D+00 0.113989643755530D+04
 0.111195283534600D+04 0.000000000000000D+00 0.000000000000000D+00 -.111195283534600D+04
 0.860610192949925D+03 0.756956238721788D+02 -.258477296539780D+03 -.812277238734039D+03
 0.624189122346855D+03 -.126554754991963D+03 0.504439286809366D+02 0.609139856276285D+03
 0.424167060757940D+03 -.338927373747046D+02 0.887209830640595D+02 0.413397587014518D+03
 0.242146921739796D+03 0.746930262373865D+02 0.230538191046067D+02 -.210260204556764D+03
 0.100735975106784D+03 0.100588422571027D+02 0.962585656901769D+02 0.279436022092934D+02
-.186958649199D-05 0.000000000000D+00 0.000000000000D+00 0.182675450414D-06 0.000000000000D+00  7 -2 2 23 -13 13 23 21 2 0.81750748D-01 0.33424746D+00 0.10032578D+06 0.10032578D+06 0.10032578D+06 0.11216061D+01  1  2  8  2  7  2        2 -.237258886411D-05 0.100000000000D+01
0.129000247773D-03 0.000000000000D+00 0.000000000000D+00 0.182675450414D-06 0.128725254626D-09  7 -2 2 23 -13 13 23 21 2 0.86728903D-01 0.34590847D+00 0.13412194D+06 0.13412194D+06 0.13412194D+06 0.11114070D+01  1  2  1  2  7  2        2 0.125135508379D-03 0.100000000000D+01
  </mgrwgt>
  </event>
  <event>
  8     66 0.53686478E-06 0.37634833E+03 0.75467711E-02 0.96496527E-01
       -4 -1    0    0    0  501 0.00000000E+00 0.00000000E+00 0.15544360E+03 0.15545133E+03 0.15500000E+01 0.0000E+00 0.9000E+01
        4 -1    0    0  501    0 0.00000000E+00 0.00000000E+00 -.12904504E+04 0.12904514E+04 0.15500000E+01 0.0000E+00 0.9000E+01
       25  2    1    2    0    0 -.12180173E+03 -.28891197E+03 -.10030369E+04 0.10934138E+04 0.30193528E+03 0.0000E+00 0.0000E+00
       23  2    1    2    0    0 0.12180173E+03 0.28891197E+03 -.13196992E+03 0.35248889E+03 0.92339451E+02 0.0000E+00 0.0000E+00
       23  1    3    3    0    0 0.51862708E+02 -.17335714E+03 -.39053159E+03 0.43996887E+03 0.91188000E+02 0.0000E+00 0.9000E+01
      -11  1    4    4    0    0 0.23635492E+02 0.81772922E+01 0.42584671E+01 0.25370044E+02 0.51099893E-03 0.0000E+00 0.9000E+01
       11  1    4    4    0    0 0.98166237E+02 0.28073468E+03 -.13622839E+03 0.32711885E+03 0.51099893E-03 0.0000E+00 0.9000E+01
       23  1    3    3    0    0 -.17366444E+03 -.11555483E+03 -.61250532E+03 0.65344493E+03 0.91188000E+02 0.0000E+00 0.9000E+01
#aMCatNLO 1  0  0  1  2 0.93216461D+02 0.00000000D+00  -5  7  0 0.00000000D+00 0.00000000D+00 0.00000000D+00 0.00000000D+00 0.00000000D+00
  <mgrwgt>
 0.1855562696D-05    4    2    0
 0.447882267576250D+03 0.000000000000000D+00 0.000000000000000D+00 0.447882267576250D+03
 0.447882267576250D+03 0.000000000000000D+00 0.000000000000000D+00 -.447882267576250D+03
 0.215342484532195D+03 0.518627080186488D+02 -.173357135388909D+03 -.729019713534705D+02
 0.463470066263098D+02 0.236354924508011D+02 0.817729218424213D+01 0.390197438787195D+02
 0.355407992632169D+03 0.981662368426203D+02 0.280734675835006D+03 0.194592581962418D+03
 0.278667051361827D+03 -.173664437312070D+03 -.115554832630339D+03 -.160710354487666D+03
 0.000000000000000D+00 -.000000000000000D+00 0.000000000000000D+00 -.000000000000000D+00
 0.484620632428660D+03 0.000000000000000D+00 0.000000000000000D+00 0.484620632428660D+03
 0.513597487994531D+03 0.000000000000000D+00 0.000000000000000D+00 -.513597487994531D+03
 0.228689013143400D+03 0.729670323899604D+02 -.182604841517092D+03 -.729019713534705D+02
 0.485085542059792D+02 0.281438720020415D+02 0.620176487189410D+01 0.390197438787195D+02
 0.354958746891491D+03 0.131929179723873D+03 0.265940088323223D+03 0.194592581962418D+03
 0.268445379634134D+03 -.147660790562327D+03 -.126949373349661D+03 -.160710354487666D+03
 0.976164265481873D+02 -.853792935535485D+02 0.374123616716361D+02 -.289768555658709D+02
0.110090449346D-04 0.000000000000D+00 0.000000000000D+00 0.527164655299D-07 0.000000000000D+00  7 -4 4 23 -11 11 23 21 0 0.23915067D-01 0.19853150D+00 0.14163806D+06 0.14163806D+06 0.14163806D+06 0.11095231D+01  1  2  2  1  7  1       -4 0.361329250686D-05 0.100000000000D+01
-.589095419658D-06 0.000000000000D+00 -.422776312971D-07 0.527164655299D-07 0.000000000000D+00  7 -4 4 23 -11 11 23 21 2 0.23915067D-01 0.19853150D+00 0.14163806D+06 0.14163806D+06 0.14163806D+06 0.11095231D+01  1  2  3  1  7  1       -4 -.238019118994D-06 0.100000000000D+01
0.720739565910D-06 0.000000000000D+00 0.000000000000D+00 0.527164655299D-07 0.000000000000D+00  7 -4 4 23 -11 11 23 21 2 0.23915067D-01 0.19853150D+00 0.14163806D+06 0.14163806D+06 0.14163806D+06 0.11095231D+01  1  2 15  1  7  1       -4 0.291208844573D-06 0.100000000000D+01
-.448201139919D-05 0.000000000000D+00 0.000000000000D+00 0.527164655299D-07 0.000000000000D+00  7 -4 4 23 -11 11 23 21 2 0.23915067D-01 0.19853150D+00 0.14163806D+06 0.14163806D+06 0.14163806D+06 0.11095231D+01  1  2  4  1  7  1       -4 -.181091953690D-05 0.100000000000D+01
  </mgrwgt>
  </event>
  <event>
  8     66 0.53686478E-06 0.75258446E+02 0.75467711E-02 0.10269062E+00
       -2 -1    0    0    0  501 0.00000000E+00 0.00000000E+00 0.19846570E+03 0.19846596E+03 0.32000000E+00 0.0000E+00 0.9000E+01
        2 -1    0    0  501    0 0.00000000E+00 0.00000000E+00 -.35025247E+03 0.35025262E+03 0.32000000E+00 0.0000E+00 0.9000E+01
       25  2    1    2    0    0 0.41359844E+02 0.15351953E+03 -.60432137E+02 0.34445612E+03 0.29953145E+03 0.0000E+00 0.0000E+00
       23  2    1    2    0    0 -.41359844E+02 -.15351953E+03 -.91354631E+02 0.20426246E+03 0.89992212E+02 0.0000E+00 0.0000E+00
       23  1    3    3    0    0 -.88159922E+01 0.58273163E+01 0.75089772E+02 0.11859766E+03 0.91188000E+02 0.0000E+00 0.9000E+01
      -11  1    4    4    0    0 -.22144874E+00 -.10750567E+03 -.93537057E+02 0.14250157E+03 0.51099893E-03 0.0000E+00 0.9000E+01
       11  1    4    4    0    0 -.41138396E+02 -.46013865E+02 0.21824267E+01 0.61760880E+02 0.51099893E-03 0.0000E+00 0.9000E+01
       23  1    3    3    0    0 0.50175837E+02 0.14769222E+03 -.13552191E+03 0.22585846E+03 0.91188000E+02 0.0000E+00 0.9000E+01
#aMCatNLO 1  0  0  2  1 0.72445483D+02 0.00000000D+00  -5  7  0 0.00000000D+00 0.00000000D+00 0.00000000D+00 0.00000000D+00 0.00000000D+00
  <mgrwgt>
 0.1789993701D-03    9    2    0
 0.263653585030263D+03 0.000000000000000D+00 0.000000000000000D+00 0.263653585030263D+03
 0.263653585030263D+03 0.000000000000000D+00 0.000000000000000D+00 -.263653585030263D+03
 0.145028128025617D+03 -.881599221032776D+01 0.582731632405333D+01 0.112277456510296D+03
 0.121362987599885D+03 -.221448738530540D+00 -.107505668417164D+03 -.563156903340888D+02
 0.648969094408412D+02 -.411383956376186D+02 -.460138646566160D+02 0.200490777518103D+02
 0.196019144994183D+03 0.501758365864769D+02 0.147692216749726D+03 -.760108439280179D+02
 0.000000000000000D+00 -.000000000000000D+00 0.000000000000000D+00 -.000000000000000D+00
 0.283079055506631D+03 0.000000000000000D+00 0.000000000000000D+00 0.283079055506631D+03
 0.343544862376946D+03 0.000000000000000D+00 0.000000000000000D+00 -.343544862376946D+03
 0.144948846029371D+03 0.630815240505974D+01 -.699260996048274D+01 0.112277456510296D+03
 0.132030139947953D+03 0.129946154612846D+02 -.118708217263526D+03 -.563156903340888D+02
 0.652827782405762D+02 -.343486964592749D+02 -.517691285194054D+02 0.200490777518103D+02
 0.189998697937376D+03 0.703091237195089D+02 0.130626308992651D+03 -.760108439280179D+02
 0.943634557283002D+02 -.552631951265783D+02 0.468436467507630D+02 -.604658068703158D+02
0.139242438668D-05 0.000000000000D+00 0.000000000000D+00 0.668003650595D-07 0.000000000000D+00  7 -2 2 23 -11 11 23 21 0 0.30533216D-01 0.53885026D-01 0.48776526D+05 0.48776526D+05 0.48776526D+05 0.11482430D+01  1  2  2  2  7  2        2 0.148682007695D-03 0.100000000000D+01
-.744058119463D-07 0.000000000000D+00 -.534727627860D-08 0.668003650595D-07 0.000000000000D+00  7 -2 2 23 -11 11 23 21 2 0.30533216D-01 0.53885026D-01 0.48776526D+05 0.48776526D+05 0.48776526D+05 0.11482430D+01  1  2  3  2  7  2        2 -.104751738530D-04 0.100000000000D+01
0.850183321341D-07 0.000000000000D+00 0.000000000000D+00 0.668003650595D-07 0.000000000000D+00  7 -2 2 23 -11 11 23 21 2 0.30533216D-01 0.53885026D-01 0.48776526D+05 0.48776526D+05 0.48776526D+05 0.11482430D+01  1  2 15  2  7  2        2 0.119692506069D-04 0.100000000000D+01
0.164267586921D-05 0.000000000000D+00 0.000000000000D+00 0.668003650595D-07 0.000000000000D+00  7 -2 2 23 -11 11 23 21 2 0.30533216D-01 0.71747625D-01 0.67546828D+05 0.67546828D+05 0.67546828D+05 0.11359790D+01  1  2 12  2  7  2        2 0.165961651233D-03 0.100000000000D+01
-.181707194205D-05 0.000000000000D+00 0.000000000000D+00 0.668003650595D-07 0.000000000000D+00  7 -2 2 23 -11 11 23 21 2 0.30533216D-01 0.53885026D-01 0.48776526D+05 0.48776526D+05 0.48776526D+05 0.11482430D+01  1  2  4  2  7  2        2 -.255815291823D-03 0.100000000000D+01
-.256867023439D-05 0.000000000000D+00 -.720335325468D-06 0.668003650595D-07 0.000000000000D+00  7 -2 2 23 -11 11 23 21 2 0.30533216D-01 0.74091134D-01 0.48776526D+05 0.48776526D+05 0.48776526D+05 0.11482430D+01  1  2  5  2  7  2        2 -.256108421094D-03 0.100000000000D+01
0.269527963293D-05 0.000000000000D+00 0.685294198976D-06 0.668003650595D-07 0.000000000000D+00  7 -2 2 23 -11 11 23 21 2 0.30533216D-01 0.53885026D-01 0.48776526D+05 0.48776526D+05 0.48776526D+05 0.11482430D+01  1  2  6  2  7  2        2 0.379453190534D-03 0.100000000000D+01
0.613859408553D-07 0.000000000000D+00 0.000000000000D+00 0.668003650595D-07 0.000000000000D+00  7 -2 21 23 -11 11 23 -2 2 0.30533216D-01 0.71747625D-01 0.67546828D+05 0.67546828D+05 0.67546828D+05 0.11359790D+01  1  2 12  4  7  2        2 0.134619509597D-04 0.100000000000D+01
-.859600317985D-07 0.000000000000D+00 -.290693539227D-07 0.668003650595D-07 0.000000000000D+00  7 -2 21 23 -11 11 23 -2 2 0.30533216D-01 0.74091134D-01 0.48776526D+05 0.48776526D+05 0.48776526D+05 0.11482430D+01  1  2  5  4  7  2        2 -.181297942014D-04 0.100000000000D+01
  </mgrwgt>
  </event>
  <event>
  8     66 0.53686478E-06 0.20305751E+03 0.75467711E-02 0.97387601E-01
       -2 -1    0    0    0  501 0.00000000E+00 0.00000000E+00 0.10265187E+03 0.10265236E+03 0.32000000E+00 0.0000E+00 0.9000E+01
        2 -1    0    0  501    0 0.00000000E+00 0.00000000E+00 -.15895481E+04 0.15895481E+04 0.32000000E+00 0.0000E+00 0.9000E+01
       25  2    1    2    0    0 0.25216044E+03 0.19733450E+03 -.10849135E+04 0.11702461E+04 0.29985449E+03 0.0000E+00 0.0000E+00
       23  2    1    2    0    0 -.25216044E+03 -.19733450E+03 -.40198268E+03 0.52195440E+03 0.91216932E+02 0.0000E+00 0.0000E+00
       23  1    3    3    0    0 -.18742276E+02 0.78793427E+02 -.21854887E+03 0.25027692E+03 0.91188000E+02 0.0000E+00 0.9000E+01
      -13  1    4    4    0    0 0.39355443E+01 0.51174792E+01 -.87202337E+01 0.10850380E+02 0.10565837E+00 0.0000E+00 0.9000E+01
       13  1    4    4    0    0 -.25609599E+03 -.20245198E+03 -.39326245E+03 0.51110402E+03 0.10565837E+00 0.0000E+00 0.9000E+01
       23  1    3    3    0    0 0.27090272E+03 0.11854107E+03 -.86636468E+03 0.91996917E+03 0.91188000E+02 0.0000E+00 0.9000E+01
#aMCatNLO 1  0  0  1  2 0.24833978D+02 0.00000000D+00  -5  7  0 0.00000000D+00 0.00000000D+00 0.00000000D+00 0.00000000D+00 0.00000000D+00
  <mgrwgt>
 0.4638559861D-03    6    2    0
 0.403943718796102D+03 0.000000000000000D+00 0.000000000000000D+00 0.403943718796102D+03
 0.403943718796102D+03 0.000000000000000D+00 0.000000000000000D+00 -.403943718796102D+03
 0.121996249549713D+03 -.187422756380421D+02 0.787934267071100D+02 0.285597126294214D+01
 0.667737425247182D+01 0.393589315365109D+01 0.511775768572455D+01 0.170429699900677D+01
 0.346769096128571D+03 -.256096335737463D+03 -.202452256282770D+03 0.116946811746566D+03
 0.332444717661448D+03 0.270902718221854D+03 0.118541071889935D+03 -.121507080008515D+03
 0.000000000000000D+00 0.000000000000000D+00 -.000000000000000D+00 -.000000000000000D+00
 0.415335041191373D+03 0.000000000000000D+00 0.000000000000000D+00 0.415335041191373D+03
 0.417900093705700D+03 0.000000000000000D+00 0.000000000000000D+00 -.417900093705700D+03
 0.123616805627736D+03 -.221485593076481D+02 0.804185801811145D+02 0.285597126294214D+01
 0.663907421163663D+01 0.375121404159139D+01 0.520586893236498D+01 0.170429699900677D+01
 0.351358136412066D+03 -.265778310459012D+03 -.197832941985975D+03 0.116946811746566D+03
 0.326655022066433D+03 0.261761996127686D+03 0.122902152089684D+03 -.121507080008515D+03
 0.249660965792008D+02 0.224136595973831D+02 -.106936592171886D+02 -.256505251432721D+01
0.606315782613D-05 0.000000000000D+00 0.000000000000D+00 0.105821623417D-05 0.000000000000D+00  7 -2 2 23 -13 13 23 21 0 0.15792636D-01 0.24454590D+00 0.14604511D+06 0.14604511D+06 0.14604511D+06 0.11084688D+01  1  2  2  1  7  1       -2 0.263116469485D-03 0.100000000000D+01
-.335583301565D-06 0.000000000000D+00 -.232841225184D-07 0.105821623417D-05 0.000000000000D+00  7 -2 2 23 -13 13 23 21 2 0.15792636D-01 0.24454590D+00 0.14604511D+06 0.14604511D+06 0.14604511D+06 0.11084688D+01  1  2  3  1  7  1       -2 -.178935475232D-04 0.100000000000D+01
0.383365332434D-06 0.000000000000D+00 0.000000000000D+00 0.105821623417D-05 0.000000000000D+00  7 -2 2 23 -13 13 23 21 2 0.15792636D-01 0.24454590D+00 0.14604511D+06 0.14604511D+06 0.14604511D+06 0.11084688D+01  1  2 15  1  7  1       -2 0.204413204193D-04 0.100000000000D+01
0.102693849980D-04 0.000000000000D+00 0.000000000000D+00 0.105821623417D-05 0.000000000000D+00  7 -2 2 23 -13 13 23 21 2 0.16502442D-01 0.24454590D+00 0.15577794D+06 0.15577794D+06 0.15577794D+06 0.11062589D+01  1  2 12  1  7  1       -2 0.507173237323D-03 0.100000000000D+01
-.719679464276D-05 0.000000000000D+00 0.000000000000D+00 0.105821623417D-05 0.000000000000D+00  7 -2 2 23 -13 13 23 21 2 0.15792636D-01 0.24454590D+00 0.14604511D+06 0.14604511D+06 0.14604511D+06 0.11084688D+01  1  2  4  1  7  1       -2 -.383738363483D-03 0.100000000000D+01
0.114877841130D-06 0.000000000000D+00 0.000000000000D+00 0.105821623417D-05 0.000000000000D+00  7 21 2 23 -13 13 23 2 2 0.16502442D-01 0.24454590D+00 0.15577794D+06 0.15577794D+06 0.15577794D+06 0.11062589D+01  1  2 12  3  7  1       -2 0.747568699224D-04 0.100000000000D+01
  </mgrwgt>
  </event>
  <event>
  8     66 0.53686478E-06 0.35257996E+03 0.75467711E-02 0.92055273E-01
       -2 -1    0    0    0  501 0.00000000E+00 0.00000000E+00 0.68148598E+03 0.68148606E+03 0.32000000E+00 0.0000E+00 0.9000E+01
        2 -1    0    0  501    0 0.00000000E+00 0.00000000E+00 -.15287031E+04 0.15287031E+04 0.32000000E+00 0.0000E+00 0.9000E+01
       25  2    1    2    0    0 -.49319725E+03 -.20262959E+01 0.50563859E+03 0.76740529E+03 0.29998810E+03 0.0000E+00 0.0000E+00
       23  2    1    2    0    0 0.49319725E+03 0.20262959E+01 -.13528557E+04 0.14427839E+04 0.90328236E+02 0.0000E+00 0.0000E+00
       23  1    3    3    0    0 -.37280208E+03 0.71715009E+02 0.43658403E+03 0.58570070E+03 0.91188000E+02 0.0000E+00 0.9000E+01
      -13  1    4    4    0    0 0.32068164E+03 -.34142303E+02 -.80188221E+03 0.86430174E+03 0.10565837E+00 0.0000E+00 0.9000E+01
       13  1    4    4    0    0 0.17251560E+03 0.36168599E+02 -.55097351E+03 0.57848217E+03 0.10565837E+00 0.0000E+00 0.9000E+01
       23  1    3    3    0    0 -.12039516E+03 -.73741305E+02 0.69054558E+02 0.18170459E+03 0.91188000E+02 0.0000E+00 0.9000E+01
#aMCatNLO 1  0  0  2  1 0.19368531D+03 0.00000000D+00  -5  7  0 0.00000000D+00 0.00000000D+00 0.00000000D+00 0.00000000D+00 0.00000000D+00
  <mgrwgt>
 0.2352411142D-03    9    2    0
 0.102068107805942D+04 0.000000000000000D+00 0.000000000000000D+00 0.102068107805942D+04
 0.102068107805942D+04 0.000000000000000D+00 0.000000000000000D+00 -.102068107805942D+04
 0.815333439591592D+03 -.372802083114133D+03 0.717150091879130D+02 0.715771563178642D+03
 0.602981006586677D+03 0.320681845887058D+03 -.341423990132636D+02 -.509493419596731D+03
 0.397656182912513D+03 0.172515402006551D+03 0.361686949077481D+02 -.356455749550682D+03
 0.225391527028067D+03 -.120395164779476D+03 -.737413050823974D+02 0.150177605968771D+03
 0.000000000000000D+00 -.000000000000000D+00 0.000000000000000D+00 -.000000000000000D+00
 0.111620379615345D+04 0.000000000000000D+00 0.000000000000000D+00 0.111620379615345D+04
 0.112839484898746D+04 0.000000000000000D+00 0.000000000000000D+00 -.112839484898746D+04
 0.805969447758640D+03 -.359065756900453D+03 -.378826380734812D+01 0.715771563178642D+03
 0.614322253820201D+03 0.330995325753398D+03 -.908316093425780D+02 -.509493419596731D+03
 0.398995603991724D+03 0.179264954424553D+03 -.930984503234022D+00 -.356455749550682D+03
 0.231242736484131D+03 -.116526376749252D+03 -.950065367216869D+02 0.150177605968771D+03
 0.194068603086219D+03 -.346681465282457D+02 0.190557394374847D+03 -.121910528340095D+02
0.125335437671D-03 0.000000000000D+00 0.000000000000D+00 0.490217710520D-05 0.000000000000D+00  7 -2 2 23 -13 13 23 21 0 0.10484401D+00 0.23518510D+00 0.27945344D+06 0.27945344D+06 0.27945344D+06 0.10868388D+01  1  2  2  2  7  2        2 0.147542640434D-03 0.100000000000D+01
-.329834838491D-05 0.000000000000D+00 -.481321082235D-06 0.490217710520D-05 0.000000000000D+00  7 -2 2 23 -13 13 23 21 2 0.10484401D+00 0.23518510D+00 0.27945344D+06 0.27945344D+06 0.27945344D+06 0.10868388D+01  1  2  3  2  7  2        2 -.458638490299D-05 0.100000000000D+01
0.719325980627D-05 0.000000000000D+00 0.000000000000D+00 0.490217710520D-05 0.000000000000D+00  7 -2 2 23 -13 13 23 21 2 0.10484401D+00 0.23518510D+00 0.27945344D+06 0.27945344D+06 0.27945344D+06 0.10868388D+01  1  2 15  2  7  2        2 0.100022964007D-04 0.100000000000D+01
0.108647275223D-03 0.000000000000D+00 0.000000000000D+00 0.490217710520D-05 0.000000000000D+00  7 -2 2 23 -13 13 23 21 2 0.10484401D+00 0.26994818D+00 0.39848196D+06 0.39848196D+06 0.39848196D+06 0.10755467D+01  1  2 12  2  7  2        2 0.108921773803D-03 0.100000000000D+01
-.105210674245D-03 0.000000000000D+00 0.000000000000D+00 0.490217710520D-05 0.000000000000D+00  7 -2 2 23 -13 13 23 21 2 0.10484401D+00 0.23518510D+00 0.27945344D+06 0.27945344D+06 0.27945344D+06 0.10868388D+01  1  2  4  2  7  2        2 -.146296446487D-03 0.100000000000D+01
-.274372692005D-03 0.000000000000D+00 -.976751192409D-04 0.490217710520D-05 0.000000000000D+00  7 -2 2 23 -13 13 23 21 2 0.10484401D+00 0.27373661D+00 0.27945344D+06 0.27945344D+06 0.27945344D+06 0.10868388D+01  1  2  5  2  7  2        2 -.278565834658D-03 0.100000000000D+01
0.287000929533D-03 0.000000000000D+00 0.965605431791D-04 0.490217710520D-05 0.000000000000D+00  7 -2 2 23 -13 13 23 21 2 0.10484401D+00 0.23518510D+00 0.27945344D+06 0.27945344D+06 0.27945344D+06 0.10868388D+01  1  2  6  2  7  2        2 0.399077531160D-03 0.100000000000D+01
0.231344897306D-05 0.000000000000D+00 0.000000000000D+00 0.490217710520D-05 0.000000000000D+00  7 -2 21 23 -13 13 23 -2 2 0.10484401D+00 0.26994818D+00 0.39848196D+06 0.39848196D+06 0.39848196D+06 0.10755467D+01  1  2 12  4  7  2        2 0.593991158965D-06 0.100000000000D+01
-.562661568088D-05 0.000000000000D+00 -.224958139217D-05 0.490217710520D-05 0.000000000000D+00  7 -2 21 23 -13 13 23 -2 2 0.10484401D+00 0.27373661D+00 0.27945344D+06 0.27945344D+06 0.27945344D+06 0.10868388D+01  1  2  5  4  7  2        2 -.144845267050D-05 0.100000000000D+01
  </mgrwgt>
  </event>
  <event>
  8     66 0.53686478E-06 0.21189357E+03 0.75467711E-02 0.98540576E-01
       -2 -1    0    0    0  501 0.00000000E+00 0.00000000E+00 0.98483630E+02 0.98484149E+02 0.32000000E+00 0.0000E+00 0.9000E+01
        2 -1    0    0  501    0 0.00000000E+00 0.00000000E+00 -.60584210E+03 0.60584218E+03 0.32000000E+00 0.0000E+00 0.9000E+01
       25  2    1    2    0    0 0.94031636E+02 -.85190750E+02 -.37399605E+03 0.49749660E+03 0.30253992E+03 0.0000E+00 0.0000E+00
       23  2    1    2    0    0 -.94031636E+02 0.85190750E+02 -.13336242E+03 0.20682974E+03 0.94305849E+02 0.0000E+00 0.0000E+00
       23  1    3    3    0    0 -.29436365E+02 -.78281604E+02 -.30485818E+03 0.32901105E+03 0.91188000E+02 0.0000E+00 0.9000E+01
      -11  1    4    4    0    0 0.12395714E+02 0.61339039E+01 0.54610920E+01 0.14869500E+02 0.51099893E-03 0.0000E+00 0.9000E+01
       11  1    4    4    0    0 -.10642735E+03 0.79056846E+02 -.13882351E+03 0.19196024E+03 0.51099893E-03 0.0000E+00 0.9000E+01
       23  1    3    3    0    0 0.12346800E+03 -.69091459E+01 -.69137877E+02 0.16848555E+03 0.91188000E+02 0.0000E+00 0.9000E+01
#aMCatNLO 1  0  0  2  1 0.23830618D+03 0.00000000D+00  -5  7  0 0.00000000D+00 0.00000000D+00 0.00000000D+00 0.00000000D+00 0.00000000D+00
  <mgrwgt>
 0.3656996918D-03    3    2    0
 0.244265719438142D+03 0.000000000000000D+00 0.000000000000000D+00 0.244265719438142D+03
 0.244265719438142D+03 0.000000000000000D+00 0.000000000000000D+00 -.244265719438142D+03
 0.157735529809419D+03 -.294363644688715D+02 -.782816039183626D+02 -.978301433868038D+02
 0.271092309873056D+02 0.123957139431940D+02 0.613390394668905D+01 0.233159152283239D+02
 0.132579730911583D+03 -.106427350753691D+03 0.790568461746940D+02 -.786850080595553D+00
 0.171106947167975D+03 0.123468001279369D+03 -.690914620302046D+01 0.753010782390754D+02
 0.000000000000000D+00 -.000000000000000D+00 -.000000000000000D+00 0.000000000000000D+00
 0.572364616113623D+03 0.000000000000000D+00 0.000000000000000D+00 0.572364616113623D+03
 0.319010334165072D+03 0.000000000000000D+00 0.000000000000000D+00 -.319010334165072D+03
 0.135348944924910D+03 0.521431171196620D+01 -.201534003724955D+02 -.978301433868038D+02
 0.358288214829322D+02 0.198367292940605D+02 0.186165710278667D+02 0.233159152283239D+02
 0.154055055073888D+03 -.725392058413777D+02 0.135905866233476D+03 -.786850080595553D+00
 0.218322882136730D+03 0.169509358204290D+03 0.703274812409126D+02 0.753010782390754D+02
 0.347819246660235D+03 -.122021193368939D+03 -.204696518129760D+03 0.253354281948552D+03
0.192838588366D-05 0.000000000000D+00 0.000000000000D+00 0.245063047541D-08 0.000000000000D+00  7 -2 2 23 -11 11 23 21 0 0.15151374D-01 0.93206523D-01 0.44898886D+05 0.44898886D+05 0.44898886D+05 0.11514290D+01  1  2  2  2  7  2        2 0.360468763218D-03 0.100000000000D+01
-.104499650007D-06 0.000000000000D+00 -.740550954891D-08 0.245063047541D-08 0.000000000000D+00  7 -2 2 23 -11 11 23 21 2 0.15151374D-01 0.93206523D-01 0.44898886D+05 0.44898886D+05 0.44898886D+05 0.11514290D+01  1  2  3  2  7  2        2 -.258977969018D-04 0.100000000000D+01
0.125606858928D-06 0.000000000000D+00 0.000000000000D+00 0.245063047541D-08 0.000000000000D+00  7 -2 2 23 -11 11 23 21 2 0.15151374D-01 0.93206523D-01 0.44898886D+05 0.44898886D+05 0.44898886D+05 0.11514290D+01  1  2 15  2  7  2        2 0.311287255197D-04 0.100000000000D+01
  </mgrwgt>
  </event>
  <event>
  8     66 0.53686478E-06 0.20559949E+03 0.75467711E-02 0.95839034E-01
       -2 -1    0    0    0  501 0.00000000E+00 0.00000000E+00 0.15415671E+03 0.15415704E+03 0.32000000E+00 0.0000E+00 0.9000E+01
        2 -1    0    0  501    0 0.00000000E+00 0.00000000E+00 -.14889957E+04 0.14889957E+04 0.32000000E+00 0.0000E+00 0.9000E+01
       25  2    1    2    0    0 0.33670032E+03 -.23780545E+03 -.91611711E+03 0.10484805E+04 0.30020374E+03 0.0000E+00 0.0000E+00
       23  2    1    2    0    0 -.33670032E+03 0.23780545E+03 -.41872183E+03 0.59467222E+03 0.91589007E+02 0.0000E+00 0.0000E+00
       23  1    3    3    0    0 0.11280235E+03 -.13800348E+03 -.18733561E+03 0.27418828E+03 0.91188000E+02 0.0000E+00 0.9000E+01
      -13  1    4    4    0    0 -.45975679E+02 0.66381518E+02 -.50797336E+02 0.95397324E+02 0.10565837E+00 0.0000E+00 0.9000E+01
       13  1    4    4    0    0 -.29072464E+03 0.17142393E+03 -.36792450E+03 0.49927490E+03 0.10565837E+00 0.0000E+00 0.9000E+01
       23  1    3    3    0    0 0.22389797E+03 -.99801965E+02 -.72878149E+03 0.77429222E+03 0.91188000E+02 0.0000E+00 0.9000E+01
#aMCatNLO 1  0  0  2  1 0.18929202D+02 0.00000000D+00  -5  7  0 0.00000000D+00 0.00000000D+00 0.00000000D+00 0.00000000D+00 0.00000000D+00
  <mgrwgt>
 0.3170432079D-03    9    2    0
 0.479102257631186D+03 0.000000000000000D+00 0.000000000000000D+00 0.479102257631186D+03
 0.479102257631186D+03 0.000000000000000D+00 0.000000000000000D+00 -.479102257631186D+03
 0.209214576123976D+03 0.112802348823321D+03 -.138003480472592D+03 0.607137298815311D+02
 0.928254768349765D+02 -.459753529527948D+02 0.663813778517130D+02 0.457859011597982D+02
 0.343627358241186D+03 -.290724963226556D+03 0.171424067251641D+03 0.645952494819808D+02
 0.312537104062233D+03 0.223897967356029D+03 -.998019646307615D+02 -.171094880523310D+03
 0.000000000000000D+00 -.000000000000000D+00 0.000000000000000D+00 -.000000000000000D+00
 0.482638421777600D+03 0.000000000000000D+00 0.000000000000000D+00 0.482638421777600D+03
 0.505215719941060D+03 0.000000000000000D+00 0.000000000000000D+00 -.505215719941060D+03
 0.212776104053824D+03 0.115487724985793D+03 -.141190819438809D+03 0.607137298815311D+02
 0.912555255182428D+02 -.448039367132824D+02 0.649909951269253D+02 0.457859011597982D+02
 0.337404112420471D+03 -.286391157379382D+03 0.166280166578893D+03 0.645952494819808D+02
 0.316955726961192D+03 0.227903802371543D+03 -.104556588662813D+03 -.171094880523310D+03
 0.294626727649298D+02 -.121964332646715D+02 0.144762463958027D+02 -.225772981634597D+02
0.524988932825D-05 0.000000000000D+00 0.000000000000D+00 0.903222066068D-06 0.000000000000D+00  7 -2 2 23 -13 13 23 21 0 0.23716445D-01 0.22907628D+00 0.19360265D+06 0.19360265D+06 0.19360265D+06 0.10989114D+01  1  2  2  2  7  2        2 0.130752631745D-03 0.100000000000D+01
-.289090420217D-06 0.000000000000D+00 -.201609573481D-07 0.903222066068D-06 0.000000000000D+00  7 -2 2 23 -13 13 23 21 2 0.23716445D-01 0.22907628D+00 0.19360265D+06 0.19360265D+06 0.19360265D+06 0.10989114D+01  1  2  3  2  7  2        2 -.869479477927D-05 0.100000000000D+01
0.310992465292D-06 0.000000000000D+00 0.000000000000D+00 0.903222066068D-06 0.000000000000D+00  7 -2 2 23 -13 13 23 21 2 0.23716445D-01 0.22907628D+00 0.19360265D+06 0.19360265D+06 0.19360265D+06 0.10989114D+01  1  2 15  2  7  2        2 0.935352911929D-05 0.100000000000D+01
0.306390713811D-04 0.000000000000D+00 0.000000000000D+00 0.903222066068D-06 0.000000000000D+00  7 -2 2 23 -13 13 23 21 2 0.23716445D-01 0.24237976D+00 0.20239667D+06 0.20239667D+06 0.20239667D+06 0.10974283D+01  1  2 12  2  7  2        2 0.823473511923D-03 0.100000000000D+01
-.312244491595D-04 0.000000000000D+00 0.000000000000D+00 0.903222066068D-06 0.000000000000D+00  7 -2 2 23 -13 13 23 21 2 0.23716445D-01 0.22907628D+00 0.19360265D+06 0.19360265D+06 0.19360265D+06 0.10989114D+01  1  2  4  2  7  2        2 -.939118554443D-03 0.100000000000D+01
-.947579184314D-04 0.000000000000D+00 -.105251382116D-04 0.903222066068D-06 0.000000000000D+00  7 -2 2 23 -13 13 23 21 2 0.23716445D-01 0.24231601D+00 0.19360265D+06 0.19360265D+06 0.19360265D+06 0.10989114D+01  1  2  5  2  7  2        2 -.255837162039D-02 0.100000000000D+01
0.952155537215D-04 0.000000000000D+00 0.105085458439D-04 0.903222066068D-06 0.000000000000D+00  7 -2 2 23 -13 13 23 21 2 0.23716445D-01 0.22907628D+00 0.19360265D+06 0.19360265D+06 0.19360265D+06 0.10989114D+01  1  2  6  2  7  2        2 0.286373965205D-02 0.100000000000D+01
0.447106063473D-06 0.000000000000D+00 0.000000000000D+00 0.903222066068D-06 0.000000000000D+00  7 -2 21 23 -13 13 23 -2 2 0.23716445D-01 0.24237976D+00 0.20239667D+06 0.20239667D+06 0.20239667D+06 0.10974283D+01  1  2 12  4  7  2        2 0.391446246892D-05 0.100000000000D+01
-.907733756192D-06 0.000000000000D+00 -.102114423898D-06 0.903222066068D-06 0.000000000000D+00  7 -2 21 23 -13 13 23 -2 2 0.23716445D-01 0.24231601D+00 0.19360265D+06 0.19360265D+06 0.19360265D+06 0.10989114D+01  1  2  5  4  7  2        2 -.800560981439D-05 0.100000000000D+01
  </mgrwgt>
  </event>
  <event>
  8     66 0.53686478E-06 0.15971813E+03 0.75467711E-02 0.99824863E-01
       -2 -1    0    0    0  501 0.00000000E+00 0.00000000E+00 0.96924333E+02 0.96924861E+02 0.32000000E+00 0.0000E+00 0.9000E+01
        2 -1    0    0  501    0 0.00000000E+00 0.00000000E+00 -.13559090E+04 0.13559090E+04 0.32000000E+00 0.0000E+00 0.9000E+01
       25  2    1    2    0    0 -.16157942E+03 0.74074000E+02 -.26260112E+03 0.43670547E+03 0.30026230E+03 0.0000E+00 0.0000E+00
       23  2    1    2    0    0 0.16157942E+03 -.74074000E+02 -.99638355E+03 0.10161284E+04 0.90232758E+02 0.0000E+00 0.0000E+00
       23  1    3    3    0    0 -.13737440E+03 0.40244018E+02 -.15955686E+02 0.17047329E+03 0.91188000E+02 0.0000E+00 0.9000E+01
      -13  1    4    4    0    0 0.85415517E+02 -.66700769E+02 -.75948586E+03 0.76717898E+03 0.10565837E+00 0.0000E+00 0.9000E+01
       13  1    4    4    0    0 0.76163902E+02 -.73732313E+01 -.23689768E+03 0.24894945E+03 0.10565837E+00 0.0000E+00 0.9000E+01
       23  1    3    3    0    0 -.24205016E+02 0.33829983E+02 -.24664543E+03 0.26623218E+03 0.91188000E+02 0.0000E+00 0.9000E+01
#aMCatNLO 1  0  0  1  2 0.17566081D+03 0.00000000D+00  -5  7  0 0.00000000D+00 0.00000000D+00 0.00000000D+00 0.00000000D+00 0.00000000D+00
  <mgrwgt>
 0.2322798562D-03    9    2    0
 0.362520325792007D+03 0.000000000000000D+00 0.000000000000000D+00 0.362520325792007D+03
 0.362520325792007D+03 0.000000000000000D+00 0.000000000000000D+00 -.362520325792007D+03
 0.313887795083168D+03 -.137374403709854D+03 0.402440177852425D+02 0.264043535796724D+03
 0.218474241267787D+03 0.854155295994565D+02 -.667008503043926D+02 -.189700231864514D+03
 0.874868421488464D+02 0.761638897113384D+02 -.737315005983469D+01 -.424104481397144D+02
 0.105191773084213D+03 -.242050156009413D+02 0.338299825789848D+02 -.319328557924954D+02
 0.000000000000000D+00 -.000000000000000D+00 0.000000000000000D+00 0.000000000000000D+00
 0.477014756385471D+03 0.000000000000000D+00 0.000000000000000D+00 0.477014756385471D+03
 0.447178444993497D+03 0.000000000000000D+00 0.000000000000000D+00 -.447178444993497D+03
 0.288307633402657D+03 -.690982090018642D+02 0.176773541838020D+02 0.264043535796724D+03
 0.249515038658654D+03 0.138475592306760D+03 -.842382744521233D+02 -.189700231864514D+03
 0.108099055008150D+03 0.983391839177476D+02 -.147025334087350D+02 -.424104481397144D+02
 0.100094805182417D+03 -.929869816603574D+00 0.261370760332108D+02 -.319328557924954D+02
 0.178176669127090D+03 -.166786697406040D+03 0.551263776438456D+02 0.298363113919738D+02
0.364187348727D-05 0.000000000000D+00 0.000000000000D+00 0.402803548236D-06 0.000000000000D+00  7 -2 2 23 -13 13 23 21 0 0.14911479D-01 0.20860143D+00 0.51721254D+05 0.51721254D+05 0.51721254D+05 0.11460047D+01  1  2  2  1  7  1       -2 0.235985907713D-03 0.100000000000D+01
-.148844505322D-06 0.000000000000D+00 -.139857531184D-07 0.402803548236D-06 0.000000000000D+00  7 -2 2 23 -13 13 23 21 2 0.14911479D-01 0.20860143D+00 0.51721254D+05 0.51721254D+05 0.51721254D+05 0.11460047D+01  1  2  3  1  7  1       -2 -.126667974162D-04 0.100000000000D+01
0.222907858477D-06 0.000000000000D+00 0.000000000000D+00 0.402803548236D-06 0.000000000000D+00  7 -2 2 23 -13 13 23 21 2 0.14911479D-01 0.20860143D+00 0.51721254D+05 0.51721254D+05 0.51721254D+05 0.11460047D+01  1  2 15  1  7  1       -2 0.189696534629D-04 0.100000000000D+01
0.167129506844D-06 0.000000000000D+00 0.000000000000D+00 0.402803548236D-06 0.000000000000D+00  7 -2 2 23 -13 13 23 21 2 0.20900585D-01 0.20860143D+00 0.10491472D+06 0.10491472D+06 0.10491472D+06 0.11200162D+01  1  2 12  1  7  1       -2 0.775784181117D-05 0.100000000000D+01
-.144782681301D-05 0.000000000000D+00 0.000000000000D+00 0.402803548236D-06 0.000000000000D+00  7 -2 2 23 -13 13 23 21 2 0.14911479D-01 0.20860143D+00 0.51721254D+05 0.51721254D+05 0.51721254D+05 0.11460047D+01  1  2  4  1  7  1       -2 -.123211326441D-03 0.100000000000D+01
-.106392610230D-05 0.000000000000D+00 -.133070124178D-05 0.402803548236D-06 0.000000000000D+00  7 -2 2 23 -13 13 23 21 2 0.24499874D-01 0.20860143D+00 0.51721254D+05 0.51721254D+05 0.51721254D+05 0.11460047D+01  1  2  5  1  7  1       -2 -.402638554489D-04 0.100000000000D+01
0.166401410407D-05 0.000000000000D+00 0.118197562716D-05 0.402803548236D-06 0.000000000000D+00  7 -2 2 23 -13 13 23 21 2 0.14911479D-01 0.20860143D+00 0.51721254D+05 0.51721254D+05 0.51721254D+05 0.11460047D+01  1  2  6  1  7  1       -2 0.141609053747D-03 0.100000000000D+01
0.703512928440D-08 0.000000000000D+00 0.000000000000D+00 0.402803548236D-06 0.000000000000D+00  7 21 2 23 -13 13 23 2 2 0.20900585D-01 0.20860143D+00 0.10491472D+06 0.10491472D+06 0.10491472D+06 0.11200162D+01  1  2 12  3  7  1       -2 0.415057659376D-05 0.100000000000D+01
-.107759913424D-09 0.000000000000D+00 -.746168972331D-07 0.402803548236D-06 0.000000000000D+00  7 21 2 23 -13 13 23 2 2 0.24499874D-01 0.20860143D+00 0.51721254D+05 0.51721254D+05 0.51721254D+05 0.11460047D+01  1  2  5  3  7  1       -2 -.511978066057D-07 0.100000000000D+01
  </mgrwgt>
  </event>
  <event>
  8     66 0.53686478E-06 0.14748485E+03 0.75467711E-02 0.95789903E-01
       -2 -1    0    0    0  501 0.00000000E+00 0.00000000E+00 0.64118563E+02 0.64119361E+02 0.32000000E+00 0.0000E+00 0.9000E+01
        2 -1    0    0  501    0 0.00000000E+00 0.00000000E+00 -.21083043E+04 0.21083043E+04 0.32000000E+00 0.0000E+00 0.9000E+01
       25  2    1    2    0    0 -.25062977E+03 0.14155270E+03 -.14014998E+04 0.14622250E+04 0.30174172E+03 0.0000E+00 0.0000E+00
       23  2    1    2    0    0 0.25062977E+03 -.14155270E+03 -.64268599E+03 0.71019865E+03 0.92110752E+02 0.0000E+00 0.0000E+00
       23  1    3    3    0    0 -.22899290E+03 0.16687232E+03 -.81309133E+03 0.86586193E+03 0.91188000E+02 0.0000E+00 0.9000E+01
      -13  1    4    4    0    0 0.12661743E+02 -.25876655E+02 -.24686104E+02 0.37938581E+02 0.10565837E+00 0.0000E+00 0.9000E+01
       13  1    4    4    0    0 0.23796803E+03 -.11567605E+03 -.61799988E+03 0.67226007E+03 0.10565837E+00 0.0000E+00 0.9000E+01
       23  1    3    3    0    0 -.21636873E+02 -.25319616E+02 -.58840843E+03 0.59636312E+03 0.91188000E+02 0.0000E+00 0.9000E+01
#aMCatNLO 1  0  0  2  1 0.19064321D+03 0.00000000D+00  -5  7  0 0.00000000D+00 0.00000000D+00 0.00000000D+00 0.00000000D+00 0.00000000D+00
  <mgrwgt>
 0.3173585669D-03    7    2    0
 0.367671505063771D+03 0.000000000000000D+00 0.000000000000000D+00 0.367671505063771D+03
 0.367671505063771D+03 0.000000000000000D+00 0.000000000000000D+00 -.367671505063771D+03
 0.297696802945191D+03 -.228992896663025D+03 0.166872319239021D+03 0.490076417054935D+01
 0.434565535472533D+02 0.126614474656382D+02 -.258765371356602D+02 0.325355900537700D+02
 0.268075388696877D+03 0.237968324486551D+03 -.115676168355416D+03 0.430640759874721D+02
 0.126114264938220D+03 -.216368752891645D+02 -.253196137479448D+02 -.805004302117914D+02
 0.000000000000000D+00 -.000000000000000D+00 -.000000000000000D+00 -.000000000000000D+00
 0.398799940860358D+03 0.000000000000000D+00 0.000000000000000D+00 0.398799940860358D+03
 0.858730289967625D+03 0.000000000000000D+00 0.000000000000000D+00 -.858730289967625D+03
 0.267946542779304D+03 -.161790980272797D+03 0.193079671784197D+03 0.490076417054935D+01
 0.455140495264238D+02 0.232317035716078D+02 -.217543566512027D+02 0.325355900537700D+02
 0.323520868366963D+03 0.308253606731062D+03 -.882663671255961D+02 0.430640759874721D+02
 0.122672522636252D+03 0.792052872512433D+01 -.137928396776251D+02 -.805004302117914D+02
 0.497876247519041D+03 -.177614858754997D+03 -.692661083297736D+02 -.459930349107266D+03
0.654918755766D-05 0.000000000000D+00 0.000000000000D+00 0.455756446347D-07 0.000000000000D+00  7 -2 2 23 -13 13 23 21 0 0.98644575D-02 0.32435457D+00 0.11838355D+06 0.11838355D+06 0.11838355D+06 0.11157568D+01  1  2  2  2  7  2        2 0.315411680557D-03 0.100000000000D+01
-.361896404920D-06 0.000000000000D+00 -.251506046621D-07 0.455756446347D-07 0.000000000000D+00  7 -2 2 23 -13 13 23 21 2 0.98644575D-02 0.32435457D+00 0.11838355D+06 0.11838355D+06 0.11838355D+06 0.11157568D+01  1  2  3  2  7  2        2 -.216977000309D-04 0.100000000000D+01
0.415027424898D-06 0.000000000000D+00 0.000000000000D+00 0.455756446347D-07 0.000000000000D+00  7 -2 2 23 -13 13 23 21 2 0.98644575D-02 0.32435457D+00 0.11838355D+06 0.11838355D+06 0.11838355D+06 0.11157568D+01  1  2 15  2  7  2        2 0.248831998539D-04 0.100000000000D+01
0.474484169455D-05 0.000000000000D+00 0.000000000000D+00 0.455756446347D-07 0.000000000000D+00  7 -2 2 23 -13 13 23 21 2 0.98644575D-02 0.75236693D+00 0.20411360D+06 0.20411360D+06 0.20411360D+06 0.10971469D+01  1  2 12  2  7  2        2 0.211463084532D-05 0.100000000000D+01
-.835317875757D-05 0.000000000000D+00 -.151643342396D-05 0.455756446347D-07 0.000000000000D+00  7 -2 2 23 -13 13 23 21 2 0.98644575D-02 0.76265240D+00 0.11838355D+06 0.11838355D+06 0.11838355D+06 0.11157568D+01  1  2  5  2  7  2        2 -.335275244253D-05 0.100000000000D+01
0.434894158417D-06 0.000000000000D+00 0.000000000000D+00 0.455756446347D-07 0.000000000000D+00  7 -2 21 23 -13 13 23 -2 2 0.98644575D-02 0.75236693D+00 0.20411360D+06 0.20411360D+06 0.20411360D+06 0.10971469D+01  1  2 12  4  7  2        2 0.147171472117D-08 0.100000000000D+01
-.683531258630D-06 0.000000000000D+00 -.141465200173D-06 0.455756446347D-07 0.000000000000D+00  7 -2 21 23 -13 13 23 -2 2 0.98644575D-02 0.76265240D+00 0.11838355D+06 0.11838355D+06 0.11838355D+06 0.11157568D+01  1  2  5  4  7  2        2 -.196357413654D-08 0.100000000000D+01
  </mgrwgt>
  </event>
  <event>
  8     66 0.53686478E-06 0.25699112E+03 0.75467711E-02 0.96820088E-01
       -2 -1    0    0    0  501 0.00000000E+00 0.00000000E+00 0.23797681E+03 0.23797702E+03 0.32000000E+00 0.0000E+00 0.9000E+01
        2 -1    0    0  501    0 0.00000000E+00 0.00000000E+00 -.75507220E+03 0.75507227E+03 0.32000000E+00 0.0000E+00 0.9000E+01
       25  2    1    2    0    0 0.80043217E+02 0.33982115E+03 -.16237596E+03 0.48840004E+03 0.30047183E+03 0.0000E+00 0.0000E+00
       23  2    1    2    0    0 -.80043217E+02 -.33982115E+03 -.35471944E+03 0.50464925E+03 0.83424565E+02 0.0000E+00 0.0000E+00
       23  1    3    3    0    0 0.16068678E+03 0.22716379E+03 -.12500980E+03 0.31838079E+03 0.91188000E+02 0.0000E+00 0.9000E+01
      -13  1    4    4    0    0 0.10113535E+02 -.19572119E+02 -.44989855E+02 0.50094408E+02 0.10565837E+00 0.0000E+00 0.9000E+01
       13  1    4    4    0    0 -.90156752E+02 -.32024903E+03 -.30972958E+03 0.45455484E+03 0.10565837E+00 0.0000E+00 0.9000E+01
       23  1    3    3    0    0 -.80643562E+02 0.11265736E+03 -.37366160E+02 0.17001925E+03 0.91188000E+02 0.0000E+00 0.9000E+01
#aMCatNLO 1  0  0  2  1 0.14321541D+02 0.00000000D+00  -5  7  0 0.00000000D+00 0.00000000D+00 0.00000000D+00 0.00000000D+00 0.00000000D+00
  <mgrwgt>
 0.4998845530D-03    9    2    0
 0.423898350513331D+03 0.000000000000000D+00 0.000000000000000D+00 0.423898350513331D+03
 0.423898350513331D+03 0.000000000000000D+00 0.000000000000000D+00 -.423898350513331D+03
 0.296681772528576D+03 0.160686778291586D+03 0.227163788307256D+03 0.477618610490064D+02
 0.312359605551000D+02 0.101136956734982D+02 -.195716370501170D+02 -.221438346905434D+02
 0.343521090284768D+03 -.901569126283246D+02 -.320249509152321D+03 -.855495322223439D+02
 0.176357877658219D+03 -.806435613367598D+02 0.112657357895182D+03 0.599315058638809D+02
 0.000000000000000D+00 0.000000000000000D+00 -.000000000000000D+00 -.000000000000000D+00
 0.428107887318181D+03 0.000000000000000D+00 0.000000000000000D+00 0.428107887318181D+03
 0.436317445777843D+03 0.000000000000000D+00 0.000000000000000D+00 -.436317445777843D+03
 0.297872196251645D+03 0.157419746400577D+03 0.230977102822102D+03 0.477618610490064D+02
 0.308781883163402D+02 0.977238283075962D+01 -.191732530548765D+02 -.221438346905434D+02
 0.340452695912668D+03 -.939153000741369D+02 -.315862679186267D+03 -.855495322223439D+02
 0.178714576368559D+03 -.825946592889009D+02 0.114934700262503D+03 0.599315058638809D+02
 0.165076762468105D+02 0.931783013170120D+01 -.108758708434619D+02 -.820955845966201D+01
0.643065864316D-05 0.000000000000D+00 0.000000000000D+00 0.154827290313D-07 0.000000000000D+00  7 -2 2 23 -13 13 23 21 0 0.36611838D-01 0.11616498D+00 0.16540602D+06 0.16540602D+06 0.16540602D+06 0.11042167D+01  1  2  2  2  7  2        2 0.206329114393D-03 0.100000000000D+01
-.356513792923D-06 0.000000000000D+00 -.246954224210D-07 0.154827290313D-07 0.000000000000D+00  7 -2 2 23 -13 13 23 21 2 0.36611838D-01 0.11616498D+00 0.16540602D+06 0.16540602D+06 0.16540602D+06 0.11042167D+01  1  2  3  2  7  2        2 -.139472961080D-04 0.100000000000D+01
0.403770424920D-06 0.000000000000D+00 0.000000000000D+00 0.154827290313D-07 0.000000000000D+00  7 -2 2 23 -13 13 23 21 2 0.36611838D-01 0.11616498D+00 0.16540602D+06 0.16540602D+06 0.16540602D+06 0.11042167D+01  1  2 15  2  7  2        2 0.157960387166D-04 0.100000000000D+01
0.141411042296D-04 0.000000000000D+00 0.000000000000D+00 0.154827290313D-07 0.000000000000D+00  7 -2 2 23 -13 13 23 21 2 0.36611838D-01 0.12013357D+00 0.17129444D+06 0.17129444D+06 0.17129444D+06 0.11030309D+01  1  2 12  2  7  2        2 0.528969247151D-03 0.100000000000D+01
-.138681913777D-04 0.000000000000D+00 0.000000000000D+00 0.154827290313D-07 0.000000000000D+00  7 -2 2 23 -13 13 23 21 2 0.36611838D-01 0.11616498D+00 0.16540602D+06 0.16540602D+06 0.16540602D+06 0.11042167D+01  1  2  4  2  7  2        2 -.542542183407D-03 0.100000000000D+01
-.181969718088D-03 0.000000000000D+00 -.231451906426D-04 0.154827290313D-07 0.000000000000D+00  7 -2 2 23 -13 13 23 21 2 0.36611838D-01 0.12036065D+00 0.16540602D+06 0.16540602D+06 0.16540602D+06 0.11042167D+01  1  2  5  2  7  2        2 -.680958374522D-02 0.100000000000D+01
0.182690491548D-03 0.000000000000D+00 0.231306293110D-04 0.154827290313D-07 0.000000000000D+00  7 -2 2 23 -13 13 23 21 2 0.36611838D-01 0.11616498D+00 0.16540602D+06 0.16540602D+06 0.16540602D+06 0.11042167D+01  1  2  6  2  7  2        2 0.714709621987D-02 0.100000000000D+01
0.310036300220D-06 0.000000000000D+00 0.000000000000D+00 0.154827290313D-07 0.000000000000D+00  7 -2 21 23 -13 13 23 -2 2 0.36611838D-01 0.12013357D+00 0.17129444D+06 0.17129444D+06 0.17129444D+06 0.11030309D+01  1  2 12  4  7  2        2 0.120810567324D-04 0.100000000000D+01
-.113823702979D-05 0.000000000000D+00 -.146104215300D-06 0.154827290313D-07 0.000000000000D+00  7 -2 21 23 -13 13 23 -2 2 0.36611838D-01 0.12036065D+00 0.16540602D+06 0.16540602D+06 0.16540602D+06 0.11042167D+01  1  2  5  4  7  2        2 -.443138991192D-04 0.100000000000D+01
  </mgrwgt>
  </event>
  <event>
  9     66 0.53686478E-06 0.38332757E+03 0.75467711E-02 0.93908595E-01
       -4 -1    0    0    0  502 0.00000000E+00 0.00000000E+00 0.14667618E+04 0.14667626E+04 0.15500000E+01 0.0000E+00 0.9000E+01
        4 -1    0    0  501    0 0.00000000E+00 0.00000000E+00 -.45877742E+03 0.45878004E+03 0.15500000E+01 0.0000E+00 0.9000E+01
       25  2    1    2    0    0 0.22628490E+03 0.19722022E+01 0.16183885E+03 0.40871664E+03 0.29941399E+03 0.0000E+00 0.0000E+00
       23  2    1    2    0    0 -.36673437E+03 -.21606352E+03 -.17081222E+03 0.46812931E+03 0.93758694E+02 0.0000E+00 0.0000E+00
       23  1    3    3    0    0 0.16905590E+03 -.10867861E+03 0.88130717E+02 0.23764093E+03 0.91188000E+02 0.0000E+00 0.9000E+01
      -13  1    4    4    0    0 -.13101588E+03 -.30106473E+02 -.37057571E+02 0.13944473E+03 0.10565837E+00 0.0000E+00 0.9000E+01
       13  1    4    4    0    0 -.23571850E+03 -.18595705E+03 -.13375465E+03 0.32868458E+03 0.10565837E+00 0.0000E+00 0.9000E+01
       23  1    3    3    0    0 0.57228996E+02 0.11065081E+03 0.73708136E+02 0.17107571E+03 0.91188000E+02 0.0000E+00 0.9000E+01
       21  1    1    2  501  502 0.14044948E+03 0.21409132E+03 0.10169577E+04 0.10486967E+04 0.75000000E+00 0.0000E+00 0.9000E+01
#aMCatNLO 2  0  0  1  2 0.25604912D+03 0.00000000D+00  -5  7  0 0.00000000D+00 0.00000000D+00 0.00000000D+00 0.00000000D+00 0.00000000D+00
  <mgrwgt>
 0.5519338149D-06    2    2    0
 0.419290221692795D+03 0.000000000000000D+00 0.000000000000000D+00 0.419290221692795D+03
 0.419290221692795D+03 0.000000000000000D+00 0.000000000000000D+00 -.419290221692795D+03
 0.249996271302878D+03 0.209056831710672D+03 -.477039949358745D+02 0.905674019920859D+02
 0.115781648353603D+03 -.110149153904422D+03 0.170128613373556D+01 -.356322833271807D+02
 0.255297310733063D+03 -.188014845328682D+03 -.113240945575070D+03 -.130397941121898D+03
 0.217505212996044D+03 0.891071675224333D+02 0.159243654377209D+03 0.754628224569924D+02
 0.000000000000000D+00 0.000000000000000D+00 0.000000000000000D+00 0.000000000000000D+00
 0.148185104433307D+04 0.000000000000000D+00 0.000000000000000D+00 0.148185104433307D+04
 0.454107788511028D+03 0.000000000000000D+00 0.000000000000000D+00 -.454107788511028D+03
 0.238555323950543D+03 0.169055901032589D+03 -.108678605362841D+03 0.905674019920859D+02
 0.139072542396134D+03 -.131015741827262D+03 -.301062755396317D+02 -.356322833271807D+02
 0.327333155235135D+03 -.235718631595195D+03 -.185957248275638D+03 -.130397941121898D+03
 0.171839018019431D+03 0.572289959105219D+02 0.110650807605639D+03 0.754628224569924D+02
 0.105915879324285D+04 0.140449476479348D+03 0.214091321572472D+03 0.102774325582204D+04
-.509432940823D-05 0.000000000000D+00 0.000000000000D+00 0.625186748344D-07 0.000000000000D+00  7 -4 4 23 -13 13 23 21 2 0.21996670D+00 0.65169737D-01 0.28398015D+06 0.28398015D+06 0.28398015D+06 0.10863196D+01  1  2 13  1  7  1       -4 -.154316757173D-06 0.100000000000D+01
0.314927239900D-04 0.000000000000D+00 0.000000000000D+00 0.625186748344D-07 0.170471490433D-10  7 -4 4 23 -13 13 23 21 2 0.22565585D+00 0.70581386D-01 0.28398015D+06 0.28398015D+06 0.28398015D+06 0.10863196D+01  1  2  1  1  7  1       -4 0.706250572091D-06 0.100000000000D+01
  </mgrwgt>
  </event>
  <event>
  8     66 0.53686478E-06 0.22461173E+03 0.75467711E-02 0.96642920E-01
       -2 -1    0    0    0  501 0.00000000E+00 0.00000000E+00 0.16018086E+03 0.16018118E+03 0.32000000E+00 0.0000E+00 0.9000E+01
        2 -1    0    0  501    0 0.00000000E+00 0.00000000E+00 -.11502508E+04 0.11502509E+04 0.32000000E+00 0.0000E+00 0.9000E+01
       25  2    1    2    0    0 -.34922919E+03 -.87217392E+01 -.36154860E+03 0.58562561E+03 0.30033793E+03 0.0000E+00 0.0000E+00
       23  2    1    2    0    0 0.34922919E+03 0.87217392E+01 -.62852137E+03 0.72480644E+03 0.90929429E+02 0.0000E+00 0.0000E+00
       23  1    3    3    0    0 -.16789133E+03 -.55039770E+02 -.40387304E+02 0.20288731E+03 0.91188000E+02 0.0000E+00 0.9000E+01
      -13  1    4    4    0    0 0.17395310E+03 -.12058150E+02 -.39759806E+03 0.43415356E+03 0.10565837E+00 0.0000E+00 0.9000E+01
       13  1    4    4    0    0 0.17527609E+03 0.20779889E+02 -.23092331E+03 0.29065288E+03 0.10565837E+00 0.0000E+00 0.9000E+01
       23  1    3    3    0    0 -.18133785E+03 0.46318030E+02 -.32116129E+03 0.38273830E+03 0.91188000E+02 0.0000E+00 0.9000E+01
#aMCatNLO 1  0  0  1  2 0.76810961D+02 0.00000000D+00  -5  7  0 0.00000000D+00 0.00000000D+00 0.00000000D+00 0.00000000D+00 0.00000000D+00
  <mgrwgt>
 0.2153042877D-03    9    2    0
 0.429241658505980D+03 0.000000000000000D+00 0.000000000000000D+00 0.429241658505980D+03
 0.429241658505980D+03 0.000000000000000D+00 0.000000000000000D+00 -.429241658505980D+03
 0.263119590611127D+03 -.167891332765727D+03 -.550397695120914D+02 0.172336275268938D+03
 0.204172708094123D+03 0.173953098703314D+03 -.120581940327918D+02 -.106214001613114D+03
 0.177348330460399D+03 0.175276088732978D+03 0.207799332535482D+02 -.172892281359919D+02
 0.213842687846310D+03 -.181337854670566D+03 0.463180302913350D+02 -.488330455198319D+02
 0.000000000000000D+00 -.000000000000000D+00 0.000000000000000D+00 0.000000000000000D+00
 0.495586655657230D+03 0.000000000000000D+00 0.000000000000000D+00 0.495586655657230D+03
 0.453778176270994D+03 0.000000000000000D+00 0.000000000000000D+00 -.453778176270994D+03
 0.269013671397355D+03 -.167762431051021D+03 -.787977094144523D+02 0.172336275268938D+03
 0.206151629371139D+03 0.174052493938419D+03 -.303777798319977D+02 -.106214001613114D+03
 0.176282660107023D+03 0.175361750811092D+03 0.499151253013317D+01 -.172892281359919D+02
 0.210464754712151D+03 -.181235072227120D+03 0.273741464183745D+02 -.488330455198319D+02
 0.874521163405552D+02 -.416741471369782D+00 0.768098302979423D+02 0.418084793862364D+02
0.445637272114D-05 0.000000000000D+00 0.000000000000D+00 0.783163034565D-06 0.000000000000D+00  7 -2 2 23 -13 13 23 21 0 0.24643237D-01 0.17696169D+00 0.14360055D+06 0.14360055D+06 0.14360055D+06 0.11090493D+01  1  2  2  1  7  1       -2 0.162074455694D-03 0.100000000000D+01
-.242901079536D-06 0.000000000000D+00 -.171136446391D-07 0.783163034565D-06 0.000000000000D+00  7 -2 2 23 -13 13 23 21 2 0.24643237D-01 0.17696169D+00 0.14360055D+06 0.14360055D+06 0.14360055D+06 0.11090493D+01  1  2  3  1  7  1       -2 -.108658618368D-04 0.100000000000D+01
0.282957596873D-06 0.000000000000D+00 0.000000000000D+00 0.783163034565D-06 0.000000000000D+00  7 -2 2 23 -13 13 23 21 2 0.24643237D-01 0.17696169D+00 0.14360055D+06 0.14360055D+06 0.14360055D+06 0.11090493D+01  1  2 15  1  7  1       -2 0.126577377061D-04 0.100000000000D+01
0.633828334624D-05 0.000000000000D+00 0.000000000000D+00 0.783163034565D-06 0.000000000000D+00  7 -2 2 23 -13 13 23 21 2 0.29076162D-01 0.17696169D+00 0.17648911D+06 0.17648911D+06 0.17648911D+06 0.11020212D+01  1  2 12  1  7  1       -2 0.209231812460D-03 0.100000000000D+01
-.630701547835D-05 0.000000000000D+00 0.000000000000D+00 0.783163034565D-06 0.000000000000D+00  7 -2 2 23 -13 13 23 21 2 0.24643237D-01 0.17696169D+00 0.14360055D+06 0.14360055D+06 0.14360055D+06 0.11090493D+01  1  2  4  1  7  1       -2 -.282136081574D-03 0.100000000000D+01
-.130778931383D-04 0.000000000000D+00 -.320124766600D-05 0.783163034565D-06 0.000000000000D+00  7 -2 2 23 -13 13 23 21 2 0.29996593D-01 0.17696169D+00 0.14360055D+06 0.14360055D+06 0.14360055D+06 0.11090493D+01  1  2  5  1  7  1       -2 -.415903027855D-03 0.100000000000D+01
0.135062619572D-04 0.000000000000D+00 0.314037338537D-05 0.783163034565D-06 0.000000000000D+00  7 -2 2 23 -13 13 23 21 2 0.24643237D-01 0.17696169D+00 0.14360055D+06 0.14360055D+06 0.14360055D+06 0.11090493D+01  1  2  6  1  7  1       -2 0.604184949031D-03 0.100000000000D+01
0.156387701261D-06 0.000000000000D+00 0.000000000000D+00 0.783163034565D-06 0.000000000000D+00  7 21 2 23 -13 13 23 2 2 0.29076162D-01 0.17696169D+00 0.17648911D+06 0.17648911D+06 0.17648911D+06 0.11020212D+01  1  2 12  3  7  1       -2 0.607280168553D-04 0.100000000000D+01
-.333534804212D-06 0.000000000000D+00 -.904041490353D-07 0.783163034565D-06 0.000000000000D+00  7 21 2 23 -13 13 23 2 2 0.29996593D-01 0.17696169D+00 0.14360055D+06 0.14360055D+06 0.14360055D+06 0.11090493D+01  1  2  5  3  7  1       -2 -.124667712775D-03 0.100000000000D+01
  </mgrwgt>
  </event>
  <event>
  8     66 0.53686478E-06 0.21780788E+03 0.75467711E-02 0.91067467E-01
       -2 -1    0    0    0  501 0.00000000E+00 0.00000000E+00 0.89450710E+02 0.89451282E+02 0.32000000E+00 0.0000E+00 0.9000E+01
        2 -1    0    0  501    0 0.00000000E+00 0.00000000E+00 -.78084297E+03 0.78084303E+03 0.32000000E+00 0.0000E+00 0.9000E+01
       25  2    1    2    0    0 0.20245907E+01 0.13475938E+03 -.59639608E+03 0.68093955E+03 0.29971019E+03 0.0000E+00 0.0000E+00
       23  2    1    2    0    0 -.20245907E+01 -.13475938E+03 -.94996178E+02 0.18935476E+03 0.93095451E+02 0.0000E+00 0.0000E+00
       23  1    3    3    0    0 -.83317360E+02 0.52997371E+02 -.45822714E+03 0.47753311E+03 0.91188000E+02 0.0000E+00 0.9000E+01
      -13  1    4    4    0    0 -.28298054E+02 -.11661725E+03 -.41349971E+02 0.12692594E+03 0.10565837E+00 0.0000E+00 0.9000E+01
       13  1    4    4    0    0 0.26273463E+02 -.18142136E+02 -.53646206E+02 0.62428828E+02 0.10565837E+00 0.0000E+00 0.9000E+01
       23  1    3    3    0    0 0.85341951E+02 0.81762011E+02 -.13816894E+03 0.20340645E+03 0.91188000E+02 0.0000E+00 0.9000E+01
#aMCatNLO 1  0  0  2  1 0.65849326D+03 0.00000000D+00  -5  7  0 0.00000000D+00 0.00000000D+00 0.00000000D+00 0.00000000D+00 0.00000000D+00
  <mgrwgt>
 0.3984099509D-03    3    2    0
 0.264286275684480D+03 0.000000000000000D+00 0.000000000000000D+00 0.264286275684480D+03
 0.264286275684480D+03 0.000000000000000D+00 0.000000000000000D+00 -.264286275684480D+03
 0.186880024137901D+03 -.833173593444230D+02 0.529973726600819D+02 -.129839855979523D+03
 0.154896340903117D+03 -.282981219016461D+02 -.116617374755901D+03 0.979412100550939D+02
 0.326176571977606D+02 0.262735311312706D+02 -.181420100177674D+02 -.666937744321071D+01
 0.154178529130180D+03 0.853419501147985D+02 0.817620121135861D+02 0.385680233676400D+02
 0.000000000000000D+00 -.000000000000000D+00 -.000000000000000D+00 0.000000000000000D+00
 0.119530075031219D+04 0.000000000000000D+00 0.000000000000000D+00 0.119530075031219D+04
 0.562415749281527D+03 0.000000000000000D+00 0.000000000000000D+00 -.562415749281527D+03
 0.346813977795002D+03 -.417087544668349D+02 0.305559610305476D+03 -.129839855979523D+03
 0.983671720682307D+02 -.855283452166998D+01 0.323557340973841D+01 0.979412100550939D+02
 0.351267330349678D+02 0.315551148771211D+02 0.139169502162502D+02 -.666937744321071D+01
 0.364086765260711D+03 0.125747680323452D+03 0.327022858162533D+03 0.385680233676400D+02
 0.913321851434810D+03 -.107041206212068D+03 -.649734992093997D+03 0.632885001030668D+03
0.243425509136D-05 0.000000000000D+00 0.000000000000D+00 0.220747640486D-06 0.000000000000D+00  7 -2 2 23 -13 13 23 21 0 0.13761697D-01 0.12012974D+00 0.47440274D+05 0.47440274D+05 0.47440274D+05 0.11493083D+01  1  2  2  2  7  2        2 0.392782221377D-03 0.100000000000D+01
-.129084971593D-06 0.000000000000D+00 -.934818050492D-08 0.220747640486D-06 0.000000000000D+00  7 -2 2 23 -13 13 23 21 2 0.13761697D-01 0.12012974D+00 0.47440274D+05 0.47440274D+05 0.47440274D+05 0.11493083D+01  1  2  3  2  7  2        2 -.275127817546D-04 0.100000000000D+01
0.155489255481D-06 0.000000000000D+00 0.000000000000D+00 0.220747640486D-06 0.000000000000D+00  7 -2 2 23 -13 13 23 21 2 0.13761697D-01 0.12012974D+00 0.47440274D+05 0.47440274D+05 0.47440274D+05 0.11493083D+01  1  2 15  2  7  2        2 0.331405112341D-04 0.100000000000D+01
  </mgrwgt>
  </event>
  <event>
  8     66 0.53686478E-06 0.26832012E+03 0.75467711E-02 0.92363078E-01
       -2 -1    0    0    0  501 0.00000000E+00 0.00000000E+00 0.48722611E+03 0.48722622E+03 0.32000000E+00 0.0000E+00 0.9000E+01
        2 -1    0    0  501    0 0.00000000E+00 0.00000000E+00 -.42676903E+03 0.42676915E+03 0.32000000E+00 0.0000E+00 0.9000E+01
       25  2    1    2    0    0 0.11625288E+03 -.15231007E+03 -.31892625E+03 0.47930661E+03 0.30217177E+03 0.0000E+00 0.0000E+00
       23  2    1    2    0    0 -.11625288E+03 0.15231007E+03 0.37938333E+03 0.43468875E+03 0.91156515E+02 0.0000E+00 0.0000E+00
       23  1    3    3    0    0 0.11605152E+03 -.18539117E+03 -.13854162E+03 0.27449385E+03 0.91188000E+02 0.0000E+00 0.9000E+01
      -13  1    4    4    0    0 -.87061905E+02 0.14993997E+03 0.35997470E+03 0.39955421E+03 0.10565837E+00 0.0000E+00 0.9000E+01
       13  1    4    4    0    0 -.29190971E+02 0.23701053E+01 0.19408634E+02 0.35134547E+02 0.10565837E+00 0.0000E+00 0.9000E+01
       23  1    3    3    0    0 0.20135532E+00 0.33081097E+02 -.18038463E+03 0.20481276E+03 0.91188000E+02 0.0000E+00 0.9000E+01
#aMCatNLO 1  0  0  2  1 0.53930182D+03 0.00000000D+00  -5  7  0 0.00000000D+00 0.00000000D+00 0.00000000D+00 0.00000000D+00 0.00000000D+00
  <mgrwgt>
 0.3349788692D-03    3    2    0
 0.455996837428885D+03 0.000000000000000D+00 0.000000000000000D+00 0.455996837428885D+03
 0.455996837428885D+03 0.000000000000000D+00 0.000000000000000D+00 -.455996837428885D+03
 0.284280397361411D+03 0.116051519929412D+03 -.185391167399955D+03 -.157042200545322D+03
 0.376568502937061D+03 -.870619831396305D+02 0.149940165401100D+03 0.334278320109971D+03
 0.339245818145717D+02 -.291908930128686D+02 0.236990712703233D+01 0.171216984149958D+02
 0.217220192744726D+03 0.201356223087160D+00 0.330810948718220D+02 -.194357817979645D+03
 0.000000000000000D+00 0.000000000000000D+00 0.000000000000000D+00 0.000000000000000D+00
 0.143145554245496D+04 0.000000000000000D+00 0.000000000000000D+00 0.143145554245496D+04
 0.610397806093562D+03 0.000000000000000D+00 0.000000000000000D+00 -.610397806093562D+03
 0.430613905052156D+03 0.919783111063175D+02 -.379461225178778D+03 -.157042200545322D+03
 0.355828256989859D+03 -.111724566242550D+03 -.488812282457252D+02 0.334278320109971D+03
 0.401464109836526D+02 -.316851449202422D+02 -.177379071380341D+02 0.171216984149958D+02
 0.232929672150026D+03 -.149569009664213D+02 -.891196416486880D+02 -.194357817979645D+03
 0.982335103372829D+03 0.663883010228961D+02 0.535200002211226D+03 0.821057736361399D+03
0.215518774648D-04 0.000000000000D+00 0.000000000000D+00 0.157831356826D-06 0.000000000000D+00  7 -2 2 23 -13 13 23 21 0 0.74957880D-01 0.65656791D-01 0.71995686D+05 0.71995686D+05 0.71995686D+05 0.11336232D+01  1  2  2  2  7  2        2 0.324887193858D-03 0.100000000000D+01
-.787928481731D-06 0.000000000000D+00 -.827648842044D-07 0.157831356826D-06 0.000000000000D+00  7 -2 2 23 -13 13 23 21 2 0.74957880D-01 0.65656791D-01 0.71995686D+05 0.71995686D+05 0.71995686D+05 0.11336232D+01  1  2  3  2  7  2        2 -.152641197830D-04 0.100000000000D+01
0.130885720291D-05 0.000000000000D+00 0.000000000000D+00 0.157831356826D-06 0.000000000000D+00  7 -2 2 23 -13 13 23 21 2 0.74957880D-01 0.65656791D-01 0.71995686D+05 0.71995686D+05 0.71995686D+05 0.11336232D+01  1  2 15  2  7  2        2 0.253557950845D-04 0.100000000000D+01
  </mgrwgt>
  </event>
  <event>
  8     66 0.53686478E-06 0.13282882E+03 0.75467711E-02 0.10136513E+00
       -2 -1    0    0    0  501 0.00000000E+00 0.00000000E+00 0.16169966E+03 0.16169997E+03 0.32000000E+00 0.0000E+00 0.9000E+01
        2 -1    0    0  501    0 0.00000000E+00 0.00000000E+00 -.16794539E+04 0.16794539E+04 0.32000000E+00 0.0000E+00 0.9000E+01
       25  2    1    2    0    0 0.13892404E+03 -.15638126E+03 -.15659699E+04 0.16084001E+04 0.30155306E+03 0.0000E+00 0.0000E+00
       23  2    1    2    0    0 -.13892404E+03 0.15638126E+03 0.48215678E+02 0.23275376E+03 0.89969853E+02 0.0000E+00 0.0000E+00
       23  1    3    3    0    0 0.17155398E+03 -.41214319E+02 -.63459709E+03 0.66494970E+03 0.91188000E+02 0.0000E+00 0.9000E+01
      -11  1    4    4    0    0 -.21881717E+02 0.25292278E+01 0.31884746E+02 0.38753626E+02 0.51099893E-03 0.0000E+00 0.9000E+01
       11  1    4    4    0    0 -.11704232E+03 0.15385203E+03 0.16330932E+02 0.19400013E+03 0.51099893E-03 0.0000E+00 0.9000E+01
       23  1    3    3    0    0 -.32629943E+02 -.11516694E+03 -.93137283E+03 0.94345044E+03 0.91188000E+02 0.0000E+00 0.9000E+01
#aMCatNLO 1  0  0  1  2 0.94078063D+01 0.00000000D+00  -5  7  0 0.00000000D+00 0.00000000D+00 0.00000000D+00 0.00000000D+00 0.00000000D+00
  <mgrwgt>
 0.2628680889D-03   11    2    0
 0.521121330626991D+03 0.000000000000000D+00 0.000000000000000D+00 0.521121330626991D+03
 0.521121330626991D+03 0.000000000000000D+00 0.000000000000000D+00 -.521121330626991D+03
 0.250529293016685D+03 0.171553983442346D+03 -.412143188683897D+02 -.152709809772386D+03
 0.114891284856521D+03 -.218817172006830D+02 0.252922784260802D+01 0.112759925482645D+03
 0.366488976885534D+03 -.117042323400886D+03 0.153852030427318D+03 0.311359627191645D+03
 0.310333106495242D+03 -.326299428407767D+02 -.115166939401536D+03 -.271409742901904D+03
 0.000000000000000D+00 0.000000000000000D+00 -.000000000000000D+00 0.000000000000000D+00
 0.535269543697089D+03 0.000000000000000D+00 0.000000000000000D+00 0.535269543697089D+03
 0.522708832502112D+03 0.000000000000000D+00 0.000000000000000D+00 -.522708832502112D+03
 0.249649621876509D+03 0.170764858566691D+03 -.390993534097882D+02 -.152709809772386D+03
 0.114986401332565D+03 -.222443918259588D+02 0.350124675727375D+01 0.112759925482645D+03
 0.368174354187465D+03 -.118201390871582D+03 0.156958493979969D+03 0.311359627191645D+03
 0.309474742787198D+03 -.336078045167316D+02 -.112546132819791D+03 -.271409742901904D+03
 0.156932560154650D+02 0.328872864758188D+01 -.881425450766460D+01 0.125607111949768D+02
0.748423995425D-05 0.000000000000D+00 0.000000000000D+00 0.112145339360D-06 0.000000000000D+00  7 -2 2 23 -11 11 23 21 0 0.24876897D-01 0.25837755D+00 0.79643302D+05 0.79643302D+05 0.79643302D+05 0.11299253D+01  1  2  2  1  7  1       -2 0.139381635981D-03 0.100000000000D+01
-.225622051608D-06 0.000000000000D+00 -.287414520700D-07 0.112145339360D-06 0.000000000000D+00  7 -2 2 23 -11 11 23 21 2 0.24876897D-01 0.25837755D+00 0.79643302D+05 0.79643302D+05 0.79643302D+05 0.11299253D+01  1  2  3  1  7  1       -2 -.536461869340D-05 0.100000000000D+01
0.449434513572D-06 0.000000000000D+00 0.000000000000D+00 0.112145339360D-06 0.000000000000D+00  7 -2 2 23 -11 11 23 21 2 0.24876897D-01 0.25837755D+00 0.79643302D+05 0.79643302D+05 0.79643302D+05 0.11299253D+01  1  2 15  1  7  1       -2 0.106862107484D-04 0.100000000000D+01
0.248197021974D-04 0.000000000000D+00 0.000000000000D+00 0.112145339360D-06 0.000000000000D+00  7 -2 2 23 -11 11 23 21 2 0.25589595D-01 0.25837755D+00 0.82543855D+05 0.82543855D+05 0.82543855D+05 0.11286238D+01  1  2 12  1  7  1       -2 0.560466207300D-03 0.100000000000D+01
-.252954938788D-04 0.000000000000D+00 0.000000000000D+00 0.112145339360D-06 0.000000000000D+00  7 -2 2 23 -11 11 23 21 2 0.24876897D-01 0.25837755D+00 0.79643302D+05 0.79643302D+05 0.79643302D+05 0.11299253D+01  1  2  4  1  7  1       -2 -.601451313619D-03 0.100000000000D+01
-.327234068324D-03 0.000000000000D+00 -.325841074331D-04 0.112145339360D-06 0.000000000000D+00  7 -2 2 23 -11 11 23 21 2 0.25617026D-01 0.25837755D+00 0.79643302D+05 0.79643302D+05 0.79643302D+05 0.11299253D+01  1  2  5  1  7  1       -2 -.740173279866D-02 0.100000000000D+01
0.328062357163D-03 0.000000000000D+00 0.325701090293D-04 0.112145339360D-06 0.000000000000D+00  7 -2 2 23 -11 11 23 21 2 0.24876897D-01 0.25837755D+00 0.79643302D+05 0.79643302D+05 0.79643302D+05 0.11299253D+01  1  2  6  1  7  1       -2 0.780034327893D-02 0.100000000000D+01
0.334709361067D-08 0.000000000000D+00 0.000000000000D+00 0.112145339360D-06 0.861080080455D-08  7 -2 2 23 -11 11 23 21 2 0.25552294D-01 0.25916465D+00 0.82543855D+05 0.82543855D+05 0.82543855D+05 0.11286238D+01  1  2 11  1  7  1       -2 0.752975020585D-07 0.100000000000D+01
0.853736633132D-06 0.000000000000D+00 0.000000000000D+00 0.112145339360D-06 0.000000000000D+00  7 21 2 23 -11 11 23 2 2 0.25589595D-01 0.25837755D+00 0.82543855D+05 0.82543855D+05 0.82543855D+05 0.11286238D+01  1  2 12  3  7  1       -2 0.237105365438D-03 0.100000000000D+01
-.171215650762D-05 0.000000000000D+00 -.171494678235D-06 0.112145339360D-06 0.000000000000D+00  7 21 2 23 -11 11 23 2 2 0.25617026D-01 0.25837755D+00 0.79643302D+05 0.79643302D+05 0.79643302D+05 0.11299253D+01  1  2  5  3  7  1       -2 -.476645834185D-03 0.100000000000D+01
0.168311003722D-10 0.000000000000D+00 0.000000000000D+00 0.112145339360D-06 0.417045924824D-10  7 21 2 23 -11 11 23 2 2 0.25552294D-01 0.25916465D+00 0.82543855D+05 0.82543855D+05 0.82543855D+05 0.11286238D+01  1  2 11  3  7  1       -2 0.465813174415D-08 0.100000000000D+01
  </mgrwgt>
  </event>
  <event>
  8     66 0.53686478E-06 0.70927972E+03 0.75467711E-02 0.80316747E-01
       -2 -1    0    0    0  501 0.00000000E+00 0.00000000E+00 0.63252302E+03 0.63252310E+03 0.32000000E+00 0.0000E+00 0.9000E+01
        2 -1    0    0  501    0 0.00000000E+00 0.00000000E+00 -.95782517E+03 0.95782523E+03 0.32000000E+00 0.0000E+00 0.9000E+01
       25  2    1    2    0    0 0.57251251E+03 0.39478966E+03 -.44555864E+03 0.87883998E+03 0.30034607E+03 0.0000E+00 0.0000E+00
       23  2    1    2    0    0 -.57251251E+03 -.39478966E+03 0.12025649E+03 0.71150835E+03 0.90294303E+02 0.0000E+00 0.0000E+00
       23  1    3    3    0    0 0.23438689E+03 0.14001628E+03 -.31456075E+03 0.42638655E+03 0.91188000E+02 0.0000E+00 0.9000E+01
      -11  1    4    4    0    0 -.56580250E+03 -.38048828E+03 0.12826346E+03 0.69379775E+03 0.51099893E-03 0.0000E+00 0.9000E+01
       11  1    4    4    0    0 -.67100024E+01 -.14301379E+02 -.80069740E+01 0.17710596E+02 0.51099893E-03 0.0000E+00 0.9000E+01
       23  1    3    3    0    0 0.33812561E+03 0.25477338E+03 -.13099789E+03 0.45245343E+03 0.91188000E+02 0.0000E+00 0.9000E+01
#aMCatNLO 1  0  0  2  2 0.20076864D+04 0.00000000D+00  -5  7  0 0.00000000D+00 0.00000000D+00 0.00000000D+00 0.00000000D+00 0.00000000D+00
  <mgrwgt>
 0.3694702379D-03    5    2    0
 0.778361471812697D+03 0.000000000000000D+00 0.000000000000000D+00 0.778361471812697D+03
 0.778361471812697D+03 0.000000000000000D+00 0.000000000000000D+00 -.778361471812697D+03
 0.369864050335435D+03 0.234386893051839D+03 0.140016278519876D+03 -.232255011789807D+03
 0.735586562626515D+03 -.565802503765698D+03 -.380488283193550D+03 0.276014101454227D+03
 0.164199614583836D+02 -.671000235864140D+01 -.143013790346985D+02 -.447901332301171D+01
 0.434852369205061D+03 0.338125613072500D+03 0.254773383708373D+03 -.392800763414085D+02
 0.000000000000000D+00 0.000000000000000D+00 0.000000000000000D+00 -.000000000000000D+00
 0.200931552145260D+04 0.000000000000000D+00 0.000000000000000D+00 0.200931552145260D+04
 0.263374429654532D+04 0.000000000000000D+00 0.000000000000000D+00 -.263374429654532D+04
 0.365134586489391D+03 0.160884079907356D+03 -.212560431966204D+03 -.232255011789807D+03
 0.182975405791287D+04 -.822346860226047D+03 -.161107472505883D+04 0.276014101454227D+03
 0.466189570663670D+02 -.130141471787894D+02 -.445409650862760D+02 -.447901332301171D+01
 0.299002366775270D+03 0.264737194602804D+03 -.972546008663002D+02 -.392800763414085D+02
 0.210254984975403D+04 0.409739732894676D+03 0.196543072297761D+04 -.624428775092723D+03
0.124504705267D-03 0.000000000000D+00 0.000000000000D+00 0.282141459086D-05 0.000000000000D+00  7 -2 2 23 -11 11 23 21 0 0.97311245D-01 0.14735773D+00 0.50307772D+06 0.50307772D+06 0.50307772D+06 0.10683221D+01  1  2  2  2  7  2        2 0.366337415745D-03 0.100000000000D+01
-.684428235312D-05 0.000000000000D+00 -.478130851068D-06 0.282141459086D-05 0.000000000000D+00  7 -2 2 23 -11 11 23 21 2 0.97311245D-01 0.14735773D+00 0.50307772D+06 0.50307772D+06 0.50307772D+06 0.10683221D+01  1  2  3  2  7  2        2 -.229841184203D-04 0.100000000000D+01
0.739860051442D-05 0.000000000000D+00 0.000000000000D+00 0.282141459086D-05 0.000000000000D+00  7 -2 2 23 -11 11 23 21 2 0.97311245D-01 0.14735773D+00 0.50307772D+06 0.50307772D+06 0.50307772D+06 0.10683221D+01  1  2 15  2  7  2        2 0.248456012762D-04 0.100000000000D+01
0.576118030360D-04 0.000000000000D+00 -.457905302065D-04 0.282141459086D-05 0.000000000000D+00  7 -2 2 23 -11 11 23 21 2 0.97311245D-01 0.66479457D+00 0.50307772D+06 0.50307772D+06 0.50307772D+06 0.10683221D+01  1  2  5  2  7  2        2 0.126837196535D-05 0.100000000000D+01
0.100753544254D-04 0.000000000000D+00 -.834358689438D-05 0.282141459086D-05 0.000000000000D+00  7 -2 21 23 -11 11 23 -2 2 0.97311245D-01 0.66479457D+00 0.50307772D+06 0.50307772D+06 0.50307772D+06 0.10683221D+01  1  2  5  4  7  2        2 0.296736006714D-08 0.100000000000D+01
  </mgrwgt>
  </event>
  <event>
  8     66 0.53686478E-06 0.15890323E+03 0.75467711E-02 0.98458421E-01
       -2 -1    0    0    0  501 0.00000000E+00 0.00000000E+00 0.51649752E+03 0.51649762E+03 0.32000000E+00 0.0000E+00 0.9000E+01
        2 -1    0    0  501    0 0.00000000E+00 0.00000000E+00 -.79292302E+03 0.79292309E+03 0.32000000E+00 0.0000E+00 0.9000E+01
       25  2    1    2    0    0 0.16277390E+03 0.21533049E+03 0.40429844E+03 0.57123703E+03 0.29998659E+03 0.0000E+00 0.0000E+00
       23  2    1    2    0    0 -.16277390E+03 -.21533049E+03 -.68072394E+03 0.73818368E+03 0.93099376E+02 0.0000E+00 0.0000E+00
       23  1    3    3    0    0 0.50896786E+02 -.38253326E+02 0.98437537E+02 0.14852272E+03 0.91188000E+02 0.0000E+00 0.9000E+01
      -11  1    4    4    0    0 -.37655714E+02 -.29935045E+02 -.23046752E+03 0.23543435E+03 0.51099893E-03 0.0000E+00 0.9000E+01
       11  1    4    4    0    0 -.12511819E+03 -.18539545E+03 -.45025643E+03 0.50274932E+03 0.51099893E-03 0.0000E+00 0.9000E+01
       23  1    3    3    0    0 0.11187712E+03 0.25358382E+03 0.30586090E+03 0.42271430E+03 0.91188000E+02 0.0000E+00 0.9000E+01
#aMCatNLO 1  0  0  1  2 0.49132324D+02 0.00000000D+00  -5  7  0 0.00000000D+00 0.00000000D+00 0.00000000D+00 0.00000000D+00 0.00000000D+00
  <mgrwgt>
 0.2929315613D-03    9    2    0
 0.639955374539610D+03 0.000000000000000D+00 0.000000000000000D+00 0.639955374539610D+03
 0.639955374539610D+03 0.000000000000000D+00 0.000000000000000D+00 -.639955374539610D+03
 0.173206902956333D+03 0.508967857736259D+02 -.382533255631231D+02 0.132783960511050D+03
 0.191087948896083D+03 -.376557143857742D+02 -.299350447196515D+02 -.184933892202164D+03
 0.417097843526011D+03 -.125118187796524D+03 -.185395446475720D+03 -.352057635313638D+03
 0.498518053700793D+03 0.111877116408672D+03 0.253583816758495D+03 0.404207567004752D+03
 0.000000000000000D+00 0.000000000000000D+00 -.000000000000000D+00 0.000000000000000D+00
 0.687321549931678D+03 0.000000000000000D+00 0.000000000000000D+00 0.687321549931678D+03
 0.653295857891985D+03 0.000000000000000D+00 0.000000000000000D+00 -.653295857891985D+03
 0.171484798357506D+03 0.494930836635965D+02 -.317905524359489D+02 0.132783960511050D+03
 0.190412552534079D+03 -.392093144776640D+02 -.227821275497616D+02 -.184933892202164D+03
 0.411469789790798D+03 -.128492397650592D+03 -.169860275149473D+03 -.352057635313638D+03
 0.507486289986075D+03 0.107780323783409D+03 0.272445825369141D+03 0.404207567004752D+03
 0.597639771552046D+02 0.104283046812514D+02 -.480128702339574D+02 0.340256920396922D+02
0.310136883746D-04 0.000000000000D+00 0.000000000000D+00 0.114219437477D-05 0.000000000000D+00  7 -2 2 23 -11 11 23 21 0 0.79461169D-01 0.12198817D+00 0.11382779D+06 0.11382779D+06 0.11382779D+06 0.11171352D+01  1  2  2  1  7  1       -2 0.198694033575D-03 0.100000000000D+01
-.864437504212D-06 0.000000000000D+00 -.119100729450D-06 0.114219437477D-05 0.000000000000D+00  7 -2 2 23 -11 11 23 21 2 0.79461169D-01 0.12198817D+00 0.11382779D+06 0.11382779D+06 0.11382779D+06 0.11171352D+01  1  2  3  1  7  1       -2 -.691156682657D-05 0.100000000000D+01
0.180724860811D-05 0.000000000000D+00 0.000000000000D+00 0.114219437477D-05 0.000000000000D+00  7 -2 2 23 -11 11 23 21 2 0.79461169D-01 0.12198817D+00 0.11382779D+06 0.11382779D+06 0.11382779D+06 0.11171352D+01  1  2 15  1  7  1       -2 0.144497658493D-04 0.100000000000D+01
0.108698581104D-03 0.000000000000D+00 0.000000000000D+00 0.114219437477D-05 0.000000000000D+00  7 -2 2 23 -11 11 23 21 2 0.86129292D-01 0.12198817D+00 0.13062180D+06 0.13062180D+06 0.13062180D+06 0.11123241D+01  1  2 12  1  7  1       -2 0.714958725059D-03 0.100000000000D+01
-.108861781554D-03 0.000000000000D+00 0.000000000000D+00 0.114219437477D-05 0.000000000000D+00  7 -2 2 23 -11 11 23 21 2 0.79461169D-01 0.12198817D+00 0.11382779D+06 0.11382779D+06 0.11382779D+06 0.11171352D+01  1  2  4  1  7  1       -2 -.870398929247D-03 0.100000000000D+01
-.230485067235D-03 0.000000000000D+00 -.447117656668D-04 0.114219437477D-05 0.000000000000D+00  7 -2 2 23 -11 11 23 21 2 0.86619169D-01 0.12198817D+00 0.11382779D+06 0.11382779D+06 0.11382779D+06 0.11171352D+01  1  2  5  1  7  1       -2 -.151709413948D-02 0.100000000000D+01
0.233637763936D-03 0.000000000000D+00 0.445459625397D-04 0.114219437477D-05 0.000000000000D+00  7 -2 2 23 -11 11 23 21 2 0.79461169D-01 0.12198817D+00 0.11382779D+06 0.11382779D+06 0.11382779D+06 0.11171352D+01  1  2  6  1  7  1       -2 0.186803905521D-02 0.100000000000D+01
0.148878645840D-05 0.000000000000D+00 0.000000000000D+00 0.114219437477D-05 0.000000000000D+00  7 21 2 23 -11 11 23 2 2 0.86129292D-01 0.12198817D+00 0.13062180D+06 0.13062180D+06 0.13062180D+06 0.11123241D+01  1  2 12  3  7  1       -2 0.950863141866D-04 0.100000000000D+01
-.317877001615D-05 0.000000000000D+00 -.638319580965D-06 0.114219437477D-05 0.000000000000D+00  7 21 2 23 -11 11 23 2 2 0.86619169D-01 0.12198817D+00 0.11382779D+06 0.11382779D+06 0.11382779D+06 0.11171352D+01  1  2  5  3  7  1       -2 -.203891697038D-03 0.100000000000D+01
  </mgrwgt>
  </event>
  <event>
  8     66 0.53686478E-06 0.15389255E+03 0.75467711E-02 0.10098646E+00
       -2 -1    0    0    0  501 0.00000000E+00 0.00000000E+00 0.49713237E+02 0.49714266E+02 0.32000000E+00 0.0000E+00 0.9000E+01
        2 -1    0    0  501    0 0.00000000E+00 0.00000000E+00 -.90818940E+03 0.90818945E+03 0.32000000E+00 0.0000E+00 0.9000E+01
       25  2    1    2    0    0 -.59629345E+02 -.34966596E+02 -.59265888E+03 0.66765593E+03 0.29956898E+03 0.0000E+00 0.0000E+00
       23  2    1    2    0    0 0.59629345E+02 0.34966596E+02 -.26581728E+03 0.29024779E+03 0.93843644E+02 0.0000E+00 0.0000E+00
       23  1    3    3    0    0 0.15300524E+02 -.26426797E+02 -.51995451E+03 0.52877256E+03 0.91188000E+02 0.0000E+00 0.9000E+01
      -11  1    4    4    0    0 0.51208991E+02 0.52807188E+02 -.25920616E+03 0.26944163E+03 0.51099893E-03 0.0000E+00 0.9000E+01
       11  1    4    4    0    0 0.84203534E+01 -.17840593E+02 -.66111193E+01 0.20806153E+02 0.51099893E-03 0.0000E+00 0.9000E+01
       23  1    3    3    0    0 -.74929869E+02 -.85397983E+01 -.72704372E+02 0.13888337E+03 0.91188000E+02 0.0000E+00 0.9000E+01
#aMCatNLO 1  0  0  1  1 0.21331926D+03 0.00000000D+00  -5  7  0 0.00000000D+00 0.00000000D+00 0.00000000D+00 0.00000000D+00 0.00000000D+00
  <mgrwgt>
 0.2020213944D-03    5    2    0
 0.212484245539277D+03 0.000000000000000D+00 0.000000000000000D+00 0.212484245539277D+03
 0.212484245539277D+03 0.000000000000000D+00 0.000000000000000D+00 -.212484245539277D+03
 0.141527328772253D+03 0.153005217333013D+02 -.264267985831869D+02 -.103837622260632D+03
 0.837164035218824D+02 0.512089943893356D+02 0.528071886946096D+02 -.399684367275421D+02
 0.335431971799955D+02 0.842035548890211D+01 -.178405901641557D+02 0.271285280303079D+02
 0.166181561604424D+03 -.749298716115390D+02 -.853979994726701D+01 0.116677530957867D+03
 0.000000000000000D+00 0.000000000000000D+00 0.000000000000000D+00 0.000000000000000D+00
 0.359218155959548D+03 0.000000000000000D+00 0.000000000000000D+00 0.359218155959548D+03
 0.331409315015625D+03 0.000000000000000D+00 0.000000000000000D+00 -.331409315015625D+03
 0.168450151244911D+03 -.829974776745024D+01 -.959638708092177D+02 -.103837622260632D+03
 0.603091069208599D+02 0.402435498633532D+02 0.204980276500931D+02 -.399684367275421D+02
 0.446538001312309D+02 0.246679327982711D+01 -.353824782057915D+02 0.271285280303079D+02
 0.202090174663821D+03 -.102968399523176D+03 -.911539896047633D+02 0.116677530957867D+03
 0.215124238014351D+03 0.685578041474464D+02 0.202002310969679D+03 0.278088409439234D+02
0.500787810398D-06 0.000000000000D+00 0.000000000000D+00 0.146639962921D-07 0.000000000000D+00  7 -2 2 23 -11 11 23 21 0 0.76482738D-02 0.13972153D+00 0.23682916D+05 0.23682916D+05 0.23682916D+05 0.11769849D+01  1  2  2  1  7  1       -2 0.162640925979D-03 0.100000000000D+01
-.243008607039D-07 0.000000000000D+00 -.192315705239D-08 0.146639962921D-07 0.000000000000D+00  7 -2 2 23 -11 11 23 21 2 0.76482738D-02 0.13972153D+00 0.23682916D+05 0.23682916D+05 0.23682916D+05 0.11769849D+01  1  2  3  1  7  1       -2 -.109330044361D-04 0.100000000000D+01
0.327065789050D-07 0.000000000000D+00 0.000000000000D+00 0.146639962921D-07 0.000000000000D+00  7 -2 2 23 -11 11 23 21 2 0.76482738D-02 0.13972153D+00 0.23682916D+05 0.23682916D+05 0.23682916D+05 0.11769849D+01  1  2 15  1  7  1       -2 0.147147533832D-04 0.100000000000D+01
0.986859719549D-07 0.000000000000D+00 -.156006271207D-06 0.146639962921D-07 0.000000000000D+00  7 -2 2 23 -11 11 23 21 2 0.20465029D-01 0.13972153D+00 0.23682916D+05 0.23682916D+05 0.23682916D+05 0.11769849D+01  1  2  5  1  7  1       -2 0.967812307828D-05 0.100000000000D+01
0.199808594135D-07 0.000000000000D+00 -.170994790782D-07 0.146639962921D-07 0.000000000000D+00  7 21 2 23 -11 11 23 2 2 0.20465029D-01 0.13972153D+00 0.23682916D+05 0.23682916D+05 0.23682916D+05 0.11769849D+01  1  2  5  3  7  1       -2 0.259205964191D-04 0.100000000000D+01
  </mgrwgt>
  </event>
  <event>
  8     66 0.53686478E-06 0.11871070E+04 0.75467711E-02 0.81377314E-01
       -2 -1    0    0    0  501 0.00000000E+00 0.00000000E+00 0.16139908E+04 0.16139908E+04 0.32000000E+00 0.0000E+00 0.9000E+01
        2 -1    0    0  501    0 0.00000000E+00 0.00000000E+00 -.11830882E+04 0.11830882E+04 0.32000000E+00 0.0000E+00 0.9000E+01
       25  2    1    2    0    0 0.59178377E+03 -.10072126E+04 0.93056897E+03 0.15232356E+04 0.29933745E+03 0.0000E+00 0.0000E+00
       23  2    1    2    0    0 -.59178377E+03 0.10072126E+04 -.49966634E+03 0.12738434E+04 0.91243591E+02 0.0000E+00 0.0000E+00
       23  1    3    3    0    0 0.11454540E+03 -.41408668E+03 0.33707032E+03 0.55364255E+03 0.91188000E+02 0.0000E+00 0.9000E+01
      -13  1    4    4    0    0 -.64618638E+02 0.11870252E+03 -.27446791E+02 0.13791010E+03 0.10565837E+00 0.0000E+00 0.9000E+01
       13  1    4    4    0    0 -.52716513E+03 0.88851005E+03 -.47221955E+03 0.11359333E+04 0.10565837E+00 0.0000E+00 0.9000E+01
       23  1    3    3    0    0 0.47723837E+03 -.59312589E+03 0.59349865E+03 0.96959305E+03 0.91188000E+02 0.0000E+00 0.9000E+01
#aMCatNLO 1  0  0  1  1 0.12544684D+04 0.00000000D+00  -5  7  0 0.00000000D+00 0.00000000D+00 0.00000000D+00 0.00000000D+00 0.00000000D+00
  <mgrwgt>
 0.3766344416D-03    6    2    0
 0.138184423452757D+04 0.000000000000000D+00 0.000000000000000D+00 0.138184423452757D+04
 0.138184423452757D+04 0.000000000000000D+00 0.000000000000000D+00 -.138184423452757D+04
 0.507777017012765D+03 0.114545400118220D+03 -.414086678555924D+03 0.254821156140265D+03
 0.143854250731438D+03 -.646180180055510D+02 0.118701491343998D+03 -.492799467861776D+02
 0.122328544743904D+04 -.527165750969056D+03 0.888511080616317D+03 -.655035584181028D+03
 0.888771753871895D+03 0.477238368856387D+03 -.593125893404391D+03 0.449494374826940D+03
 0.000000000000000D+00 -.000000000000000D+00 -.000000000000000D+00 0.000000000000000D+00
 0.241075472670625D+04 0.000000000000000D+00 0.000000000000000D+00 0.241075472670625D+04
 0.195799149349744D+04 0.000000000000000D+00 0.000000000000000D+00 -.195799149349744D+04
 0.381164640610916D+03 0.147031317056161D+03 -.224542205600902D+03 0.254821156140265D+03
 0.206131040010125D+03 -.518279850635415D+02 0.193327060870072D+03 -.492799467861776D+02
 0.170049469342011D+04 -.420317705333918D+03 0.151193373280359D+04 -.655035584181028D+03
 0.747282116842769D+03 0.537027118426421D+03 -.244278512936693D+03 0.449494374826940D+03
 0.133367372931977D+04 -.211912745085122D+03 -.123644007513607D+04 0.452763233208810D+03
0.206080281343D-02 0.000000000000D+00 0.000000000000D+00 0.858709259901D-05 0.000000000000D+00  7 -2 2 23 -13 13 23 21 0 0.24830628D+00 0.18201357D+00 0.14092230D+07 0.14092230D+07 0.14092230D+07 0.10380885D+01  1  2  2  1  7  1       -2 0.274200242531D-03 0.100000000000D+01
-.111277162321D-03 0.000000000000D+00 -.791402542542D-05 0.858709259901D-05 0.000000000000D+00  7 -2 2 23 -13 13 23 21 2 0.24830628D+00 0.18201357D+00 0.14092230D+07 0.14092230D+07 0.14092230D+07 0.10380885D+01  1  2  3  1  7  1       -2 -.159553460160D-04 0.100000000000D+01
0.128793074498D-03 0.000000000000D+00 0.000000000000D+00 0.858709259901D-05 0.000000000000D+00  7 -2 2 23 -13 13 23 21 2 0.24830628D+00 0.18201357D+00 0.14092230D+07 0.14092230D+07 0.14092230D+07 0.10380885D+01  1  2 15  1  7  1       -2 0.184668446356D-04 0.100000000000D+01
-.434191670863D-03 0.000000000000D+00 -.502042006202D-03 0.858709259901D-05 0.000000000000D+00  7 -2 2 23 -13 13 23 21 2 0.49026092D+00 0.18201357D+00 0.14092230D+07 0.14092230D+07 0.14092230D+07 0.10380885D+01  1  2  5  1  7  1       -2 -.946974046514D-06 0.100000000000D+01
0.703804953880D-03 0.000000000000D+00 0.404726044362D-03 0.858709259901D-05 0.000000000000D+00  7 -2 2 23 -13 13 23 21 2 0.24830628D+00 0.18201357D+00 0.14092230D+07 0.14092230D+07 0.14092230D+07 0.10380885D+01  1  2  6  1  7  1       -2 0.100914251700D-03 0.100000000000D+01
-.218274862413D-05 0.000000000000D+00 -.369786936357D-04 0.858709259901D-05 0.000000000000D+00  7 21 2 23 -13 13 23 2 2 0.49026092D+00 0.18201357D+00 0.14092230D+07 0.14092230D+07 0.14092230D+07 0.10380885D+01  1  2  5  3  7  1       -2 -.445771956525D-07 0.100000000000D+01
  </mgrwgt>
  </event>
  <event>
  8     66 0.53686478E-06 0.18831797E+03 0.75467711E-02 0.10120205E+00
       -2 -1    0    0    0  501 0.00000000E+00 0.00000000E+00 0.17002378E+03 0.17002408E+03 0.32000000E+00 0.0000E+00 0.9000E+01
        2 -1    0    0  501    0 0.00000000E+00 0.00000000E+00 -.28275827E+03 0.28275845E+03 0.32000000E+00 0.0000E+00 0.9000E+01
       25  2    1    2    0    0 0.38576484E+01 0.23769859E+02 -.16163399E+03 0.34253138E+03 0.30103540E+03 0.0000E+00 0.0000E+00
       23  2    1    2    0    0 -.38576484E+01 -.23769859E+02 0.48899494E+02 0.11025115E+03 0.95834581E+02 0.0000E+00 0.0000E+00
       23  1    3    3    0    0 -.55282612E+02 -.80776969E+02 -.13374531E+03 0.18916698E+03 0.91188000E+02 0.0000E+00 0.9000E+01
      -11  1    4    4    0    0 0.18796189E+02 -.52326711E+02 0.92012114E+01 0.56356399E+02 0.51099893E-03 0.0000E+00 0.9000E+01
       11  1    4    4    0    0 -.22653837E+02 0.28556852E+02 0.39698283E+02 0.53894748E+02 0.51099893E-03 0.0000E+00 0.9000E+01
       23  1    3    3    0    0 0.59140261E+02 0.10454683E+03 -.27888674E+02 0.15336440E+03 0.91188000E+02 0.0000E+00 0.9000E+01
#aMCatNLO 1  0  0  1  1 0.16563633D+03 0.00000000D+00  -5  7  0 0.00000000D+00 0.00000000D+00 0.00000000D+00 0.00000000D+00 0.00000000D+00
  <mgrwgt>
 0.2270489866D-03    3    2    0
 0.219261801010825D+03 0.000000000000000D+00 0.000000000000000D+00 0.219261801010825D+03
 0.219261801010825D+03 0.000000000000000D+00 0.000000000000000D+00 -.219261801010825D+03
 0.160934994177542D+03 -.552826122499910D+02 -.807769678002986D+02 -.894635974166709D+02
 0.605542909758760D+02 0.187961868231886D+02 -.523267075786989D+02 0.239883553098619D+02
 0.658527048411729D+02 -.226538355889525D+02 0.285568463034600D+02 0.548442248300394D+02
 0.151181612027059D+03 0.591402610157548D+02 0.104546829075538D+03 0.106310172767695D+02
 0.000000000000000D+00 0.000000000000000D+00 -.000000000000000D+00 -.000000000000000D+00
 0.257200541231902D+03 0.000000000000000D+00 0.000000000000000D+00 0.257200541231902D+03
 0.534954113549440D+03 0.000000000000000D+00 0.000000000000000D+00 -.534954113549440D+03
 0.171355921072166D+03 -.104709467999654D+03 -.456047408828044D+02 -.894635974166709D+02
 0.474861458691607D+02 0.272563285376323D+01 -.408908765445486D+02 0.239883553098619D+02
 0.836191311219019D+02 -.448871333883592D+02 0.443780953686565D+02 0.548442248300394D+02
 0.166301369450581D+03 0.119160222288594D+02 0.138151670359214D+03 0.106310172767695D+02
 0.323392087267532D+03 0.134954946305390D+03 -.960341483005180D+02 -.277753572317538D+03
0.128901503776D-05 0.000000000000D+00 0.000000000000D+00 0.198192484502D-08 0.000000000000D+00  7 -2 2 23 -11 11 23 21 0 0.26157541D-01 0.43501309D-01 0.35463658D+05 0.35463658D+05 0.35463658D+05 0.11606536D+01  1  2  2  1  7  1       -2 0.225607915087D-03 0.100000000000D+01
-.695967245773D-07 0.000000000000D+00 -.495015715046D-08 0.198192484502D-08 0.000000000000D+00  7 -2 2 23 -11 11 23 21 2 0.26157541D-01 0.43501309D-01 0.35463658D+05 0.35463658D+05 0.35463658D+05 0.11606536D+01  1  2  3  1  7  1       -2 -.164093137553D-04 0.100000000000D+01
0.757087325891D-07 0.000000000000D+00 0.000000000000D+00 0.198192484502D-08 0.000000000000D+00  7 -2 2 23 -11 11 23 21 2 0.26157541D-01 0.43501309D-01 0.35463658D+05 0.35463658D+05 0.35463658D+05 0.11606536D+01  1  2 15  1  7  1       -2 0.178503852677D-04 0.100000000000D+01
  </mgrwgt>
  </event>
  <event>
  8     66 0.53686478E-06 0.13717065E+03 0.75467711E-02 0.94283964E-01
       -2 -1    0    0    0  501 0.00000000E+00 0.00000000E+00 0.30667733E+03 0.30667750E+03 0.32000000E+00 0.0000E+00 0.9000E+01
        2 -1    0    0  501    0 0.00000000E+00 0.00000000E+00 -.54046343E+03 0.54046352E+03 0.32000000E+00 0.0000E+00 0.9000E+01
       25  2    1    2    0    0 0.57491523E+02 -.33551112E+03 -.71004370E+02 0.45914326E+03 0.29982983E+03 0.0000E+00 0.0000E+00
       23  2    1    2    0    0 -.57491523E+02 0.33551112E+03 -.16278173E+03 0.38799776E+03 0.90395679E+02 0.0000E+00 0.0000E+00
       23  1    3    3    0    0 -.25754223E+02 -.21231534E+03 0.61039046E+02 0.24037907E+03 0.91188000E+02 0.0000E+00 0.9000E+01
      -13  1    4    4    0    0 -.10232131E+02 0.19321529E+03 -.48499591E+02 0.19947197E+03 0.10565837E+00 0.0000E+00 0.9000E+01
       13  1    4    4    0    0 -.47259392E+02 0.14229583E+03 -.11428214E+03 0.18852579E+03 0.10565837E+00 0.0000E+00 0.9000E+01
       23  1    3    3    0    0 0.83245745E+02 -.12319579E+03 -.13204342E+03 0.21876419E+03 0.91188000E+02 0.0000E+00 0.9000E+01
#aMCatNLO 1  0  0  1  2 0.23857198D+03 0.00000000D+00  -5  7  0 0.00000000D+00 0.00000000D+00 0.00000000D+00 0.00000000D+00 0.00000000D+00
  <mgrwgt>
 0.1060174746D-03    7    2    0
 0.407121593713688D+03 0.000000000000000D+00 0.000000000000000D+00 0.407121593713688D+03
 0.407121593713688D+03 0.000000000000000D+00 0.000000000000000D+00 -.407121593713688D+03
 0.267616674024382D+03 -.257542227198964D+02 -.212315336508922D+03 0.132523019762868D+03
 0.193606029672903D+03 -.102320806130403D+02 0.193215359703984D+03 0.681351792345464D+01
 0.163329974905005D+03 -.472594421461199D+02 0.142295763763557D+03 -.647699115751527D+02
 0.189690508825087D+03 0.832457454790567D+02 -.123195786958619D+03 -.745666261111699D+02
 0.000000000000000D+00 0.000000000000000D+00 0.000000000000000D+00 0.000000000000000D+00
 0.985248792005982D+03 0.000000000000000D+00 0.000000000000000D+00 0.985248792005982D+03
 0.449600498896639D+03 0.000000000000000D+00 0.000000000000000D+00 -.449600498896639D+03
 0.340418387289083D+03 -.523244046905895D+02 -.295413664151146D+03 0.132523019762868D+03
 0.148735892166599D+03 -.251918876015110D+02 0.146428516318284D+03 0.681351792345464D+01
 0.134701736885290D+03 -.602829622013605D+02 0.101564663848654D+03 -.647699115751527D+02
 0.224618237158150D+03 0.651411007418856D+02 -.179818120289830D+03 -.745666261111699D+02
 0.586375037403498D+03 0.726581537515754D+02 0.227238604274038D+03 0.535648293109344D+03
0.450307765671D-05 0.000000000000D+00 0.000000000000D+00 0.620459951844D-06 0.000000000000D+00  7 -2 2 23 -13 13 23 21 0 0.47181148D-01 0.83148240D-01 0.14075427D+06 0.14075427D+06 0.14075427D+06 0.11097389D+01  1  2  2  1  7  1       -2 0.133357502514D-03 0.100000000000D+01
-.248139355383D-06 0.000000000000D+00 -.172930038893D-07 0.620459951844D-06 0.000000000000D+00  7 -2 2 23 -13 13 23 21 2 0.47181148D-01 0.83148240D-01 0.14075427D+06 0.14075427D+06 0.14075427D+06 0.11097389D+01  1  2  3  1  7  1       -2 -.904993123758D-05 0.100000000000D+01
0.272315495574D-06 0.000000000000D+00 0.000000000000D+00 0.620459951844D-06 0.000000000000D+00  7 -2 2 23 -13 13 23 21 2 0.47181148D-01 0.83148240D-01 0.14075427D+06 0.14075427D+06 0.14075427D+06 0.11097389D+01  1  2 15  1  7  1       -2 0.993166322233D-05 0.100000000000D+01
0.226666628821D-05 0.000000000000D+00 0.000000000000D+00 0.620459951844D-06 0.000000000000D+00  7 -2 2 23 -13 13 23 21 2 0.11302171D+00 0.83148240D-01 0.26558736D+06 0.26558736D+06 0.26558736D+06 0.10884885D+01  1  2 12  1  7  1       -2 0.114835283465D-04 0.100000000000D+01
-.593127777368D-05 0.000000000000D+00 -.133890281698D-05 0.620459951844D-06 0.000000000000D+00  7 -2 2 23 -13 13 23 21 2 0.12029464D+00 0.83148240D-01 0.14075427D+06 0.14075427D+06 0.14075427D+06 0.11097389D+01  1  2  5  1  7  1       -2 -.272935622506D-04 0.100000000000D+01
0.216587251399D-06 0.000000000000D+00 0.000000000000D+00 0.620459951844D-06 0.000000000000D+00  7 21 2 23 -13 13 23 2 2 0.11302171D+00 0.83148240D-01 0.26558736D+06 0.26558736D+06 0.26558736D+06 0.10884885D+01  1  2 12  3  7  1       -2 0.992351190704D-05 0.100000000000D+01
-.531247076308D-06 0.000000000000D+00 -.138384322169D-06 0.620459951844D-06 0.000000000000D+00  7 21 2 23 -13 13 23 2 2 0.12029464D+00 0.83148240D-01 0.14075427D+06 0.14075427D+06 0.14075427D+06 0.11097389D+01  1  2  5  3  7  1       -2 -.223352378791D-04 0.100000000000D+01
  </mgrwgt>
  </event>
  <event>
  9     66 0.53686478E-06 0.24645921E+03 0.75467711E-02 0.98228384E-01
       -2 -1    0    0    0  502 0.00000000E+00 0.00000000E+00 0.74088534E+03 0.74088540E+03 0.32000000E+00 0.0000E+00 0.9000E+01
        2 -1    0    0  501    0 0.00000000E+00 0.00000000E+00 -.26844231E+03 0.26844250E+03 0.32000000E+00 0.0000E+00 0.9000E+01
       25  2    1    2    0    0 -.66762693E+02 -.33959913E+02 0.87902702E+02 0.32093316E+03 0.29943392E+03 0.0000E+00 0.0000E+00
       23  2    1    2    0    0 0.13766900E+03 0.22472279E+03 0.39600001E+03 0.48455641E+03 0.92335385E+02 0.0000E+00 0.0000E+00
       23  1    3    3    0    0 -.12077702E+03 0.14277589E+02 0.12702101E+03 0.19809222E+03 0.91188000E+02 0.0000E+00 0.9000E+01
      -13  1    4    4    0    0 0.35619984E+02 0.78860581E+02 0.63260046E+02 0.10718964E+03 0.10565837E+00 0.0000E+00 0.9000E+01
       13  1    4    4    0    0 0.10204902E+03 0.14586221E+03 0.33273996E+03 0.37736677E+03 0.10565837E+00 0.0000E+00 0.9000E+01
       23  1    3    3    0    0 0.54014328E+02 -.48237502E+02 -.39118305E+02 0.12284094E+03 0.91188000E+02 0.0000E+00 0.9000E+01
       21  1    1    2  501  502 -.70906306E+02 -.19076288E+03 -.11459680E+02 0.20383833E+03 0.75000000E+00 0.0000E+00 0.9000E+01
#aMCatNLO 2  0  0  1  1 0.20351457D+03 0.00000000D+00  -5  7  0 0.00000000D+00 0.00000000D+00 0.00000000D+00 0.00000000D+00 0.00000000D+00
  <mgrwgt>
 0.8776113591D-05    1    2    0
 0.305464168783433D+03 0.000000000000000D+00 0.000000000000000D+00 0.305464168783433D+03
 0.305464168783433D+03 0.000000000000000D+00 0.000000000000000D+00 -.305464168783433D+03
 0.170127355703712D+03 -.138997973754646D+03 -.347431753714092D+02 0.100270071283314D+02
 0.624606571531128D+02 0.272003863950385D+02 0.562090496639968D+02 -.141965060125694D+01
 0.176600590865660D+03 0.795262722042554D+02 0.852679690554525D+02 0.132637529291499D+03
 0.201739733844381D+03 0.322713151553522D+02 -.106733843348040D+03 -.141244885818573D+03
 0.000000000000000D+00 -.000000000000000D+00 -.000000000000000D+00 -.000000000000000D+00
 0.370004589175886D+03 0.000000000000000D+00 0.000000000000000D+00 0.370004589175886D+03
 0.537519195771762D+03 0.000000000000000D+00 0.000000000000000D+00 -.537519195771762D+03
 0.152337554849282D+03 -.120777021289181D+03 0.142775883824641D+02 0.100270071283314D+02
 0.865434557983607D+02 0.356198973880071D+02 0.788604922870826D+02 -.141965060125694D+01
 0.221996719174568D+03 0.102049103065605D+03 0.145862297086069D+03 0.132637529291499D+03
 0.183056748728327D+03 0.540143271494687D+02 -.482375020463772D+02 -.141244885818573D+03
 0.263589306397110D+03 -.709063063138993D+02 -.190762875709238D+03 -.167514606595876D+03
0.766218125455D-06 0.000000000000D+00 0.000000000000D+00 0.142258464983D-06 0.269111833719D-10  7 -2 2 23 -13 13 23 21 2 0.11398223D+00 0.41298781D-01 0.13561391D+06 0.13561391D+06 0.13561391D+06 0.11110240D+01  1  2  1  1  7  1       -2 0.877611359068D-05 0.100000000000D+01
  </mgrwgt>
  </event>
  <event>
  8     66 0.53686478E-06 0.72356347E+02 0.75467711E-02 0.10527509E+00
       -2 -1    0    0    0  501 0.00000000E+00 0.00000000E+00 0.45747391E+03 0.45747403E+03 0.32000000E+00 0.0000E+00 0.9000E+01
        2 -1    0    0  501    0 0.00000000E+00 0.00000000E+00 -.90845665E+02 0.90846229E+02 0.32000000E+00 0.0000E+00 0.9000E+01
       25  2    1    2    0    0 -.24301527E+02 0.30503015E+02 0.23498074E+03 0.38345300E+03 0.30049835E+03 0.0000E+00 0.0000E+00
       23  2    1    2    0    0 0.24301527E+02 -.30503015E+02 0.13164751E+03 0.16486726E+03 0.91264162E+02 0.0000E+00 0.0000E+00
       23  1    3    3    0    0 -.15796292E+02 -.10633266E+02 0.26317148E+03 0.27917212E+03 0.91188000E+02 0.0000E+00 0.9000E+01
      -13  1    4    4    0    0 0.98800214E+01 -.55224097E+02 0.40123299E+02 0.68972502E+02 0.10565837E+00 0.0000E+00 0.9000E+01
       13  1    4    4    0    0 0.14421506E+02 0.24721081E+02 0.91524213E+02 0.95894757E+02 0.10565837E+00 0.0000E+00 0.9000E+01
       23  1    3    3    0    0 -.85052356E+01 0.41136281E+02 -.28190746E+02 0.10428088E+03 0.91188000E+02 0.0000E+00 0.9000E+01
#aMCatNLO 1  0  0  1  2 0.11996069D+03 0.00000000D+00  -5  7  0 0.00000000D+00 0.00000000D+00 0.00000000D+00 0.00000000D+00 0.00000000D+00
  <mgrwgt>
 0.2326567500D-03    9    2    0
 0.203861980856913D+03 0.000000000000000D+00 0.000000000000000D+00 0.203861980856913D+03
 0.203861980856913D+03 0.000000000000000D+00 0.000000000000000D+00 -.203861980856913D+03
 0.138793791443776D+03 -.157964937295107D+02 -.106330122604207D+02 0.102887681650729D+03
 0.566773133254455D+02 0.988028217994623D+01 -.552242435905119D+02 -.806106628748126D+01
 0.466629532632998D+02 0.144216883417423D+02 0.247206717162012D+02 0.368555898409775D+02
 0.165589903681305D+03 -.850547679217786D+01 0.411365841347314D+02 -.131682205204225D+03
 0.000000000000000D+00 -.000000000000000D+00 -.000000000000000D+00 0.000000000000000D+00
 0.289469542042674D+03 0.000000000000000D+00 0.000000000000000D+00 0.289469542042674D+03
 0.259245266602195D+03 0.000000000000000D+00 0.000000000000000D+00 -.259245266602195D+03
 0.141226197971405D+03 -.129344916934004D+02 0.296042486584288D+02 0.102887681650729D+03
 0.430786538818312D+02 0.108998586103919D+02 -.408898852144745D+02 -.806106628748126D+01
 0.561967860706042D+02 0.154729875151414D+02 0.395010242841267D+02 0.368555898409775D+02
 0.184503534168896D+03 -.492727462865123D+01 0.914429963097182D+02 -.131682205204225D+03
 0.123709636552132D+03 -.851107980348164D+01 -.119658384037799D+03 0.302242754404791D+02
0.235332099636D-05 0.000000000000D+00 0.000000000000D+00 0.505927407351D-07 0.000000000000D+00  7 -2 2 23 -13 13 23 21 0 0.70380654D-01 0.13976308D-01 0.19359133D+05 0.19359133D+05 0.19359133D+05 0.11854088D+01  1  2  2  1  7  1       -2 0.233673448813D-03 0.100000000000D+01
-.107545867347D-06 0.000000000000D+00 -.903737226968D-08 0.505927407351D-07 0.000000000000D+00  7 -2 2 23 -13 13 23 21 2 0.70380654D-01 0.13976308D-01 0.19359133D+05 0.19359133D+05 0.19359133D+05 0.11854088D+01  1  2  3  1  7  1       -2 -.150057681528D-04 0.100000000000D+01
0.149466489364D-06 0.000000000000D+00 0.000000000000D+00 0.505927407351D-07 0.000000000000D+00  7 -2 2 23 -13 13 23 21 2 0.70380654D-01 0.13976308D-01 0.19359133D+05 0.19359133D+05 0.19359133D+05 0.11854088D+01  1  2 15  1  7  1       -2 0.208549109450D-04 0.100000000000D+01
0.312465712975D-07 0.000000000000D+00 0.000000000000D+00 0.505927407351D-07 0.000000000000D+00  7 -2 2 23 -13 13 23 21 2 0.10621345D+00 0.13976308D-01 0.46370724D+05 0.46370724D+05 0.46370724D+05 0.11501851D+01  1  2 12  1  7  1       -2 0.162596332516D-05 0.100000000000D+01
-.899523891332D-06 0.000000000000D+00 0.000000000000D+00 0.505927407351D-07 0.000000000000D+00  7 -2 2 23 -13 13 23 21 2 0.70380654D-01 0.13976308D-01 0.19359133D+05 0.19359133D+05 0.19359133D+05 0.11854088D+01  1  2  4  1  7  1       -2 -.125509675958D-03 0.100000000000D+01
-.663195953206D-06 0.000000000000D+00 -.776348481881D-06 0.505927407351D-07 0.000000000000D+00  7 -2 2 23 -13 13 23 21 2 0.12089238D+00 0.13976308D-01 0.19359133D+05 0.19359133D+05 0.19359133D+05 0.11854088D+01  1  2  5  1  7  1       -2 -.267741629038D-04 0.100000000000D+01
0.102998129316D-05 0.000000000000D+00 0.675123974974D-06 0.505927407351D-07 0.000000000000D+00  7 -2 2 23 -13 13 23 21 2 0.70380654D-01 0.13976308D-01 0.19359133D+05 0.19359133D+05 0.19359133D+05 0.11854088D+01  1  2  6  1  7  1       -2 0.143712267782D-03 0.100000000000D+01
0.151878052154D-08 0.000000000000D+00 0.000000000000D+00 0.505927407351D-07 0.000000000000D+00  7 21 2 23 -13 13 23 2 2 0.10621345D+00 0.13976308D-01 0.46370724D+05 0.46370724D+05 0.46370724D+05 0.11501851D+01  1  2 12  3  7  1       -2 0.767769926708D-06 0.100000000000D+01
-.173723040765D-08 0.000000000000D+00 -.466518698088D-07 0.505927407351D-07 0.000000000000D+00  7 21 2 23 -13 13 23 2 2 0.12089238D+00 0.13976308D-01 0.19359133D+05 0.19359133D+05 0.19359133D+05 0.11854088D+01  1  2  5  3  7  1       -2 -.688003811227D-06 0.100000000000D+01
  </mgrwgt>
  </event>
  <event>
  8     66 0.53686478E-06 0.17845433E+03 0.75467711E-02 0.10045727E+00
       -2 -1    0    0    0  501 0.00000000E+00 0.00000000E+00 0.14901571E+03 0.14901606E+03 0.32000000E+00 0.0000E+00 0.9000E+01
        2 -1    0    0  501    0 0.00000000E+00 0.00000000E+00 -.94437498E+03 0.94437504E+03 0.32000000E+00 0.0000E+00 0.9000E+01
       25  2    1    2    0    0 -.15818823E+03 0.78366344E+02 -.82160903E+03 0.89221530E+03 0.29973646E+03 0.0000E+00 0.0000E+00
       23  2    1    2    0    0 0.15818823E+03 -.78366344E+02 0.26249754E+02 0.20117580E+03 0.92832385E+02 0.0000E+00 0.0000E+00
       23  1    3    3    0    0 -.21157738E+02 -.77101083E+02 -.30011725E+03 0.32369405E+03 0.91188000E+02 0.0000E+00 0.9000E+01
      -11  1    4    4    0    0 0.46924572E+02 -.36481573E+02 0.52639244E+02 0.79395910E+02 0.51099893E-03 0.0000E+00 0.9000E+01
       11  1    4    4    0    0 0.11126366E+03 -.41884771E+02 -.26389489E+02 0.12177989E+03 0.51099893E-03 0.0000E+00 0.9000E+01
       23  1    3    3    0    0 -.13703049E+03 0.15546743E+03 -.52149178E+03 0.56852124E+03 0.91188000E+02 0.0000E+00 0.9000E+01
#aMCatNLO 1  0  0  1  2 0.91993071D+02 0.00000000D+00  -5  7  0 0.00000000D+00 0.00000000D+00 0.00000000D+00 0.00000000D+00 0.00000000D+00
  <mgrwgt>
 0.2292266603D-03    9    2    0
 0.375135879835615D+03 0.000000000000000D+00 0.000000000000000D+00 0.375135879835615D+03
 0.375135879835615D+03 0.000000000000000D+00 0.000000000000000D+00 -.375135879835615D+03
 0.153575232295288D+03 -.211577376860738D+02 -.771010825978135D+02 -.942224698721283D+02
 0.171508376911845D+03 0.469245721288083D+02 -.364815725737100D+02 0.160879777299736D+03
 0.149497722620879D+03 0.111263658941268D+03 -.418847711089314D+02 0.906401302789381D+02
 0.275690427843218D+03 -.137030493384003D+03 0.155467426280455D+03 -.157297437706546D+03
 0.000000000000000D+00 0.000000000000000D+00 0.000000000000000D+00 0.000000000000000D+00
 0.502175924570412D+03 0.000000000000000D+00 0.000000000000000D+00 0.502175924570412D+03
 0.394975511136485D+03 0.000000000000000D+00 0.000000000000000D+00 -.394975511136485D+03
 0.158543254467163D+03 -.400548481874274D+02 -.796143674277303D+02 -.942224698721283D+02
 0.167679173930928D+03 0.263885740998364D+02 -.392128267678218D+02 0.160879777299736D+03
 0.137771076246047D+03 0.938710645708135D+02 -.441979577509330D+02 0.906401302789381D+02
 0.291896989050515D+03 -.171394885725754D+03 0.150897018230206D+03 -.157297437706546D+03
 0.141260942012245D+03 0.911900952425320D+02 0.121281337162793D+02 0.107200413433926D+03
0.390890876775D-05 0.000000000000D+00 0.000000000000D+00 0.295670590398D-06 0.000000000000D+00  7 -2 2 23 -11 11 23 21 0 0.22925525D-01 0.14528849D+00 0.69171866D+05 0.69171866D+05 0.69171866D+05 0.11350993D+01  1  2  2  1  7  1       -2 0.215798573725D-03 0.100000000000D+01
-.183865063301D-06 0.000000000000D+00 -.150112389075D-07 0.295670590398D-06 0.000000000000D+00  7 -2 2 23 -11 11 23 21 2 0.22925525D-01 0.14528849D+00 0.69171866D+05 0.69171866D+05 0.69171866D+05 0.11350993D+01  1  2  3  1  7  1       -2 -.130785601121D-04 0.100000000000D+01
0.240583207690D-06 0.000000000000D+00 0.000000000000D+00 0.295670590398D-06 0.000000000000D+00  7 -2 2 23 -11 11 23 21 2 0.22925525D-01 0.14528849D+00 0.69171866D+05 0.69171866D+05 0.69171866D+05 0.11350993D+01  1  2 15  1  7  1       -2 0.171129951892D-04 0.100000000000D+01
0.560018044436D-05 0.000000000000D+00 0.000000000000D+00 0.295670590398D-06 0.000000000000D+00  7 -2 2 23 -11 11 23 21 2 0.31142518D-01 0.14528849D+00 0.94990357D+05 0.94990357D+05 0.94990357D+05 0.11235583D+01  1  2 12  1  7  1       -2 0.229358214157D-03 0.100000000000D+01
-.637385998550D-05 0.000000000000D+00 0.000000000000D+00 0.295670590398D-06 0.000000000000D+00  7 -2 2 23 -11 11 23 21 2 0.22925525D-01 0.14528849D+00 0.69171866D+05 0.69171866D+05 0.69171866D+05 0.11350993D+01  1  2  4  1  7  1       -2 -.453380916798D-03 0.100000000000D+01
-.746606322386D-05 0.000000000000D+00 -.182657885236D-05 0.295670590398D-06 0.000000000000D+00  7 -2 2 23 -11 11 23 21 2 0.32059736D-01 0.14528849D+00 0.69171866D+05 0.69171866D+05 0.69171866D+05 0.11350993D+01  1  2  5  1  7  1       -2 -.298244690754D-03 0.100000000000D+01
0.773753930850D-05 0.000000000000D+00 0.172847288424D-05 0.295670590398D-06 0.000000000000D+00  7 -2 2 23 -11 11 23 21 2 0.22925525D-01 0.14528849D+00 0.69171866D+05 0.69171866D+05 0.69171866D+05 0.11350993D+01  1  2  6  1  7  1       -2 0.550381193410D-03 0.100000000000D+01
0.219761475403D-06 0.000000000000D+00 0.000000000000D+00 0.295670590398D-06 0.000000000000D+00  7 21 2 23 -11 11 23 2 2 0.31142518D-01 0.14528849D+00 0.94990357D+05 0.94990357D+05 0.94990357D+05 0.11235583D+01  1  2 12  3  7  1       -2 0.106170457158D-03 0.100000000000D+01
-.264228186082D-06 0.000000000000D+00 -.765107811446D-07 0.295670590398D-06 0.000000000000D+00  7 21 2 23 -11 11 23 2 2 0.32059736D-01 0.14528849D+00 0.69171866D+05 0.69171866D+05 0.69171866D+05 0.11350993D+01  1  2  5  3  7  1       -2 -.124890605641D-03 0.100000000000D+01
  </mgrwgt>
  </event>
  <event>
  8     66 0.53686478E-06 0.24831945E+03 0.75467711E-02 0.94633393E-01
       -2 -1    0    0    0  501 0.00000000E+00 0.00000000E+00 0.37708694E+03 0.37708707E+03 0.32000000E+00 0.0000E+00 0.9000E+01
        2 -1    0    0  501    0 0.00000000E+00 0.00000000E+00 -.87421726E+03 0.87421732E+03 0.32000000E+00 0.0000E+00 0.9000E+01
       25  2    1    2    0    0 -.40756128E+03 -.23134742E+03 0.81121692E+01 0.55645543E+03 0.29991500E+03 0.0000E+00 0.0000E+00
       23  2    1    2    0    0 0.40756128E+03 0.23134742E+03 -.50524250E+03 0.69484897E+03 0.88979118E+02 0.0000E+00 0.0000E+00
       23  1    3    3    0    0 -.21624136E+03 -.98765714E+02 0.12129660E+03 0.28203388E+03 0.91188000E+02 0.0000E+00 0.9000E+01
      -13  1    4    4    0    0 0.68415157E+02 0.46047945E+02 -.14343268E+03 0.16545087E+03 0.10565837E+00 0.0000E+00 0.9000E+01
       13  1    4    4    0    0 0.33914612E+03 0.18529948E+03 -.36180982E+03 0.52939810E+03 0.10565837E+00 0.0000E+00 0.9000E+01
       23  1    3    3    0    0 -.19131991E+03 -.13258171E+03 -.11318443E+03 0.27442155E+03 0.91188000E+02 0.0000E+00 0.9000E+01
#aMCatNLO 1  0  0  1  2 0.26105419D+02 0.00000000D+00  -5  7  0 0.00000000D+00 0.00000000D+00 0.00000000D+00 0.00000000D+00 0.00000000D+00
  <mgrwgt>
 0.3503602494D-03    9    2    0
 0.574156800986596D+03 0.000000000000000D+00 0.000000000000000D+00 0.574156800986596D+03
 0.574156800986596D+03 0.000000000000000D+00 0.000000000000000D+00 -.574156800986596D+03
 0.359841119064418D+03 -.216241364045323D+03 -.987657136053581D+02 0.254274233687519D+03
 0.118194350981732D+03 0.684147747940427D+02 0.460477484593512D+02 -.846695225904669D+02
 0.420244103464150D+03 0.339146502846606D+03 0.185299675131462D+03 -.165072064564173D+03
 0.250034028462892D+03 -.191319913595326D+03 -.132581709985455D+03 -.453264653287879D+01
 0.000000000000000D+00 -.000000000000000D+00 -.000000000000000D+00 0.000000000000000D+00
 0.594264889968235D+03 0.000000000000000D+00 0.000000000000000D+00 0.594264889968235D+03
 0.582840994280244D+03 0.000000000000000D+00 0.000000000000000D+00 -.582840994280244D+03
 0.354707429674635D+03 -.209955590061552D+03 -.936235739913652D+02 0.254274233687519D+03
 0.120091550583961D+03 0.705109393211477D+02 0.477625365952437D+02 -.846695225904669D+02
 0.428987601575029D+03 0.346617063898265D+03 0.191411041531473D+03 -.165072064564173D+03
 0.244823718225642D+03 -.186966725900394D+03 -.129020541710705D+03 -.453264653287879D+01
 0.284955841892123D+02 -.202056872574669D+02 -.165294624246471D+02 0.114238956879913D+02
0.178602139791D-04 0.000000000000D+00 0.000000000000D+00 0.613930026897D-06 0.000000000000D+00  7 -2 2 23 -13 13 23 21 0 0.58013390D-01 0.13449498D+00 0.23694760D+06 0.23694760D+06 0.23694760D+06 0.10922154D+01  1  2  2  1  7  1       -2 0.192828873383D-03 0.100000000000D+01
-.959347573435D-06 0.000000000000D+00 -.685879243822D-07 0.613930026897D-06 0.000000000000D+00  7 -2 2 23 -13 13 23 21 2 0.58013390D-01 0.13449498D+00 0.23694760D+06 0.23694760D+06 0.23694760D+06 0.10922154D+01  1  2  3  1  7  1       -2 -.123560015466D-04 0.100000000000D+01
0.105270130945D-05 0.000000000000D+00 0.000000000000D+00 0.613930026897D-06 0.000000000000D+00  7 -2 2 23 -13 13 23 21 2 0.58013390D-01 0.13449498D+00 0.23694760D+06 0.23694760D+06 0.23694760D+06 0.10922154D+01  1  2 15  1  7  1       -2 0.135583592098D-04 0.100000000000D+01
0.423961045905D-04 0.000000000000D+00 0.000000000000D+00 0.613930026897D-06 0.000000000000D+00  7 -2 2 23 -13 13 23 21 2 0.60472689D-01 0.13449498D+00 0.24965913D+06 0.24965913D+06 0.24965913D+06 0.10905037D+01  1  2 12  1  7  1       -2 0.498819222487D-03 0.100000000000D+01
-.404112092017D-04 0.000000000000D+00 0.000000000000D+00 0.613930026897D-06 0.000000000000D+00  7 -2 2 23 -13 13 23 21 2 0.58013390D-01 0.13449498D+00 0.23694760D+06 0.23694760D+06 0.23694760D+06 0.10922154D+01  1  2  4  1  7  1       -2 -.520479727290D-03 0.100000000000D+01
-.319690284126D-03 0.000000000000D+00 -.474159170196D-04 0.613930026897D-06 0.000000000000D+00  7 -2 2 23 -13 13 23 21 2 0.60797998D-01 0.13449498D+00 0.23694760D+06 0.23694760D+06 0.23694760D+06 0.10922154D+01  1  2  5  1  7  1       -2 -.373747925248D-02 0.100000000000D+01
0.321611829313D-03 0.000000000000D+00 0.473638541962D-04 0.613930026897D-06 0.000000000000D+00  7 -2 2 23 -13 13 23 21 2 0.58013390D-01 0.13449498D+00 0.23694760D+06 0.23694760D+06 0.23694760D+06 0.10922154D+01  1  2  6  1  7  1       -2 0.414222787490D-02 0.100000000000D+01
0.668015294562D-06 0.000000000000D+00 0.000000000000D+00 0.613930026897D-06 0.000000000000D+00  7 21 2 23 -13 13 23 2 2 0.60472689D-01 0.13449498D+00 0.24965913D+06 0.24965913D+06 0.24965913D+06 0.10905037D+01  1  2 12  3  7  1       -2 0.796030021815D-04 0.100000000000D+01
-.258597831114D-05 0.000000000000D+00 -.389010685103D-06 0.613930026897D-06 0.000000000000D+00  7 21 2 23 -13 13 23 2 2 0.60797998D-01 0.13449498D+00 0.23694760D+06 0.23694760D+06 0.23694760D+06 0.10922154D+01  1  2  5  3  7  1       -2 -.306362101451D-03 0.100000000000D+01
  </mgrwgt>
  </event>
  <event>
  8     66 0.53686478E-06 0.22246291E+03 0.75467711E-02 0.10191229E+00
       -2 -1    0    0    0  501 0.00000000E+00 0.00000000E+00 0.13273172E+03 0.13273210E+03 0.32000000E+00 0.0000E+00 0.9000E+01
        2 -1    0    0  501    0 0.00000000E+00 0.00000000E+00 -.17107277E+04 0.17107278E+04 0.32000000E+00 0.0000E+00 0.9000E+01
       25  2    1    2    0    0 0.79614493E+01 -.21633917E+03 -.15402593E+03 0.40081874E+03 0.30010940E+03 0.0000E+00 0.0000E+00
       23  2    1    2    0    0 -.79614493E+01 0.21633917E+03 -.14239701E+04 0.14426411E+04 0.81587955E+02 0.0000E+00 0.0000E+00
       23  1    3    3    0    0 -.67888141E+02 -.16802812E+03 -.17874469E+03 0.27038336E+03 0.91188000E+02 0.0000E+00 0.9000E+01
      -11  1    4    4    0    0 -.34042065E+01 0.53038886E+02 -.61801465E+03 0.62029576E+03 0.51099893E-03 0.0000E+00 0.9000E+01
       11  1    4    4    0    0 -.45572428E+01 0.16330029E+03 -.80595544E+03 0.82234538E+03 0.51099893E-03 0.0000E+00 0.9000E+01
       23  1    3    3    0    0 0.75849591E+02 -.48311054E+02 0.24718761E+02 0.13043537E+03 0.91188000E+02 0.0000E+00 0.9000E+01
#aMCatNLO 1  0  0  2  2 0.33325077D+01 0.00000000D+00  -5  7  0 0.00000000D+00 0.00000000D+00 0.00000000D+00 0.00000000D+00 0.00000000D+00
  <mgrwgt>
 0.3960918405D-02   10    2    0
 0.476516751072941D+03 0.000000000000000D+00 0.000000000000000D+00 0.476516751072941D+03
 0.476516751072941D+03 0.000000000000000D+00 0.000000000000000D+00 -.476516751072941D+03
 0.227046029121137D+03 -.678881412444372D+02 -.168028117126593D+03 0.101943122028627D+03
 0.176557979058746D+03 -.340420650984863D+01 0.530388856837125D+02 -.168368666778522D+03
 0.256199000158965D+03 -.455724282031947D+01 0.163300285686249D+03 -.197357989235600D+03
 0.293230493807035D+03 0.758495905746053D+02 -.483110542433685D+02 0.263783533985495D+03
 0.000000000000000D+00 0.000000000000000D+00 -.000000000000000D+00 -.000000000000000D+00
 0.477787775967173D+03 0.000000000000000D+00 0.000000000000000D+00 0.477787775967173D+03
 0.478709062796984D+03 0.000000000000000D+00 0.000000000000000D+00 -.478709062796984D+03
 0.226580099967125D+03 -.681657009528942D+02 -.167285168026844D+03 0.101943122028627D+03
 0.176736959084209D+03 -.362037668555563D+01 0.536175123090498D+02 -.168368666778522D+03
 0.256741051548999D+03 -.487109487177456D+01 0.164140379157953D+03 -.197357989235600D+03
 0.292981217979395D+03 0.754909058750608D+02 -.473509564103592D+02 0.263783533985495D+03
 0.345751018442864D+01 0.116626663516352D+01 -.312176702980020D+01 -.921286829811720D+00
0.472132967796D-04 0.000000000000D+00 0.000000000000D+00 0.238476435660D-07 0.000000000000D+00  7 -2 2 23 -11 11 23 21 0 0.20420296D-01 0.26318891D+00 0.74927218D+05 0.74927218D+05 0.74927218D+05 0.11321568D+01  1  2  2  2  7  2        2 0.118010745549D-02 0.100000000000D+01
-.164286749196D-05 0.000000000000D+00 -.181311491180D-06 0.238476435660D-07 0.000000000000D+00  7 -2 2 23 -11 11 23 21 2 0.20420296D-01 0.26318891D+00 0.74927218D+05 0.74927218D+05 0.74927218D+05 0.11321568D+01  1  2  3  2  7  2        2 -.526347949728D-04 0.100000000000D+01
0.282672536035D-05 0.000000000000D+00 0.000000000000D+00 0.238476435660D-07 0.000000000000D+00  7 -2 2 23 -11 11 23 21 2 0.20420296D-01 0.26318891D+00 0.74927218D+05 0.74927218D+05 0.74927218D+05 0.11321568D+01  1  2 15  2  7  2        2 0.905636702377D-04 0.100000000000D+01
-.119580344174D-02 0.000000000000D+00 0.000000000000D+00 0.238476435660D-07 0.000000000000D+00  7 -2 2 23 -11 11 23 21 2 0.20420296D-01 0.26318891D+00 0.74927218D+05 0.74927218D+05 0.74927218D+05 0.11321568D+01  1  2  4  2  7  2        2 -.383115919524D-01 0.100000000000D+01
-.810802653228D-02 0.000000000000D+00 -.827533948627D-03 0.238476435660D-07 0.000000000000D+00  7 -2 2 23 -11 11 23 21 2 0.20420296D-01 0.26476793D+00 0.74927218D+05 0.74927218D+05 0.74927218D+05 0.11321568D+01  1  2  5  2  7  2        2 -.256530318976D+00 0.100000000000D+01
0.811284618965D-02 0.000000000000D+00 0.827519144371D-03 0.238476435660D-07 0.000000000000D+00  7 -2 2 23 -11 11 23 21 2 0.20420296D-01 0.26318891D+00 0.74927218D+05 0.74927218D+05 0.74927218D+05 0.11321568D+01  1  2  6  2  7  2        2 0.259922360097D+00 0.100000000000D+01
0.119581820452D-02 0.000000000000D+00 0.000000000000D+00 0.238476435660D-07 0.146670811389D-07  7 -2 2 23 -11 11 23 21 2 0.20474764D-01 0.26439977D+00 0.75937790D+05 0.75937790D+05 0.75937790D+05 0.11316659D+01  1  2 11  2  7  2        2 0.377311131542D-01 0.100000000000D+01
0.477566471094D-07 0.000000000000D+00 0.000000000000D+00 0.238476435660D-07 0.000000000000D+00  7 -2 21 23 -11 11 23 -2 2 0.20420296D-01 0.26474950D+00 0.75937790D+05 0.75937790D+05 0.75937790D+05 0.11316659D+01  1  2 12  4  7  2        2 0.437843016058D-06 0.100000000000D+01
-.900151287363D-05 0.000000000000D+00 -.919851127299D-06 0.238476435660D-07 0.000000000000D+00  7 -2 21 23 -11 11 23 -2 2 0.20420296D-01 0.26476793D+00 0.74927218D+05 0.74927218D+05 0.74927218D+05 0.11321568D+01  1  2  5  4  7  2        2 -.826683870310D-04 0.100000000000D+01
0.147659695723D-05 0.000000000000D+00 0.000000000000D+00 0.238476435660D-07 0.125588595818D-10  7 -2 21 23 -11 11 23 -2 2 0.20474764D-01 0.26439977D+00 0.75937790D+05 0.75937790D+05 0.75937790D+05 0.11316659D+01  1  2 11  4  7  2        2 0.135502956266D-04 0.100000000000D+01
  </mgrwgt>
  </event>
  <event>
  8     66 0.53686478E-06 0.16191518E+03 0.75467711E-02 0.10470160E+00
       -2 -1    0    0    0  501 0.00000000E+00 0.00000000E+00 0.77559998E+02 0.77560658E+02 0.32000000E+00 0.0000E+00 0.9000E+01
        2 -1    0    0  501    0 0.00000000E+00 0.00000000E+00 -.64095381E+03 0.64095389E+03 0.32000000E+00 0.0000E+00 0.9000E+01
       25  2    1    2    0    0 0.67995740E+02 -.74936674E+02 -.38521222E+03 0.49802488E+03 0.29900067E+03 0.0000E+00 0.0000E+00
       23  2    1    2    0    0 -.67995740E+02 0.74936674E+02 -.17818159E+03 0.22048967E+03 0.81413079E+02 0.0000E+00 0.0000E+00
       23  1    3    3    0    0 -.72131266E+01 0.73275123E+02 -.20678071E+03 0.23768632E+03 0.91188000E+02 0.0000E+00 0.9000E+01
      -11  1    4    4    0    0 -.77031732E+02 0.72345252E+02 -.18190908E+03 0.21037736E+03 0.51099893E-03 0.0000E+00 0.9000E+01
       11  1    4    4    0    0 0.90359927E+01 0.25914217E+01 0.37274831E+01 0.10112307E+02 0.51099893E-03 0.0000E+00 0.9000E+01
       23  1    3    3    0    0 0.75208866E+02 -.14821180E+03 -.17843151E+03 0.26033856E+03 0.91188000E+02 0.0000E+00 0.9000E+01
#aMCatNLO 1  0  0  2  1 0.26054446D+02 0.00000000D+00  -5  7  0 0.00000000D+00 0.00000000D+00 0.00000000D+00 0.00000000D+00 0.00000000D+00
  <mgrwgt>
 0.1887554090D-02    9    2    0
 0.222963320681923D+03 0.000000000000000D+00 0.000000000000000D+00 0.222963320681923D+03
 0.222963320681923D+03 0.000000000000000D+00 0.000000000000000D+00 -.222963320681923D+03
 0.121728779624959D+03 -.721312653093771D+01 0.732751225294308D+02 -.328842161063244D+02
 0.109149677002381D+03 -.770317324562811D+02 0.723452522458919D+02 -.273116946011466D+02
 0.210031876591499D+02 0.903599267879877D+01 0.259142174000347D+01 0.187821527392255D+02
 0.194044997077355D+03 0.752088663084201D+02 -.148211796515326D+03 0.414137579682454D+02
 0.000000000000000D+00 -.000000000000000D+00 0.000000000000000D+00 -.000000000000000D+00
 0.230897637264927D+03 0.000000000000000D+00 0.000000000000000D+00 0.230897637264927D+03
 0.245809425697581D+03 0.000000000000000D+00 0.000000000000000D+00 -.245809425697581D+03
 0.117813279076764D+03 -.457094927132537D+01 0.668015878303126D+02 -.328842161063244D+02
 0.103721496841818D+03 -.746837382134059D+02 0.665924882519982D+02 -.273116946011466D+02
 0.210983296249484D+02 0.950037739756641D+01 0.145364395475237D+01 0.187821527392255D+02
 0.204054037369237D+03 0.795999457772584D+02 -.158970274283877D+03 0.414137579682454D+02
 0.300199200497396D+02 -.984563569009359D+01 0.241225542468141D+02 -.149117884326535D+02
0.426379892613D-05 0.000000000000D+00 0.000000000000D+00 0.433706987346D-09 0.000000000000D+00  7 -2 2 23 -11 11 23 21 0 0.11932364D-01 0.98608336D-01 0.44490362D+05 0.44490362D+05 0.44490362D+05 0.11517822D+01  1  2  2  2  7  2        2 0.108621524727D-02 0.100000000000D+01
-.235990791917D-06 0.000000000000D+00 -.163741105604D-07 0.433706987346D-09 0.000000000000D+00  7 -2 2 23 -11 11 23 21 2 0.11932364D-01 0.98608336D-01 0.44490362D+05 0.44490362D+05 0.44490362D+05 0.11517822D+01  1  2  3  2  7  2        2 -.797544536630D-04 0.100000000000D+01
0.267767404173D-06 0.000000000000D+00 0.000000000000D+00 0.433706987346D-09 0.000000000000D+00  7 -2 2 23 -11 11 23 21 2 0.11932364D-01 0.98608336D-01 0.44490362D+05 0.44490362D+05 0.44490362D+05 0.11517822D+01  1  2 15  2  7  2        2 0.904935436468D-04 0.100000000000D+01
0.102334937051D-04 0.000000000000D+00 0.000000000000D+00 0.433706987346D-09 0.000000000000D+00  7 -2 2 23 -11 11 23 21 2 0.11932364D-01 0.11033860D+00 0.50324990D+05 0.50324990D+05 0.50324990D+05 0.11470480D+01  1  2 12  2  7  2        2 0.301051633358D-02 0.100000000000D+01
-.100748009516D-04 0.000000000000D+00 0.000000000000D+00 0.433706987346D-09 0.000000000000D+00  7 -2 2 23 -11 11 23 21 2 0.11932364D-01 0.98608336D-01 0.44490362D+05 0.44490362D+05 0.44490362D+05 0.11517822D+01  1  2  4  2  7  2        2 -.340483727833D-02 0.100000000000D+01
-.253203814944D-04 0.000000000000D+00 -.478441257200D-05 0.433706987346D-09 0.000000000000D+00  7 -2 2 23 -11 11 23 21 2 0.11932364D-01 0.11139798D+00 0.44490362D+05 0.44490362D+05 0.44490362D+05 0.11517822D+01  1  2  5  2  7  2        2 -.741600926247D-02 0.100000000000D+01
0.257475120675D-04 0.000000000000D+00 0.474905332202D-05 0.433706987346D-09 0.000000000000D+00  7 -2 2 23 -11 11 23 21 2 0.11932364D-01 0.98608336D-01 0.44490362D+05 0.44490362D+05 0.44490362D+05 0.11517822D+01  1  2  6  2  7  2        2 0.870152068836D-02 0.100000000000D+01
0.183720115397D-06 0.000000000000D+00 0.000000000000D+00 0.433706987346D-09 0.000000000000D+00  7 -2 21 23 -11 11 23 -2 2 0.11932364D-01 0.11033860D+00 0.50324990D+05 0.50324990D+05 0.50324990D+05 0.11470480D+01  1  2 12  4  7  2        2 0.672383448749D-04 0.100000000000D+01
-.464186911937D-06 0.000000000000D+00 -.920176033472D-07 0.433706987346D-09 0.000000000000D+00  7 -2 21 23 -11 11 23 -2 2 0.11932364D-01 0.11139798D+00 0.44490362D+05 0.44490362D+05 0.44490362D+05 0.11517822D+01  1  2  5  4  7  2        2 -.167829073246D-03 0.100000000000D+01
  </mgrwgt>
  </event>
  <event>
  9     66 -.53686478E-06 0.19509304E+03 0.75467711E-02 0.10505484E+00
       -2 -1    0    0    0  502 0.00000000E+00 0.00000000E+00 0.25544099E+02 0.25546104E+02 0.32000000E+00 0.0000E+00 0.9000E+01
        2 -1    0    0  501    0 0.00000000E+00 0.00000000E+00 -.26875210E+04 0.26875210E+04 0.32000000E+00 0.0000E+00 0.9000E+01
       25  2    1    2    0    0 -.19653214E+02 -.43087343E+02 -.22527359E+04 0.22731497E+04 0.30024616E+03 0.0000E+00 0.0000E+00
       23  2    1    2    0    0 -.29205779E+02 0.55222070E+02 -.25783666E+03 0.28036088E+03 0.90664356E+02 0.0000E+00 0.0000E+00
       23  1    3    3    0    0 -.48457637E+02 0.90710243E+02 -.89562704E+03 0.90611232E+03 0.91188000E+02 0.0000E+00 0.9000E+01
      -13  1    4    4    0    0 0.12322563E+02 -.39449364E+01 -.37566173E+00 0.12944511E+02 0.10565837E+00 0.0000E+00 0.9000E+01
       13  1    4    4    0    0 -.41528342E+02 0.59167007E+02 -.25746100E+03 0.26741637E+03 0.10565837E+00 0.0000E+00 0.9000E+01
       23  1    3    3    0    0 0.28804423E+02 -.13379759E+03 -.13571089E+04 0.13670374E+04 0.91188000E+02 0.0000E+00 0.9000E+01
       21  1    1    2  501  502 0.48858992E+02 -.12134727E+02 -.15140431E+03 0.15955651E+03 0.75000000E+00 0.0000E+00 0.9000E+01
#aMCatNLO 2  0  0  1  2 0.50343348D+02 0.00000000D+00  -5  7  0 0.00000000D+00 0.00000000D+00 0.00000000D+00 0.00000000D+00 0.00000000D+00
  <mgrwgt>
 -.3562106099D-04    2    2    0
 0.231790450652921D+03 0.000000000000000D+00 0.000000000000000D+00 0.231790450652921D+03
 0.231790450652921D+03 0.000000000000000D+00 0.000000000000000D+00 -.231790450652921D+03
 0.133228932911314D+03 -.341072686316188D+02 0.871461479890468D+02 -.260180771358926D+02
 0.706689116613465D+02 0.196539973512296D+02 -.576585260791169D+01 0.676355705765900D+02
 0.727575382545953D+02 -.335954425148225D+02 0.571968431509168D+02 0.298919177817613D+02
 0.186925518478586D+03 0.480487137952117D+02 -.138577138532052D+03 -.715094112224588D+02
 0.000000000000000D+00 0.000000000000000D+00 -.000000000000000D+00 0.000000000000000D+00
 0.277417022425463D+03 0.000000000000000D+00 0.000000000000000D+00 0.277417022425463D+03
 0.247467703296257D+03 0.000000000000000D+00 0.000000000000000D+00 -.247467703296257D+03
 0.139888101497990D+03 -.484576338464196D+02 0.907102363621055D+02 -.260180771358926D+02
 0.688620425012213D+02 0.123226342404186D+02 -.394501908689698D+01 0.676355705765900D+02
 0.782232762090566D+02 -.415284146660010D+02 0.591670936208248D+02 0.298919177817613D+02
 0.179333029233668D+03 0.288044219330035D+02 -.133797583736951D+03 -.715094112224588D+02
 0.585782762797839D+02 0.488589923389984D+02 -.121347271590819D+02 0.299493191292059D+02
-.186753422636D-05 0.000000000000D+00 0.000000000000D+00 0.147079478500D-06 0.000000000000D+00  7 -2 2 23 -13 13 23 21 2 0.40248079D-02 0.38726798D+00 0.47846059D+05 0.47846059D+05 0.47846059D+05 0.11489813D+01  1  2 13  1  7  1       -2 -.276099843257D-03 0.100000000000D+01
0.196444074857D-05 0.000000000000D+00 0.000000000000D+00 0.147079478500D-06 0.417805126542D-09  7 -2 2 23 -13 13 23 21 2 0.39299800D-02 0.41346102D+00 0.47846059D+05 0.47846059D+05 0.47846059D+05 0.11489813D+01  1  2  1  1  7  1       -2 0.240478782263D-03 0.100000000000D+01
  </mgrwgt>
  </event>
  <event>
  9     66 -.53686478E-06 0.45126910E+03 0.75467711E-02 0.95000329E-01
       -2 -1    0    0    0  501 0.00000000E+00 0.00000000E+00 0.49814598E+03 0.49814609E+03 0.32000000E+00 0.0000E+00 0.9000E+01
        2 -1    0    0  502    0 0.00000000E+00 0.00000000E+00 -.56837289E+03 0.56837298E+03 0.32000000E+00 0.0000E+00 0.9000E+01
       25  2    1    2    0    0 -.43125837E+03 -.26430628E+02 0.17143348E+03 0.55324944E+03 0.30002190E+03 0.0000E+00 0.0000E+00
       23  2    1    2    0    0 0.36769046E+03 0.35615656E+02 -.23913757E+03 0.44898767E+03 0.89097699E+02 0.0000E+00 0.0000E+00
       23  1    3    3    0    0 -.92288982E+01 -.21757635E+02 0.32720818E+02 0.99721966E+02 0.91188000E+02 0.0000E+00 0.9000E+01
      -13  1    4    4    0    0 0.23364512E+03 -.14993752E+02 -.12251511E+03 0.26424386E+03 0.10565837E+00 0.0000E+00 0.9000E+01
       13  1    4    4    0    0 0.13404534E+03 0.50609408E+02 -.11662246E+03 0.18474380E+03 0.10565837E+00 0.0000E+00 0.9000E+01
       23  1    3    3    0    0 -.42202947E+03 -.46729929E+01 0.13871266E+03 0.45352747E+03 0.91188000E+02 0.0000E+00 0.9000E+01
       21  1    1    2  502  501 0.63567912E+02 -.91850279E+01 -.25228191E+01 0.64281967E+02 0.75000000E+00 0.0000E+00 0.9000E+01
#aMCatNLO 2  0  0  2  1 0.64228064D+02 0.00000000D+00  -5  7  0 0.00000000D+00 0.00000000D+00 0.00000000D+00 0.00000000D+00 0.00000000D+00
  <mgrwgt>
 -.5380250543D-04    2    2    0
 0.498941410256684D+03 0.000000000000000D+00 0.000000000000000D+00 0.498941410256684D+03
 0.498941410256684D+03 0.000000000000000D+00 0.000000000000000D+00 -.498941410256684D+03
 0.101989500453844D+03 -.273299078973399D+01 -.226962390520880D+02 0.395476719044045D+02
 0.272106499922863D+03 0.250466421663936D+03 -.174243606756306D+02 -.104904292448785D+03
 0.185710472220788D+03 0.145594695463793D+03 0.489406953527418D+02 -.104380900952539D+03
 0.438076347915873D+03 -.393328126337995D+03 -.882009562502321D+01 0.169737521496919D+03
 0.000000000000000D+00 0.000000000000000D+00 -.000000000000000D+00 0.000000000000000D+00
 0.533012705945909D+03 0.000000000000000D+00 0.000000000000000D+00 0.533012705945909D+03
 0.531188928775612D+03 0.000000000000000D+00 0.000000000000000D+00 -.531188928775612D+03
 0.102165732739573D+03 -.922889819860991D+01 -.217576351471174D+02 0.395476719044045D+02
 0.256553763576671D+03 0.233645260292131D+03 -.149938445435592D+02 -.104904292448785D+03
 0.177270440463569D+03 0.134045197745295D+03 0.506095004906073D+02 -.104380900952539D+03
 0.463957745697408D+03 -.422029472172269D+03 -.467299290598654D+01 0.169737521496919D+03
 0.642539522443020D+02 0.635679123334534D+02 -.918502789394421D+01 0.182377717029734D+01
-.128514503733D-04 0.000000000000D+00 0.000000000000D+00 0.217784187341D-06 0.000000000000D+00  7 -2 2 23 -13 13 23 21 2 0.71738710D-01 0.90066014D-01 0.23407683D+06 0.23407683D+06 0.23407683D+06 0.10926158D+01  1  2 13  2  7  2        2 -.173579232276D-03 0.100000000000D+01
0.990724229101D-05 0.000000000000D+00 0.000000000000D+00 0.217784187341D-06 0.339035540115D-09  7 -2 2 23 -13 13 23 21 2 0.76637543D-01 0.87441639D-01 0.23407683D+06 0.23407683D+06 0.23407683D+06 0.10926158D+01  1  2  1  2  7  2        2 0.119776726849D-03 0.100000000000D+01
  </mgrwgt>
  </event>
  <event>
  9     66 -.53686478E-06 0.62112066E+03 0.75467711E-02 0.92148661E-01
       -2 -1    0    0    0  502 0.00000000E+00 0.00000000E+00 0.11817646E+04 0.11817646E+04 0.32000000E+00 0.0000E+00 0.9000E+01
        2 -1    0    0  501    0 0.00000000E+00 0.00000000E+00 -.54291577E+03 0.54291586E+03 0.32000000E+00 0.0000E+00 0.9000E+01
       25  2    1    2    0    0 -.13921149E+02 -.58477603E+03 0.83542059E+03 0.10629759E+04 0.29972204E+03 0.0000E+00 0.0000E+00
       23  2    1    2    0    0 0.78159206E+01 0.57759562E+03 -.22866666E+03 0.62824606E+03 0.93417774E+02 0.0000E+00 0.0000E+00
       23  1    3    3    0    0 -.12529960E+03 -.33031707E+03 0.46996772E+03 0.59497417E+03 0.91188000E+02 0.0000E+00 0.9000E+01
      -13  1    4    4    0    0 -.18715464E+02 0.53086207E+03 -.21258953E+03 0.57215307E+03 0.10565837E+00 0.0000E+00 0.9000E+01
       13  1    4    4    0    0 0.26531385E+02 0.46733546E+02 -.16077125E+02 0.56092993E+02 0.10565837E+00 0.0000E+00 0.9000E+01
       23  1    3    3    0    0 0.11137845E+03 -.25445895E+03 0.36545287E+03 0.46800168E+03 0.91188000E+02 0.0000E+00 0.9000E+01
       21  1    1    2  501  502 0.61052286E+01 0.71804074E+01 0.32094909E+02 0.33458598E+02 0.75000000E+00 0.0000E+00 0.9000E+01
#aMCatNLO 2  0  0  1  2 0.94250765D+01 0.00000000D+00  -5  7  0 0.00000000D+00 0.00000000D+00 0.00000000D+00 0.00000000D+00 0.00000000D+00
  <mgrwgt>
 -.3928588749D-03    5    2    0
 0.789302285818952D+03 0.000000000000000D+00 0.000000000000000D+00 0.789302285818952D+03
 0.789302285818952D+03 0.000000000000000D+00 0.000000000000000D+00 -.789302285818952D+03
 0.454795215441432D+03 -.123536878370470D+03 -.328243918981242D+03 0.274805396560427D+03
 0.697024559428304D+03 -.160243674658608D+02 0.534027781426881D+03 -.447661462220977D+03
 0.665884492900136D+02 0.267883581034462D+02 0.470350875360076D+02 -.387828053323938D+02
 0.360196347478155D+03 0.112772887732885D+03 -.252818949981647D+03 0.211638870992943D+03
 0.000000000000000D+00 0.000000000000000D+00 0.000000000000000D+00 0.000000000000000D+00
 0.811826750304007D+03 0.000000000000000D+00 0.000000000000000D+00 0.811826750304007D+03
 0.790302920929817D+03 0.000000000000000D+00 0.000000000000000D+00 -.790302920929817D+03
 0.456774141722501D+03 -.125299602805537D+03 -.330317073068239D+03 0.274805396560427D+03
 0.694669889241025D+03 -.187155217829039D+02 0.530862693645644D+03 -.447661462220977D+03
 0.662720897554831D+02 0.265314423605123D+02 0.467329269079016D+02 -.387828053323938D+02
 0.360916586931132D+03 0.111378453639707D+03 -.254458954897793D+03 0.211638870992943D+03
 0.234969635836835D+02 0.610522858822182D+01 0.718040741248650D+01 0.215238293741894D+02
-.567052689188D-03 0.000000000000D+00 0.000000000000D+00 0.919875367039D-06 0.000000000000D+00  7 -2 2 23 -13 13 23 21 2 0.18191889D+00 0.83419127D-01 0.39160762D+06 0.39160762D+06 0.39160762D+06 0.10760921D+01  1  2 13  1  7  1       -2 -.751151051511D-03 0.100000000000D+01
-.345124520271D-02 0.000000000000D+00 0.000000000000D+00 0.919875367039D-06 0.000000000000D+00  7 -2 2 23 -13 13 23 21 2 0.17676422D+00 0.83419127D-01 0.38579087D+06 0.38579087D+06 0.38579087D+06 0.10765618D+01  1  2  8  1  7  1       -2 -.498776107641D-02 0.100000000000D+01
-.838643935381D-04 0.000000000000D+00 0.000000000000D+00 0.919875367039D-06 0.000000000000D+00  7 -2 2 23 -13 13 23 21 2 0.18190738D+00 0.83419127D-01 0.38579087D+06 0.38579087D+06 0.38579087D+06 0.10765618D+01  1  2  9  1  7  1       -2 -.111287536998D-03 0.100000000000D+01
0.838299122132D-04 0.000000000000D+00 0.000000000000D+00 0.919875367039D-06 0.000000000000D+00  7 -2 2 23 -13 13 23 21 2 0.17676422D+00 0.83419127D-01 0.38579087D+06 0.38579087D+06 0.38579087D+06 0.10765618D+01  1  2 10  1  7  1       -2 0.121151511590D-03 0.100000000000D+01
0.402693048256D-02 0.000000000000D+00 0.000000000000D+00 0.919875367039D-06 0.639718571792D-07  7 -2 2 23 -13 13 23 21 2 0.18180858D+00 0.83524882D-01 0.39160762D+06 0.39160762D+06 0.39160762D+06 0.10760921D+01  1  2  1  1  7  1       -2 0.533618927840D-02 0.100000000000D+01
  </mgrwgt>
  </event>
  <event>
  8     66 0.53686478E-06 0.78738717E+02 0.75467711E-02 0.10383737E+00
       -2 -1    0    0    0  501 0.00000000E+00 0.00000000E+00 0.20517807E+03 0.20517832E+03 0.32000000E+00 0.0000E+00 0.9000E+01
        2 -1    0    0  501    0 0.00000000E+00 0.00000000E+00 -.33405625E+03 0.33405641E+03 0.32000000E+00 0.0000E+00 0.9000E+01
       25  2    1    2    0    0 0.14846561E+03 -.10121375E+02 -.75039693E+02 0.34376416E+03 0.30066320E+03 0.0000E+00 0.0000E+00
       23  2    1    2    0    0 -.14846561E+03 0.10121375E+02 -.53838493E+02 0.19547057E+03 0.11474179E+03 0.0000E+00 0.0000E+00
       23  1    3    3    0    0 0.11900405E+03 -.33212606E+02 -.15399183E+03 0.21747132E+03 0.91188000E+02 0.0000E+00 0.9000E+01
      -11  1    4    4    0    0 -.14550650E+03 0.26579330E+02 -.96553840E+01 0.14822898E+03 0.51099893E-03 0.0000E+00 0.9000E+01
       11  1    4    4    0    0 -.29591072E+01 -.16457955E+02 -.44183109E+02 0.47241589E+02 0.51099893E-03 0.0000E+00 0.9000E+01
       23  1    3    3    0    0 0.29461562E+02 0.23091231E+02 0.78952136E+02 0.12629283E+03 0.91188000E+02 0.0000E+00 0.9000E+01
#aMCatNLO 1  0  0  1  2 0.60714661D+02 0.00000000D+00  -5  7  0 0.00000000D+00 0.00000000D+00 0.00000000D+00 0.00000000D+00 0.00000000D+00
  <mgrwgt>
 0.1865241140D-03    9    2    0
 0.261803600017761D+03 0.000000000000000D+00 0.000000000000000D+00 0.261803600017761D+03
 0.261803600017761D+03 0.000000000000000D+00 0.000000000000000D+00 -.261803600017761D+03
 0.186059131989773D+03 0.119004051850760D+03 -.332126059481992D+02 -.105060495439623D+03
 0.150276474957935D+03 -.145506505798168D+03 0.265793294448265D+02 0.265408165370630D+02
 0.377765341602760D+02 -.295910918818818D+01 -.164579542517677D+02 -.338739715389501D+02
 0.149495058927538D+03 0.294615631355959D+02 0.230912307551404D+02 0.112393650441510D+03
 0.000000000000000D+00 0.000000000000000D+00 -.000000000000000D+00 0.000000000000000D+00
 0.322131353761648D+03 0.000000000000000D+00 0.000000000000000D+00 0.322131353761648D+03
 0.279291257081664D+03 0.000000000000000D+00 0.000000000000000D+00 -.279291257081664D+03
 0.174451998577865D+03 0.103474560899229D+03 -.193275970700980D+02 -.105060495439623D+03
 0.165915388631608D+03 -.159126886053363D+03 0.387573912600372D+02 0.265408165370630D+02
 0.370134405961218D+02 -.618078568515504D+01 -.135774344135856D+02 -.338739715389501D+02
 0.149734690839464D+03 0.165718482352021D+02 0.346160003941941D+02 0.112393650441510D+03
 0.743070921982530D+02 0.452612626040868D+02 -.404683601705478D+02 0.428400966799841D+02
0.136394842637D-05 0.000000000000D+00 0.000000000000D+00 0.450481326390D-09 0.000000000000D+00  7 -2 2 23 -11 11 23 21 0 0.31565887D-01 0.51393301D-01 0.43423642D+05 0.43423642D+05 0.43423642D+05 0.11527216D+01  1  2  2  1  7  1       -2 0.144516724049D-03 0.100000000000D+01
-.709765272619D-07 0.000000000000D+00 -.523792109311D-08 0.450481326390D-09 0.000000000000D+00  7 -2 2 23 -11 11 23 21 2 0.31565887D-01 0.51393301D-01 0.43423642D+05 0.43423642D+05 0.43423642D+05 0.11527216D+01  1  2  3  1  7  1       -2 -.999272180712D-05 0.100000000000D+01
0.885037108466D-07 0.000000000000D+00 0.000000000000D+00 0.450481326390D-09 0.000000000000D+00  7 -2 2 23 -11 11 23 21 2 0.31565887D-01 0.51393301D-01 0.43423642D+05 0.43423642D+05 0.43423642D+05 0.11527216D+01  1  2 15  1  7  1       -2 0.124603583115D-04 0.100000000000D+01
0.163197461971D-05 0.000000000000D+00 0.000000000000D+00 0.450481326390D-09 0.000000000000D+00  7 -2 2 23 -11 11 23 21 2 0.39714901D-01 0.51393301D-01 0.57029113D+05 0.57029113D+05 0.57029113D+05 0.11423042D+01  1  2 12  1  7  1       -2 0.149411945541D-03 0.100000000000D+01
-.173828645060D-05 0.000000000000D+00 0.000000000000D+00 0.450481326390D-09 0.000000000000D+00  7 -2 2 23 -11 11 23 21 2 0.31565887D-01 0.51393301D-01 0.43423642D+05 0.43423642D+05 0.43423642D+05 0.11527216D+01  1  2  4  1  7  1       -2 -.244731795032D-03 0.100000000000D+01
-.273823607481D-05 0.000000000000D+00 -.761714921435D-06 0.450481326390D-09 0.000000000000D+00  7 -2 2 23 -11 11 23 21 2 0.41068501D-01 0.51393301D-01 0.43423642D+05 0.43423642D+05 0.43423642D+05 0.11527216D+01  1  2  5  1  7  1       -2 -.240036647728D-03 0.100000000000D+01
0.286456140601D-05 0.000000000000D+00 0.736078725436D-06 0.450481326390D-09 0.000000000000D+00  7 -2 2 23 -11 11 23 21 2 0.31565887D-01 0.51393301D-01 0.43423642D+05 0.43423642D+05 0.43423642D+05 0.11527216D+01  1  2  6  1  7  1       -2 0.403299038907D-03 0.100000000000D+01
0.518559056461D-07 0.000000000000D+00 0.000000000000D+00 0.450481326390D-09 0.000000000000D+00  7 21 2 23 -11 11 23 2 2 0.39714901D-01 0.51393301D-01 0.57029113D+05 0.57029113D+05 0.57029113D+05 0.11423042D+01  1  2 12  3  7  1       -2 0.542346407885D-04 0.100000000000D+01
-.823554425789D-07 0.000000000000D+00 -.267697640509D-07 0.450481326390D-09 0.000000000000D+00  7 21 2 23 -11 11 23 2 2 0.41068501D-01 0.51393301D-01 0.43423642D+05 0.43423642D+05 0.43423642D+05 0.11527216D+01  1  2  5  3  7  1       -2 -.826374290781D-04 0.100000000000D+01
  </mgrwgt>
  </event>
  <event>
  8     66 0.53686478E-06 0.10795819E+03 0.75467711E-02 0.10328345E+00
       -2 -1    0    0    0  501 0.00000000E+00 0.00000000E+00 0.78219786E+02 0.78220441E+02 0.32000000E+00 0.0000E+00 0.9000E+01
        2 -1    0    0  501    0 0.00000000E+00 0.00000000E+00 -.14882515E+04 0.14882515E+04 0.32000000E+00 0.0000E+00 0.9000E+01
       25  2    1    2    0    0 0.15876086E+03 0.55642460E+02 -.12991642E+04 0.13442299E+04 0.30137231E+03 0.0000E+00 0.0000E+00
       23  2    1    2    0    0 -.15876086E+03 -.55642460E+02 -.11086750E+03 0.22224208E+03 0.93802153E+02 0.0000E+00 0.0000E+00
       23  1    3    3    0    0 0.15059526E+03 -.10781363E+02 -.38968406E+03 0.42774302E+03 0.91188000E+02 0.0000E+00 0.9000E+01
      -11  1    4    4    0    0 -.69301090E+02 -.32227890E+02 -.10461308E+03 0.12955761E+03 0.51099893E-03 0.0000E+00 0.9000E+01
       11  1    4    4    0    0 -.89459771E+02 -.23414569E+02 -.62544221E+01 0.92684468E+02 0.51099893E-03 0.0000E+00 0.9000E+01
       23  1    3    3    0    0 0.81655980E+01 0.66423823E+02 -.90948014E+03 0.91648686E+03 0.91188000E+02 0.0000E+00 0.9000E+01
#aMCatNLO 1  0  0  1  2 0.43612399D+02 0.00000000D+00  -5  7  0 0.00000000D+00 0.00000000D+00 0.00000000D+00 0.00000000D+00 0.00000000D+00
  <mgrwgt>
 0.2119482800D-03    9    2    0
 0.341190932814601D+03 0.000000000000000D+00 0.000000000000000D+00 0.341190932814601D+03
 0.341190932814601D+03 0.000000000000000D+00 0.000000000000000D+00 -.341190932814601D+03
 0.176705408496588D+03 0.150595263701034D+03 -.107813631947377D+02 -.106948027763516D+02
 0.812457199530901D+02 -.693010904870693D+02 -.322278901835059D+02 0.275606415440363D+02
 0.199842189700527D+03 -.894597712376727D+02 -.234145694720007D+02 0.177159837578514D+03
 0.224588547478996D+03 0.816559802370766D+01 0.664238228502444D+02 -.194025676346199D+03
 0.000000000000000D+00 -.000000000000000D+00 0.000000000000000D+00 0.000000000000000D+00
 0.389497139235305D+03 0.000000000000000D+00 0.000000000000000D+00 0.389497139235305D+03
 0.351874660228125D+03 0.000000000000000D+00 0.000000000000000D+00 -.351874660228125D+03
 0.185476084811752D+03 0.160241844473342D+03 -.171551498522325D+02 -.106948027763516D+02
 0.788515677597931D+02 -.650369537327519D+02 -.350453338551977D+02 0.275606415440363D+02
 0.196304558422632D+03 -.789085374665876D+02 -.303860876313997D+02 0.177159837578514D+03
 0.223141912452637D+03 0.200907463975255D+02 0.585445179039899D+02 -.194025676346199D+03
 0.575976760166160D+02 -.363870996715278D+02 0.240420534348401D+02 0.376224790071795D+02
0.258433198009D-05 0.000000000000D+00 0.000000000000D+00 0.196214004631D-07 0.000000000000D+00  7 -2 2 23 -11 11 23 21 0 0.12033866D-01 0.22896182D+00 0.52531201D+05 0.52531201D+05 0.52531201D+05 0.11454137D+01  1  2  2  1  7  1       -2 0.199007280451D-03 0.100000000000D+01
-.115941514344D-06 0.000000000000D+00 -.992451527377D-08 0.196214004631D-07 0.000000000000D+00  7 -2 2 23 -11 11 23 21 2 0.12033866D-01 0.22896182D+00 0.52531201D+05 0.52531201D+05 0.52531201D+05 0.11454137D+01  1  2  3  1  7  1       -2 -.117134369899D-04 0.100000000000D+01
0.153479639879D-06 0.000000000000D+00 0.000000000000D+00 0.196214004631D-07 0.000000000000D+00  7 -2 2 23 -11 11 23 21 2 0.12033866D-01 0.22896182D+00 0.52531201D+05 0.52531201D+05 0.52531201D+05 0.11454137D+01  1  2 15  1  7  1       -2 0.155058703616D-04 0.100000000000D+01
0.628340591206D-05 0.000000000000D+00 0.000000000000D+00 0.196214004631D-07 0.000000000000D+00  7 -2 2 23 -11 11 23 21 2 0.13907867D-01 0.22896182D+00 0.61858015D+05 0.61858015D+05 0.61858015D+05 0.11392533D+01  1  2 12  1  7  1       -2 0.499464605827D-03 0.100000000000D+01
-.642181476480D-05 0.000000000000D+00 0.000000000000D+00 0.196214004631D-07 0.000000000000D+00  7 -2 2 23 -11 11 23 21 2 0.12033866D-01 0.22896182D+00 0.52531201D+05 0.52531201D+05 0.52531201D+05 0.11454137D+01  1  2  4  1  7  1       -2 -.648788512326D-03 0.100000000000D+01
-.105621915433D-04 0.000000000000D+00 -.221326446119D-05 0.196214004631D-07 0.000000000000D+00  7 -2 2 23 -11 11 23 21 2 0.14169769D-01 0.22896182D+00 0.52531201D+05 0.52531201D+05 0.52531201D+05 0.11454137D+01  1  2  5  1  7  1       -2 -.826200217428D-03 0.100000000000D+01
0.108084375784D-04 0.000000000000D+00 0.218404803757D-05 0.196214004631D-07 0.000000000000D+00  7 -2 2 23 -11 11 23 21 2 0.12033866D-01 0.22896182D+00 0.52531201D+05 0.52531201D+05 0.52531201D+05 0.11454137D+01  1  2  6  1  7  1       -2 0.109196393760D-02 0.100000000000D+01
0.139227145755D-06 0.000000000000D+00 0.000000000000D+00 0.196214004631D-07 0.000000000000D+00  7 21 2 23 -11 11 23 2 2 0.13907867D-01 0.22896182D+00 0.61858015D+05 0.61858015D+05 0.61858015D+05 0.11392533D+01  1  2 12  3  7  1       -2 0.153706500819D-03 0.100000000000D+01
-.240161559689D-06 0.000000000000D+00 -.540748138056D-07 0.196214004631D-07 0.000000000000D+00  7 21 2 23 -11 11 23 2 2 0.14169769D-01 0.22896182D+00 0.52531201D+05 0.52531201D+05 0.52531201D+05 0.11454137D+01  1  2  5  3  7  1       -2 -.260997748295D-03 0.100000000000D+01
  </mgrwgt>
  </event>
  <event>
  8     66 0.53686478E-06 0.13257344E+03 0.75467711E-02 0.10333525E+00
       -2 -1    0    0    0  501 0.00000000E+00 0.00000000E+00 0.60801760E+02 0.60802602E+02 0.32000000E+00 0.0000E+00 0.9000E+01
        2 -1    0    0  501    0 0.00000000E+00 0.00000000E+00 -.89734886E+03 0.89734892E+03 0.32000000E+00 0.0000E+00 0.9000E+01
       25  2    1    2    0    0 -.88463616E+02 0.70691053E+02 -.54287956E+03 0.63050184E+03 0.29998553E+03 0.0000E+00 0.0000E+00
       23  2    1    2    0    0 0.88463616E+02 -.70691053E+02 -.29366754E+03 0.32764968E+03 0.91053014E+02 0.0000E+00 0.0000E+00
       23  1    3    3    0    0 -.11455406E+03 0.92381043E+02 -.49017225E+03 0.51984707E+03 0.91188000E+02 0.0000E+00 0.9000E+01
      -13  1    4    4    0    0 -.10312813E+01 -.27309724E+02 -.13759238E+02 0.30597587E+02 0.10565837E+00 0.0000E+00 0.9000E+01
       13  1    4    4    0    0 0.89494897E+02 -.43381329E+02 -.27990830E+03 0.29705209E+03 0.10565837E+00 0.0000E+00 0.9000E+01
       23  1    3    3    0    0 0.26090443E+02 -.21689990E+02 -.52707313E+02 0.11065477E+03 0.91188000E+02 0.0000E+00 0.9000E+01
#aMCatNLO 1  0  0  1  2 0.87767440D+02 0.00000000D+00  -5  7  0 0.00000000D+00 0.00000000D+00 0.00000000D+00 0.00000000D+00 0.00000000D+00
  <mgrwgt>
 0.2293842442D-03    9    2    0
 0.233582578224356D+03 0.000000000000000D+00 0.000000000000000D+00 0.233582578224356D+03
 0.233582578224356D+03 0.000000000000000D+00 0.000000000000000D+00 -.233582578224356D+03
 0.188456023120923D+03 -.114554064723804D+03 0.923810476890993D+02 -.744548829135643D+02
 0.381167704741169D+02 -.103139451253166D+01 -.273097018417691D+02 0.265707471112445D+02
 0.108022780173743D+03 0.894950201866996D+02 -.433813588876921D+02 -.421618322574365D+02
 0.132569582679930D+03 0.260904390496362D+02 -.216899869596381D+02 0.900459680597564D+02
 0.000000000000000D+00 0.000000000000000D+00 0.000000000000000D+00 0.000000000000000D+00
 0.313903267030080D+03 0.000000000000000D+00 0.000000000000000D+00 0.313903267030080D+03
 0.262930489815864D+03 0.000000000000000D+00 0.000000000000000D+00 -.262930489815864D+03
 0.193097869504067D+03 -.138177399442790D+03 0.658408122410776D+02 -.744548829135643D+02
 0.427449203090297D+02 -.603782433603987D+01 -.329343025956634D+02 0.265707471112445D+02
 0.104821656950762D+03 0.763170773627532D+02 -.581864534871019D+02 -.421618322574365D+02
 0.134673755891193D+03 0.954447015635127D+01 -.402789759981120D+02 0.900459680597564D+02
 0.101495554190892D+03 0.583536762597253D+02 0.655589198397998D+02 0.509727772142164D+02
0.814743562688D-06 0.000000000000D+00 0.000000000000D+00 0.228319214667D-06 0.000000000000D+00  7 -2 2 23 -13 13 23 21 0 0.93541861D-02 0.13805374D+00 0.39442825D+05 0.39442825D+05 0.39442825D+05 0.11564671D+01  1  2  2  1  7  1       -2 0.199872977885D-03 0.100000000000D+01
-.438150838738D-07 0.000000000000D+00 -.312882980763D-08 0.228319214667D-06 0.000000000000D+00  7 -2 2 23 -13 13 23 21 2 0.93541861D-02 0.13805374D+00 0.39442825D+05 0.39442825D+05 0.39442825D+05 0.11564671D+01  1  2  3  1  7  1       -2 -.143755138552D-04 0.100000000000D+01
0.535279745757D-07 0.000000000000D+00 0.000000000000D+00 0.228319214667D-06 0.000000000000D+00  7 -2 2 23 -13 13 23 21 2 0.93541861D-02 0.13805374D+00 0.39442825D+05 0.39442825D+05 0.39442825D+05 0.11564671D+01  1  2 15  1  7  1       -2 0.175622655972D-04 0.100000000000D+01
0.455130699269D-06 0.000000000000D+00 0.000000000000D+00 0.228319214667D-06 0.000000000000D+00  7 -2 2 23 -13 13 23 21 2 0.13000585D-01 0.13805374D+00 0.61387285D+05 0.61387285D+05 0.61387285D+05 0.11395390D+01  1  2 12  1  7  1       -2 0.874685926218D-04 0.100000000000D+01
-.606297388232D-06 0.000000000000D+00 0.000000000000D+00 0.228319214667D-06 0.000000000000D+00  7 -2 2 23 -13 13 23 21 2 0.93541861D-02 0.13805374D+00 0.39442825D+05 0.39442825D+05 0.39442825D+05 0.11564671D+01  1  2  4  1  7  1       -2 -.198923195720D-03 0.100000000000D+01
-.809042583805D-06 0.000000000000D+00 -.334187702717D-06 0.228319214667D-06 0.000000000000D+00  7 -2 2 23 -13 13 23 21 2 0.14137821D-01 0.13805374D+00 0.39442825D+05 0.39442825D+05 0.39442825D+05 0.11564671D+01  1  2  5  1  7  1       -2 -.140299507272D-03 0.100000000000D+01
0.896150833258D-06 0.000000000000D+00 0.307577273686D-06 0.228319214667D-06 0.000000000000D+00  7 -2 2 23 -13 13 23 21 2 0.93541861D-02 0.13805374D+00 0.39442825D+05 0.39442825D+05 0.39442825D+05 0.11564671D+01  1  2  6  1  7  1       -2 0.294022687642D-03 0.100000000000D+01
0.188105687447D-07 0.000000000000D+00 0.000000000000D+00 0.228319214667D-06 0.000000000000D+00  7 21 2 23 -13 13 23 2 2 0.13000585D-01 0.13805374D+00 0.61387285D+05 0.61387285D+05 0.61387285D+05 0.11395390D+01  1  2 12  3  7  1       -2 0.508321780588D-04 0.100000000000D+01
-.275222103248D-07 0.000000000000D+00 -.162872805511D-07 0.228319214667D-06 0.000000000000D+00  7 21 2 23 -13 13 23 2 2 0.14137821D-01 0.13805374D+00 0.39442825D+05 0.39442825D+05 0.39442825D+05 0.11564671D+01  1  2  5  3  7  1       -2 -.667762407391D-04 0.100000000000D+01
  </mgrwgt>
  </event>
  <event>
  9     66 0.53686478E-06 0.23687376E+03 0.75467711E-02 0.97479242E-01
       -2 -1    0    0    0  501 0.00000000E+00 0.00000000E+00 0.11624538E+04 0.11624538E+04 0.32000000E+00 0.0000E+00 0.9000E+01
        2 -1    0    0  502    0 0.00000000E+00 0.00000000E+00 -.52759325E+03 0.52759335E+03 0.32000000E+00 0.0000E+00 0.9000E+01
       25  2    1    2    0    0 0.72696340E+02 0.29613856E+01 -.37963243E+03 0.48940952E+03 0.30017890E+03 0.0000E+00 0.0000E+00
       23  2    1    2    0    0 -.30924766E+03 -.39449760E+02 0.85098156E+03 0.91076790E+03 0.90211658E+02 0.0000E+00 0.0000E+00
       23  1    3    3    0    0 0.94600377E+02 -.23486442E+02 -.44967579E+02 0.14084807E+03 0.91188000E+02 0.0000E+00 0.9000E+01
      -13  1    4    4    0    0 -.17491899E+03 -.36898846E+02 0.60029514E+03 0.62634850E+03 0.10565837E+00 0.0000E+00 0.9000E+01
       13  1    4    4    0    0 -.13432867E+03 -.25509137E+01 0.25068642E+03 0.28441939E+03 0.10565837E+00 0.0000E+00 0.9000E+01
       23  1    3    3    0    0 -.21904037E+02 0.26447828E+02 -.33466485E+03 0.34856145E+03 0.91188000E+02 0.0000E+00 0.9000E+01
       21  1    1    2  502  501 0.23655132E+03 0.36488375E+02 0.16351137E+03 0.28986973E+03 0.75000000E+00 0.0000E+00 0.9000E+01
#aMCatNLO 2  0  0  2  2 0.23934897D+03 0.00000000D+00  -5  7  0 0.00000000D+00 0.00000000D+00 0.00000000D+00 0.00000000D+00 0.00000000D+00
  <mgrwgt>
 0.4037215160D-04    1    2    0
 0.648274414722918D+03 0.000000000000000D+00 0.000000000000000D+00 0.648274414722918D+03
 0.648274414722918D+03 0.000000000000000D+00 0.000000000000000D+00 -.648274414722918D+03
 0.185051710455064D+03 0.126324954321993D+03 -.185928812507232D+02 -.981080775506670D+02
 0.425226678592988D+03 -.956955662752235D+02 -.246785605309865D+02 0.413583190461855D+03
 0.191437191260315D+03 -.977953332214786D+02 0.308444413791052D+01 0.164544088930895D+03
 0.494833249137470D+03 0.671659451747091D+02 0.401869976437992D+02 -.480019201842083D+03
 0.000000000000000D+00 0.000000000000000D+00 0.000000000000000D+00 0.000000000000000D+00
 0.818926855165444D+03 0.000000000000000D+00 0.000000000000000D+00 0.818926855165444D+03
 0.748909354261165D+03 0.000000000000000D+00 0.000000000000000D+00 -.748909354261165D+03
 0.165654129039190D+03 0.946003767732783D+02 -.234864419910458D+02 -.981080775506670D+02
 0.450565484545155D+03 -.174919044378980D+03 -.368988935382595D+02 0.413583190461855D+03
 0.212427498236706D+03 -.134328619007687D+03 -.255086661646765D+01 0.164544088930895D+03
 0.489809105555656D+03 -.219040366204555D+02 0.264478275828341D+02 -.480019201842083D+03
 0.249379992049902D+03 0.236551323233845D+03 0.364883745629388D+02 0.700175009042797D+02
0.254113508192D-04 0.000000000000D+00 0.000000000000D+00 0.235855303887D-05 0.276661994589D-09  7 -2 2 23 -13 13 23 21 2 0.17883892D+00 0.81168144D-01 0.15342387D+06 0.15342387D+06 0.15342387D+06 0.11067792D+01  1  2  1  2  7  2        2 0.403721515961D-04 0.100000000000D+01
  </mgrwgt>
  </event>
  <event>
  8     66 0.53686478E-06 0.19877682E+03 0.75467711E-02 0.98733181E-01
       -2 -1    0    0    0  501 0.00000000E+00 0.00000000E+00 0.40827860E+02 0.40829114E+02 0.32000000E+00 0.0000E+00 0.9000E+01
        2 -1    0    0  501    0 0.00000000E+00 0.00000000E+00 -.27640621E+04 0.27640621E+04 0.32000000E+00 0.0000E+00 0.9000E+01
       25  2    1    2    0    0 -.22088894E+03 0.78959579E+02 -.19916792E+04 0.20276052E+04 0.29894861E+03 0.0000E+00 0.0000E+00
       23  2    1    2    0    0 0.22088894E+03 -.78959579E+02 -.73155503E+03 0.77728602E+03 0.11821277E+03 0.0000E+00 0.0000E+00
       23  1    3    3    0    0 -.43482621E+02 0.45111726E+02 -.13559851E+04 0.13604913E+04 0.91188000E+02 0.0000E+00 0.9000E+01
      -11  1    4    4    0    0 0.19117953E+03 -.29719253E+02 -.64479812E+03 0.67319942E+03 0.51099893E-03 0.0000E+00 0.9000E+01
       11  1    4    4    0    0 0.29709410E+02 -.49240326E+02 -.86756909E+02 0.10408660E+03 0.51099893E-03 0.0000E+00 0.9000E+01
       23  1    3    3    0    0 -.17740632E+03 0.33847853E+02 -.63569407E+03 0.66711385E+03 0.91188000E+02 0.0000E+00 0.9000E+01
#aMCatNLO 1  0  0  2  1 0.12673198D+03 0.00000000D+00  -5  7  0 0.00000000D+00 0.00000000D+00 0.00000000D+00 0.00000000D+00 0.00000000D+00
  <mgrwgt>
 0.2893835975D-03    9    2    0
 0.335935298928778D+03 0.000000000000000D+00 0.000000000000000D+00 0.335935298928778D+03
 0.335935298928778D+03 0.000000000000000D+00 0.000000000000000D+00 -.335935298928778D+03
 0.183614437441444D+03 -.434826216832632D+02 0.451117261750300D+02 -.146537381121669D+03
 0.196935005866185D+03 0.191179530806854D+03 -.297192543584098D+02 0.367498225351544D+02
 0.828912622454944D+02 0.297094123377031D+02 -.492403250548522D+02 0.596967550516119D+02
 0.208429892304432D+03 -.177406321461294D+03 0.338478532382321D+02 0.500908035349029D+02
 0.000000000000000D+00 0.000000000000000D+00 0.000000000000000D+00 -.000000000000000D+00
 0.378369964787649D+03 0.000000000000000D+00 0.000000000000000D+00 0.378369964787649D+03
 0.451833944215084D+03 0.000000000000000D+00 0.000000000000000D+00 -.451833944215084D+03
 0.188833162951521D+03 -.722476358795650D+02 0.254909225037506D+02 -.146537381121669D+03
 0.173775817449419D+03 0.162548652035867D+03 -.492485633817985D+02 0.367498225351544D+02
 0.849572478756060D+02 0.167460726051678D+02 -.580827035803901D+02 0.596967550516119D+02
 0.236152351101906D+03 -.211742465739077D+03 0.104269454262095D+02 0.500908035349029D+02
 0.146485329624281D+03 0.104695376977607D+03 0.714133990322285D+02 -.734639794274349D+02
0.510169092422D-05 0.000000000000D+00 0.000000000000D+00 0.260079196561D-09 0.000000000000D+00  7 -2 2 23 -11 11 23 21 0 0.62813072D-02 0.42524042D+00 0.79508531D+05 0.79508531D+05 0.79508531D+05 0.11299870D+01  1  2  2  2  7  2        2 0.210050170096D-03 0.100000000000D+01
-.272860583469D-06 0.000000000000D+00 -.195918364551D-07 0.260079196561D-09 0.000000000000D+00  7 -2 2 23 -11 11 23 21 2 0.62813072D-02 0.42524042D+00 0.79508531D+05 0.79508531D+05 0.79508531D+05 0.11299870D+01  1  2  3  2  7  2        2 -.143448697843D-04 0.100000000000D+01
0.314605042519D-06 0.000000000000D+00 0.000000000000D+00 0.260079196561D-09 0.000000000000D+00  7 -2 2 23 -11 11 23 21 2 0.62813072D-02 0.42524042D+00 0.79508531D+05 0.79508531D+05 0.79508531D+05 0.11299870D+01  1  2 15  2  7  2        2 0.165394660931D-04 0.100000000000D+01
0.218178303224D-05 0.000000000000D+00 0.000000000000D+00 0.260079196561D-09 0.000000000000D+00  7 -2 2 23 -11 11 23 21 2 0.62813072D-02 0.59156774D+00 0.12492853D+06 0.12492853D+06 0.12492853D+06 0.11138751D+01  1  2 12  2  7  2        2 0.205239248434D-04 0.100000000000D+01
-.296375835440D-05 0.000000000000D+00 0.000000000000D+00 0.260079196561D-09 0.000000000000D+00  7 -2 2 23 -11 11 23 21 2 0.62813072D-02 0.42524042D+00 0.79508531D+05 0.79508531D+05 0.79508531D+05 0.11299870D+01  1  2  4  2  7  2        2 -.155811173330D-03 0.100000000000D+01
-.462486842485D-05 0.000000000000D+00 -.158526387970D-05 0.260079196561D-09 0.000000000000D+00  7 -2 2 23 -11 11 23 21 2 0.62813072D-02 0.58754441D+00 0.79508531D+05 0.79508531D+05 0.79508531D+05 0.11299870D+01  1  2  5  2  7  2        2 -.480781707564D-04 0.100000000000D+01
0.495552368957D-05 0.000000000000D+00 0.150587804999D-05 0.260079196561D-09 0.000000000000D+00  7 -2 2 23 -11 11 23 21 2 0.62813072D-02 0.42524042D+00 0.79508531D+05 0.79508531D+05 0.79508531D+05 0.11299870D+01  1  2  6  2  7  2        2 0.260522575801D-03 0.100000000000D+01
0.903607610953D-07 0.000000000000D+00 0.000000000000D+00 0.260079196561D-09 0.000000000000D+00  7 -2 21 23 -11 11 23 -2 2 0.62813072D-02 0.59156774D+00 0.12492853D+06 0.12492853D+06 0.12492853D+06 0.11138751D+01  1  2 12  4  7  2        2 0.199852790085D-07 0.100000000000D+01
-.148829798222D-06 0.000000000000D+00 -.646748461893D-07 0.260079196561D-09 0.000000000000D+00  7 -2 21 23 -11 11 23 -2 2 0.62813072D-02 0.58754441D+00 0.79508531D+05 0.79508531D+05 0.79508531D+05 0.11299870D+01  1  2  5  4  7  2        2 -.383107373082D-07 0.100000000000D+01
  </mgrwgt>
  </event>
  <event>
  7     66 0.53686478E-06 0.30777628E+03 0.75467711E-02 0.89589291E-01
       -2 -1    0    0    0  501 0.00000000E+00 0.00000000E+00 0.40260701E+03 0.40260714E+03 0.32000000E+00 0.0000E+00 0.9000E+01
        2 -1    0    0  501    0 0.00000000E+00 0.00000000E+00 -.38759795E+03 0.38759808E+03 0.32000000E+00 0.0000E+00 0.9000E+01
       23  2    1    2    0    0 0.15137763E+03 -.15820586E+03 -.20835611E+03 0.31537130E+03 0.90013937E+02 0.0000E+00 0.0000E+00
       23  1    1    2    0    0 -.80549638E+02 0.23025313E+03 0.21633070E+03 0.33855424E+03 0.91188000E+02 0.0000E+00 0.9000E+01
      -13  1    3    3    0    0 0.35972503E+02 -.41073112E+02 -.64502909E+01 0.54978531E+02 0.10565837E+00 0.0000E+00 0.9000E+01
       13  1    3    3    0    0 0.11540513E+03 -.11713274E+03 -.20190582E+03 0.26039277E+03 0.10565837E+00 0.0000E+00 0.9000E+01
       23  1    1    2    0    0 -.70827994E+02 -.72047276E+02 0.70344708E+01 0.13627968E+03 0.91188000E+02 0.0000E+00 0.9000E+01
#aMCatNLO 1  0  0  2  1 0.73644828D+03 0.00000000D+00  -5  7  0 0.00000000D+00 0.00000000D+00 0.00000000D+00 0.00000000D+00 0.00000000D+00
  <mgrwgt>
 0.4206872703D-03    5    2    0
 0.395031333123281D+03 0.000000000000000D+00 0.000000000000000D+00 0.395031333123281D+03
 0.395031333123281D+03 0.000000000000000D+00 0.000000000000000D+00 -.395031333123281D+03
 0.334505000061564D+03 -.805505009972396D+02 0.230252014716230D+03 0.209938015210200D+03
 0.551109392227010D+02 0.359725397710826D+02 -.410731605048091D+02 -.749583154642045D+01
 0.264277123733958D+03 0.115405942553224D+03 -.117133584035966D+03 -.206890285038677D+03
 0.136169603228338D+03 -.708279813270675D+02 -.720452701754552D+02 0.444810137489769D+01
 0.000000000000000D+00 0.000000000000000D+00 -.000000000000000D+00 -.000000000000000D+00
 0.871799602836057D+03 0.000000000000000D+00 0.000000000000000D+00 0.871799602836057D+03
 0.948727430907816D+03 0.000000000000000D+00 0.000000000000000D+00 -.948727430907816D+03
 0.670285154510321D+03 -.333689890026581D+03 0.534363194912014D+03 0.209938015210200D+03
 0.244629457751562D+02 0.159252845910882D+02 -.169892182315365D+02 -.749583154642045D+01
 0.208547193905190D+03 -.371391380761536D+01 0.259720789805805D+02 -.206890285038677D+03
 0.176776501933599D+03 -.149669305059542D+03 0.226714315611580D+02 0.444810137489769D+01
 0.740455237619608D+03 0.471147824302650D+03 -.566017487222216D+03 -.769278280717595D+02
0.149220921798D-04 0.000000000000D+00 0.000000000000D+00 0.570490212291D-09 0.000000000000D+00  7 -2 2 23 -13 13 23 21 0 0.61939560D-01 0.59630474D-01 0.94726236D+05 0.94726236D+05 0.94726236D+05 0.11236581D+01  1  2  2  2  7  2        2 0.372685574133D-03 0.100000000000D+01
-.766213768789D-06 0.000000000000D+00 -.573047630476D-07 0.570490212291D-09 0.000000000000D+00  7 -2 2 23 -13 13 23 21 2 0.61939560D-01 0.59630474D-01 0.94726236D+05 0.94726236D+05 0.94726236D+05 0.11236581D+01  1  2  3  2  7  2        2 -.241619041411D-04 0.100000000000D+01
0.909413789624D-06 0.000000000000D+00 0.000000000000D+00 0.570490212291D-09 0.000000000000D+00  7 -2 2 23 -13 13 23 21 2 0.61939560D-01 0.59630474D-01 0.94726236D+05 0.94726236D+05 0.94726236D+05 0.11236581D+01  1  2 15  2  7  2        2 0.286775958676D-04 0.100000000000D+01
0.938480516497D-05 0.000000000000D+00 -.585754812104D-05 0.570490212291D-09 0.000000000000D+00  7 -2 2 23 -13 13 23 21 2 0.61939560D-01 0.25486314D+00 0.94726236D+05 0.94726236D+05 0.94726236D+05 0.11236581D+01  1  2  5  2  7  2        2 0.412601582755D-04 0.100000000000D+01
0.164221700532D-05 0.000000000000D+00 -.102346322771D-05 0.570490212291D-09 0.000000000000D+00  7 -2 21 23 -13 13 23 -2 2 0.61939560D-01 0.25486314D+00 0.94726236D+05 0.94726236D+05 0.94726236D+05 0.11236581D+01  1  2  5  4  7  2        2 0.222584614881D-05 0.100000000000D+01
  </mgrwgt>
  </event>
  <event>
  8     66 0.53686478E-06 0.34399173E+03 0.75467711E-02 0.92225333E-01
       -2 -1    0    0    0  501 0.00000000E+00 0.00000000E+00 0.63628595E+03 0.63628603E+03 0.32000000E+00 0.0000E+00 0.9000E+01
        2 -1    0    0  501    0 0.00000000E+00 0.00000000E+00 -.58325431E+03 0.58325440E+03 0.32000000E+00 0.0000E+00 0.9000E+01
       25  2    1    2    0    0 -.44037290E+03 -.33771661E+03 0.15333160E+03 0.64892197E+03 0.29934652E+03 0.0000E+00 0.0000E+00
       23  2    1    2    0    0 0.44037290E+03 0.33771661E+03 -.10029997E+03 0.57061846E+03 0.86974377E+02 0.0000E+00 0.0000E+00
       23  1    3    3    0    0 -.38425735E+02 -.13848231E+03 0.67804085E+02 0.18321172E+03 0.91188000E+02 0.0000E+00 0.9000E+01
      -11  1    4    4    0    0 0.82131504E+02 0.10265031E+03 -.43846021E+01 0.13153666E+03 0.51099893E-03 0.0000E+00 0.9000E+01
       11  1    4    4    0    0 0.35824140E+03 0.23506631E+03 -.95915366E+02 0.43908180E+03 0.51099893E-03 0.0000E+00 0.9000E+01
       23  1    3    3    0    0 -.40194717E+03 -.19923430E+03 0.85527520E+02 0.46571025E+03 0.91188000E+02 0.0000E+00 0.9000E+01
#aMCatNLO 1  0  0  1  2 0.53534666D+02 0.00000000D+00  -5  7  0 0.00000000D+00 0.00000000D+00 0.00000000D+00 0.00000000D+00 0.00000000D+00
  <mgrwgt>
 0.2576482577D-03    9    2    0
 0.609193424340340D+03 0.000000000000000D+00 0.000000000000000D+00 0.609193424340340D+03
 0.609193424340340D+03 0.000000000000000D+00 0.000000000000000D+00 -.609193424340340D+03
 0.180433936801300D+03 -.384257352881489D+02 -.138482312927230D+03 0.598937899911621D+02
 0.131852048940735D+03 0.821315038080163D+02 0.102650305598347D+03 -.101140324633481D+02
 0.443672349545959D+03 0.358241399752734D+03 0.235066305800211D+03 -.115117701211738D+03
 0.462428513392685D+03 -.401947168272601D+03 -.199234298471328D+03 0.653379436839236D+02
 0.000000000000000D+00 -.000000000000000D+00 -.000000000000000D+00 0.000000000000000D+00
 0.638562651476592D+03 0.000000000000000D+00 0.000000000000000D+00 0.638562651476592D+03
 0.634675371540149D+03 0.000000000000000D+00 0.000000000000000D+00 -.634675371540149D+03
 0.174351653110897D+03 -.353442110137062D+02 -.131326951791381D+03 0.598937899911621D+02
 0.137549203410954D+03 0.844714142279756D+02 0.108083624498090D+03 -.101140324633481D+02
 0.459812778412575D+03 0.366088706499581D+03 0.253287909369319D+03 -.115117701211738D+03
 0.447848775709777D+03 -.394040867558592D+03 -.180875709727908D+03 0.653379436839236D+02
 0.536756123725380D+02 -.211750421552588D+02 -.491688723481197D+02 0.388727993644345D+01
0.214598686526D-04 0.000000000000D+00 0.000000000000D+00 0.513898676012D-07 0.000000000000D+00  7 -2 2 23 -11 11 23 21 0 0.97890159D-01 0.89731446D-01 0.35279665D+06 0.35279665D+06 0.35279665D+06 0.10793812D+01  1  2  2  1  7  1       -2 0.118447286312D-03 0.100000000000D+01
-.119128617643D-05 0.000000000000D+00 -.824115461391D-07 0.513898676012D-07 0.000000000000D+00  7 -2 2 23 -11 11 23 21 2 0.97890159D-01 0.89731446D-01 0.35279665D+06 0.35279665D+06 0.35279665D+06 0.10793812D+01  1  2  3  1  7  1       -2 -.766061951569D-05 0.100000000000D+01
0.135159087705D-05 0.000000000000D+00 0.000000000000D+00 0.513898676012D-07 0.000000000000D+00  7 -2 2 23 -11 11 23 21 2 0.97890159D-01 0.89731446D-01 0.35279665D+06 0.35279665D+06 0.35279665D+06 0.10793812D+01  1  2 15  1  7  1       -2 0.869146612695D-05 0.100000000000D+01
0.428941585770D-04 0.000000000000D+00 0.000000000000D+00 0.513898676012D-07 0.000000000000D+00  7 -2 2 23 -11 11 23 21 2 0.10456585D+00 0.89731446D-01 0.38606287D+06 0.38606287D+06 0.38606287D+06 0.10765397D+01  1  2 12  1  7  1       -2 0.233006447484D-03 0.100000000000D+01
-.348027121986D-04 0.000000000000D+00 0.000000000000D+00 0.513898676012D-07 0.000000000000D+00  7 -2 2 23 -11 11 23 21 2 0.97890159D-01 0.89731446D-01 0.35279665D+06 0.35279665D+06 0.35279665D+06 0.10793812D+01  1  2  4  1  7  1       -2 -.223800411306D-03 0.100000000000D+01
-.175169865344D-03 0.000000000000D+00 -.325691526652D-04 0.513898676012D-07 0.000000000000D+00  7 -2 2 23 -11 11 23 21 2 0.10604365D+00 0.89731446D-01 0.35279665D+06 0.35279665D+06 0.35279665D+06 0.10793812D+01  1  2  5  1  7  1       -2 -.926935819930D-03 0.100000000000D+01
0.177311741500D-03 0.000000000000D+00 0.324651962005D-04 0.513898676012D-07 0.000000000000D+00  7 -2 2 23 -11 11 23 21 2 0.97890159D-01 0.89731446D-01 0.35279665D+06 0.35279665D+06 0.35279665D+06 0.10793812D+01  1  2  6  1  7  1       -2 0.114021115512D-02 0.100000000000D+01
0.498589930143D-06 0.000000000000D+00 0.000000000000D+00 0.513898676012D-07 0.000000000000D+00  7 21 2 23 -11 11 23 2 2 0.10456585D+00 0.89731446D-01 0.38606287D+06 0.38606287D+06 0.38606287D+06 0.10765397D+01  1  2 12  3  7  1       -2 0.245458428061D-04 0.100000000000D+01
-.226926636316D-05 0.000000000000D+00 -.435045964709D-06 0.513898676012D-07 0.000000000000D+00  7 21 2 23 -11 11 23 2 2 0.10604365D+00 0.89731446D-01 0.35279665D+06 0.35279665D+06 0.35279665D+06 0.10793812D+01  1  2  5  3  7  1       -2 -.108857089408D-03 0.100000000000D+01
  </mgrwgt>
  </event>
  <event>
  9     66 0.53686478E-06 0.46631586E+03 0.75467711E-02 0.90588854E-01
       -2 -1    0    0    0  501 0.00000000E+00 0.00000000E+00 0.37140685E+03 0.37140699E+03 0.32000000E+00 0.0000E+00 0.9000E+01
        2 -1    0    0  502    0 0.00000000E+00 0.00000000E+00 -.14439185E+04 0.14439185E+04 0.32000000E+00 0.0000E+00 0.9000E+01
       25  2    1    2    0    0 -.51279189E+03 0.41097445E+03 -.51218939E+03 0.88474458E+03 0.29762305E+03 0.0000E+00 0.0000E+00
       23  2    1    2    0    0 0.10895863E+03 -.27493545E+03 -.29861472E+03 0.43050161E+03 0.93270583E+02 0.0000E+00 0.0000E+00
       23  1    3    3    0    0 -.47952254E+02 0.23881641E+02 -.44672688E+02 0.11480702E+03 0.91188000E+02 0.0000E+00 0.9000E+01
      -11  1    4    4    0    0 -.13946685E+02 -.24129538E+02 -.46657789E+02 0.54347897E+02 0.51099893E-03 0.0000E+00 0.9000E+01
       11  1    4    4    0    0 0.12290531E+03 -.25080591E+03 -.25195693E+03 0.37615371E+03 0.51099893E-03 0.0000E+00 0.9000E+01
       23  1    3    3    0    0 -.46483964E+03 0.38709281E+03 -.46751670E+03 0.76993756E+03 0.91188000E+02 0.0000E+00 0.9000E+01
       21  1    1    2  502  501 0.40383327E+03 -.13603900E+03 -.26170751E+03 0.50007930E+03 0.75000000E+00 0.0000E+00 0.9000E+01
#aMCatNLO 2  0  0  2  1 0.42613134D+03 0.00000000D+00  -5  7  0 0.00000000D+00 0.00000000D+00 0.00000000D+00 0.00000000D+00 0.00000000D+00
  <mgrwgt>
 0.3131780328D-04    1    2    0
 0.471932549589834D+03 0.000000000000000D+00 0.000000000000000D+00 0.471932549589834D+03
 0.471932549589834D+03 0.000000000000000D+00 0.000000000000000D+00 -.471932549589834D+03
 0.976465248030756D+02 -.542010439149784D+01 0.955386783427281D+01 0.331502419283506D+02
 0.331625359785326D+02 -.552070224966172D+00 -.286417715011351D+02 -.167062244768512D+02
 0.396454602036658D+03 0.261003953450215D+03 -.297327094117854D+03 -.254909172615599D+02
 0.416601436361401D+03 -.255031778833751D+03 0.316414997784716D+03 0.904689981006049D+01
 0.000000000000000D+00 0.000000000000000D+00 -.000000000000000D+00 0.000000000000000D+00
 0.762484332294967D+03 0.000000000000000D+00 0.000000000000000D+00 0.762484332294967D+03
 0.703333641918702D+03 0.000000000000000D+00 0.000000000000000D+00 -.703333641918702D+03
 0.110832943323353D+03 -.479522541642701D+02 0.238816406968735D+02 0.331502419283506D+02
 0.324937310245696D+02 -.139466850846108D+02 -.241295378069459D+02 -.167062244768512D+02
 0.280462309139259D+03 0.122905311370042D+03 -.250805909862433D+03 -.254909172615599D+02
 0.611811926112105D+03 -.464839639311013D+03 0.387092811762293D+03 0.904689981006049D+01
 0.430217064614382D+03 0.403833267189853D+03 -.136039004789788D+03 0.591506903762646D+02
0.555628079403D-05 0.000000000000D+00 0.000000000000D+00 0.162870270053D-07 0.747587443008D-12  7 -2 2 23 -11 11 23 21 2 0.57139503D-01 0.22214122D+00 0.52621036D+06 0.52621036D+06 0.52621036D+06 0.10669457D+01  1  2  1  2  7  2        2 0.313178032778D-04 0.100000000000D+01
  </mgrwgt>
  </event>
  <event>
  9     66 -.53686478E-06 0.23986488E+03 0.75467711E-02 0.10344639E+00
       -2 -1    0    0    0  501 0.00000000E+00 0.00000000E+00 0.57603457E+02 0.57604345E+02 0.32000000E+00 0.0000E+00 0.9000E+01
        2 -1    0    0  502    0 0.00000000E+00 0.00000000E+00 -.37826052E+04 0.37826052E+04 0.32000000E+00 0.0000E+00 0.9000E+01
       25  2    1    2    0    0 0.10961550E+03 -.13292117E+03 -.35236878E+04 0.35400456E+04 0.29302478E+03 0.0000E+00 0.0000E+00
       23  2    1    2    0    0 -.11083948E+03 0.11916060E+03 -.12942630E+03 0.22695708E+03 0.90959939E+02 0.0000E+00 0.0000E+00
       23  1    3    3    0    0 -.12114494E+02 -.10729765E+03 -.83011939E+03 0.84206472E+03 0.91188000E+02 0.0000E+00 0.9000E+01
      -11  1    4    4    0    0 -.92285717E+02 0.13089105E+03 -.95246968E+02 0.18633600E+03 0.51099893E-03 0.0000E+00 0.9000E+01
       11  1    4    4    0    0 -.18553761E+02 -.11730448E+02 -.34179327E+02 0.40621077E+02 0.51099893E-03 0.0000E+00 0.9000E+01
       23  1    3    3    0    0 0.12172999E+03 -.25623514E+02 -.26935684E+04 0.26979809E+04 0.91188000E+02 0.0000E+00 0.9000E+01
       21  1    1    2  502  501 0.12239775E+01 0.13760565E+02 -.71887583E+02 0.73206819E+02 0.75000000E+00 0.0000E+00 0.9000E+01
#aMCatNLO 2  0  0  2  1 0.13814893D+02 0.00000000D+00  -5  7  0 0.00000000D+00 0.00000000D+00 0.00000000D+00 0.00000000D+00 0.00000000D+00
  <mgrwgt>
 -.1478593000D-03    3    2    0
 0.459585604388170D+03 0.000000000000000D+00 0.000000000000000D+00 0.459585604388170D+03
 0.459585604388170D+03 0.000000000000000D+00 0.000000000000000D+00 -.459585604388170D+03
 0.150187385997388D+03 -.119134458078008D+02 -.105037365468261D+03 -.553734704818099D+02
 0.386944620523963D+03 -.917717382683112D+02 0.136669451855420D+03 0.350179308836466D+03
 0.304345867038011D+02 -.185131055380473D+02 -.112733755728311D+02 0.213644563320064D+02
 0.351604615551188D+03 0.122198289614159D+03 -.203587108143282D+02 -.316170294686663D+03
 0.000000000000000D+00 0.000000000000000D+00 0.000000000000000D+00 -.000000000000000D+00
 0.464951948398672D+03 0.000000000000000D+00 0.000000000000000D+00 0.464951948398672D+03
 0.468615470072112D+03 0.000000000000000D+00 0.000000000000000D+00 -.468615470072112D+03
 0.151792686922832D+03 -.121144942886389D+02 -.107297652603323D+03 -.553734704818099D+02
 0.385064499486596D+03 -.922857167546079D+02 0.130891049773334D+03 0.350179308836466D+03
 0.306314456660227D+02 -.185537613101982D+02 -.117304480081745D+02 0.213644563320064D+02
 0.351786387876537D+03 0.121729994831306D+03 -.256235139537932D+02 -.316170294686663D+03
 0.142923985187967D+02 0.122397752213950D+01 0.137605647919565D+02 -.366352167344006D+01
-.263336437986D-04 0.000000000000D+00 0.000000000000D+00 0.141724779860D-07 0.000000000000D+00  7 -2 2 23 -11 11 23 21 2 0.87596706D-02 0.58520667D+00 0.60391004D+05 0.60391004D+05 0.60391004D+05 0.11401516D+01  1  2 13  2  7  2        2 -.176216872191D-03 0.100000000000D+01
-.121331101692D-03 0.000000000000D+00 0.000000000000D+00 0.141724779860D-07 0.000000000000D+00  7 -2 2 23 -11 11 23 21 2 0.87596706D-02 0.57071376D+00 0.57535160D+05 0.57535160D+05 0.57535160D+05 0.11419714D+01  1  2  8  2  7  2        2 -.960358494378D-03 0.100000000000D+01
0.144912329063D-03 0.000000000000D+00 0.000000000000D+00 0.141724779860D-07 0.514908088481D-09  7 -2 2 23 -11 11 23 21 2 0.88619528D-02 0.58192705D+00 0.60391004D+05 0.60391004D+05 0.60391004D+05 0.11401516D+01  1  2  1  2  7  2        2 0.988716066561D-03 0.100000000000D+01
  </mgrwgt>
  </event>
  <event>
  8     66 0.53686478E-06 0.11675041E+03 0.75467711E-02 0.10666346E+00
       -2 -1    0    0    0  501 0.00000000E+00 0.00000000E+00 0.14847585E+03 0.14847619E+03 0.32000000E+00 0.0000E+00 0.9000E+01
        2 -1    0    0  501    0 0.00000000E+00 0.00000000E+00 -.11497233E+04 0.11497233E+04 0.32000000E+00 0.0000E+00 0.9000E+01
       25  2    1    2    0    0 0.57326678E+02 0.51921836E+02 -.11001021E+04 0.11428988E+04 0.30001800E+03 0.0000E+00 0.0000E+00
       23  2    1    2    0    0 -.57326678E+02 -.51921836E+02 0.98854706E+02 0.15530069E+03 0.91453953E+02 0.0000E+00 0.0000E+00
       23  1    3    3    0    0 -.10435972E+02 -.68333911E+02 -.22642253E+03 0.25369439E+03 0.91188000E+02 0.0000E+00 0.9000E+01
      -11  1    4    4    0    0 -.17771509E+02 -.48908643E+02 0.36539257E+01 0.52165439E+02 0.51099893E-03 0.0000E+00 0.9000E+01
       11  1    4    4    0    0 -.39555170E+02 -.30131929E+01 0.95200781E+02 0.10313525E+03 0.51099893E-03 0.0000E+00 0.9000E+01
       23  1    3    3    0    0 0.67762651E+02 0.12025575E+03 -.87367960E+03 0.88920443E+03 0.91188000E+02 0.0000E+00 0.9000E+01
#aMCatNLO 1  0  0  1  2 0.16956176D+02 0.00000000D+00  -5  7  0 0.00000000D+00 0.00000000D+00 0.00000000D+00 0.00000000D+00 0.00000000D+00
  <mgrwgt>
 0.3141814484D-03    6    2    0
 0.413166300182367D+03 0.000000000000000D+00 0.000000000000000D+00 0.413166300182367D+03
 0.413166300182367D+03 0.000000000000000D+00 0.000000000000000D+00 -.413166300182367D+03
 0.124212653250848D+03 -.104359722909215D+02 -.683339106246303D+02 -.483228623397208D+02
 0.863812355790424D+02 -.177715088309073D+02 -.489086428865618D+02 0.689480673045284D+02
 0.277381848440973D+03 -.395551695478132D+02 -.301319288314340D+01 0.274530506638559D+03
 0.338356863093871D+03 0.677626506696420D+02 0.120255746394335D+03 -.295155711603367D+03
 0.000000000000000D+00 0.000000000000000D+00 -.000000000000000D+00 -.000000000000000D+00
 0.420053928637556D+03 0.000000000000000D+00 0.000000000000000D+00 0.420053928637556D+03
 0.423822549938988D+03 0.000000000000000D+00 0.000000000000000D+00 -.423822549938988D+03
 0.122858991522652D+03 -.106446317371116D+02 -.658078509331579D+02 -.483228623397208D+02
 0.854292510264549D+02 -.179166079620424D+02 -.471520530310797D+02 0.689480673045284D+02
 0.277445437633821D+03 -.400237379031566D+02 0.265935948265882D+01 0.274530506638559D+03
 0.340772870495419D+03 0.671891051531913D+02 0.127199166578683D+03 -.295155711603367D+03
 0.173699278981971D+02 0.139587244911932D+01 -.168986220971044D+02 -.376862130143246D+01
0.398349453101D-05 0.000000000000D+00 0.000000000000D+00 0.130342212859D-05 0.000000000000D+00  7 -2 2 23 -11 11 23 21 0 0.22842468D-01 0.17688053D+00 0.34515865D+05 0.34515865D+05 0.34515865D+05 0.11617276D+01  1  2  2  1  7  1       -2 0.169059260040D-03 0.100000000000D+01
-.494144483506D-07 0.000000000000D+00 -.152976678773D-07 0.130342212859D-05 0.000000000000D+00  7 -2 2 23 -11 11 23 21 2 0.22842468D-01 0.17688053D+00 0.34515865D+05 0.34515865D+05 0.34515865D+05 0.11617276D+01  1  2  3  1  7  1       -2 -.283033133433D-05 0.100000000000D+01
0.236290178296D-06 0.000000000000D+00 0.000000000000D+00 0.130342212859D-05 0.000000000000D+00  7 -2 2 23 -11 11 23 21 2 0.22842468D-01 0.17688053D+00 0.34515865D+05 0.34515865D+05 0.34515865D+05 0.11617276D+01  1  2 15  1  7  1       -2 0.135340880643D-04 0.100000000000D+01
0.454134580312D-05 0.000000000000D+00 0.000000000000D+00 0.130342212859D-05 0.000000000000D+00  7 -2 2 23 -11 11 23 21 2 0.23511706D-01 0.17688053D+00 0.38178666D+05 0.38178666D+05 0.38178666D+05 0.11577446D+01  1  2 12  1  7  1       -2 0.245796381151D-03 0.100000000000D+01
-.281023226466D-05 0.000000000000D+00 0.000000000000D+00 0.130342212859D-05 0.000000000000D+00  7 -2 2 23 -11 11 23 21 2 0.22842468D-01 0.17688053D+00 0.34515865D+05 0.34515865D+05 0.34515865D+05 0.11617276D+01  1  2  4  1  7  1       -2 -.160962809480D-03 0.100000000000D+01
0.718277042992D-07 0.000000000000D+00 0.000000000000D+00 0.130342212859D-05 0.000000000000D+00  7 21 2 23 -11 11 23 2 2 0.23511706D-01 0.17688053D+00 0.38178666D+05 0.38178666D+05 0.38178666D+05 0.11577446D+01  1  2 12  3  7  1       -2 0.495848599879D-04 0.100000000000D+01
  </mgrwgt>
  </event>
  <event>
  7     66 0.53686478E-06 0.34381088E+03 0.75467711E-02 0.91522794E-01
       -2 -1    0    0    0  501 0.00000000E+00 0.00000000E+00 0.12625146E+04 0.12625146E+04 0.32000000E+00 0.0000E+00 0.9000E+01
        2 -1    0    0  501    0 0.00000000E+00 0.00000000E+00 -.11831621E+03 0.11831665E+03 0.32000000E+00 0.0000E+00 0.9000E+01
       23  2    1    2    0    0 -.25072606E+03 -.12519163E+03 0.54075309E+03 0.61577864E+03 0.90735503E+02 0.0000E+00 0.0000E+00
       23  1    1    2    0    0 0.10382163E+03 -.60641847E+02 0.54817912E+02 0.16055099E+03 0.91188000E+02 0.0000E+00 0.9000E+01
      -13  1    3    3    0    0 -.20005800E+03 -.11641010E+03 0.49702099E+03 0.54827401E+03 0.10565837E+00 0.0000E+00 0.9000E+01
       13  1    3    3    0    0 -.50668061E+02 -.87815286E+01 0.43732098E+02 0.67504632E+02 0.10565837E+00 0.0000E+00 0.9000E+01
       23  1    1    2    0    0 0.14690442E+03 0.18583348E+03 0.54862737E+03 0.60450164E+03 0.91188000E+02 0.0000E+00 0.9000E+01
#aMCatNLO 1  0  0  1  1 0.49131660D+03 0.00000000D+00  -5  7  0 0.00000000D+00 0.00000000D+00 0.00000000D+00 0.00000000D+00 0.00000000D+00
  <mgrwgt>
 0.3078973203D-03    5    2    0
 0.386492265183230D+03 0.000000000000000D+00 0.000000000000000D+00 0.386492265183230D+03
 0.386492265183230D+03 0.000000000000000D+00 0.000000000000000D+00 -.386492265183230D+03
 0.205656987224692D+03 0.103823327409361D+03 -.606380953177150D+02 -.139725742553852D+03
 0.243712346550657D+03 -.200060938928762D+03 -.116411614420972D+03 0.762867262639627D+02
 0.558543528698031D+02 -.506684868140389D+02 -.878169625758296D+01 -.218012611864453D+02
 0.267760843721309D+03 0.146906098333439D+03 0.185831405996270D+03 0.852402774763344D+02
 0.000000000000000D+00 -.000000000000000D+00 -.000000000000000D+00 0.000000000000000D+00
 0.904423983693345D+03 0.000000000000000D+00 0.000000000000000D+00 0.904423983693345D+03
 0.593124405571737D+03 0.000000000000000D+00 0.000000000000000D+00 -.593124405571737D+03
 0.212015916873748D+03 0.116116020631629D+03 0.602435414319752D+02 -.139725742553852D+03
 0.202298380979985D+03 -.186934224235097D+03 0.126714700280907D+02 0.762867262639627D+02
 0.573707833315827D+02 -.473361139195668D+02 0.239875824074375D+02 -.218012611864453D+02
 0.444228172336946D+03 0.167860923188359D+03 0.391893127416050D+03 0.852402774763344D+02
 0.581635135742820D+03 -.497066056653237D+02 -.488795721283553D+03 0.311299578121608D+03
0.552455232880D-04 0.000000000000D+00 0.000000000000D+00 0.144889804079D-09 0.000000000000D+00  7 -2 2 23 -13 13 23 21 0 0.19423305D+00 0.18202531D-01 0.11820592D+06 0.11820592D+06 0.11820592D+06 0.11158095D+01  1  2  2  1  7  1       -2 0.305296334904D-03 0.100000000000D+01
-.301809501632D-05 0.000000000000D+00 -.212157355906D-06 0.144889804079D-09 0.000000000000D+00  7 -2 2 23 -13 13 23 21 2 0.19423305D+00 0.18202531D-01 0.11820592D+06 0.11820592D+06 0.11820592D+06 0.11158095D+01  1  2  3  1  7  1       -2 -.207652650288D-04 0.100000000000D+01
0.339201841239D-05 0.000000000000D+00 0.000000000000D+00 0.144889804079D-09 0.000000000000D+00  7 -2 2 23 -13 13 23 21 2 0.19423305D+00 0.18202531D-01 0.11820592D+06 0.11820592D+06 0.11820592D+06 0.11158095D+01  1  2 15  1  7  1       -2 0.233379535552D-04 0.100000000000D+01
-.359561263900D-05 0.000000000000D+00 -.139794446697D-04 0.144889804079D-09 0.000000000000D+00  7 -2 2 23 -13 13 23 21 2 0.52092834D+00 0.18202531D-01 0.11820592D+06 0.11820592D+06 0.11820592D+06 0.11158095D+01  1  2  5  1  7  1       -2 -.966272731158D-07 0.100000000000D+01
0.424119022730D-06 0.000000000000D+00 -.153650376947D-05 0.144889804079D-09 0.000000000000D+00  7 21 2 23 -13 13 23 2 2 0.52092834D+00 0.18202531D-01 0.11820592D+06 0.11820592D+06 0.11820592D+06 0.11158095D+01  1  2  5  3  7  1       -2 0.124924182800D-06 0.100000000000D+01
  </mgrwgt>
  </event>
  <event>
  8     66 0.53686478E-06 0.31768260E+03 0.75467711E-02 0.98147554E-01
       -2 -1    0    0    0  501 0.00000000E+00 0.00000000E+00 0.18479006E+03 0.18479033E+03 0.32000000E+00 0.0000E+00 0.9000E+01
        2 -1    0    0  501    0 0.00000000E+00 0.00000000E+00 -.65339432E+03 0.65339440E+03 0.32000000E+00 0.0000E+00 0.9000E+01
       25  2    1    2    0    0 0.25798664E+03 -.31053981E+02 -.16176839E+03 0.42758598E+03 0.29856206E+03 0.0000E+00 0.0000E+00
       23  2    1    2    0    0 -.25798664E+03 0.31053981E+02 -.30683587E+03 0.41059875E+03 0.83196309E+02 0.0000E+00 0.0000E+00
       23  1    3    3    0    0 -.26914928E+00 0.21565562E+01 0.24813636E+02 0.94528784E+02 0.91188000E+02 0.0000E+00 0.9000E+01
      -11  1    4    4    0    0 -.20051621E+03 0.51908179E+02 -.20248579E+03 0.28965791E+03 0.51099893E-03 0.0000E+00 0.9000E+01
       11  1    4    4    0    0 -.57470436E+02 -.20854198E+02 -.10435008E+03 0.12094084E+03 0.51099893E-03 0.0000E+00 0.9000E+01
       23  1    3    3    0    0 0.25825579E+03 -.33210537E+02 -.18658203E+03 0.33305720E+03 0.91188000E+02 0.0000E+00 0.9000E+01
#aMCatNLO 1  0  0  2  2 0.96388087D+02 0.00000000D+00  -5  7  0 0.00000000D+00 0.00000000D+00 0.00000000D+00 0.00000000D+00 0.00000000D+00
  <mgrwgt>
 0.8584174011D-04    4    2    0
 0.347477946705230D+03 0.000000000000000D+00 0.000000000000000D+00 0.347477946705230D+03
 0.347477946705230D+03 0.000000000000000D+00 0.000000000000000D+00 -.347477946705230D+03
 0.130742627486735D+03 -.269149281916398D+00 0.215655617212063D+01 0.936678179647406D+02
 0.212820889193847D+03 -.200516205131283D+03 0.519081787200776D+02 -.489032037700314D+02
 0.755038952485407D+02 -.574704363948007D+02 -.208541980136561D+02 -.443067665656275D+02
 0.275888481481337D+03 0.258255790808000D+03 -.332105368785422D+02 -.457847629081741D+00
 0.000000000000000D+00 0.000000000000000D+00 0.000000000000000D+00 0.000000000000000D+00
 0.409721923941628D+03 0.000000000000000D+00 0.000000000000000D+00 0.409721923941628D+03
 0.390226397949572D+03 0.000000000000000D+00 0.000000000000000D+00 -.390226397949572D+03
 0.131931264715966D+03 -.173941475171808D+02 -.379351755353738D+01 0.936678179647406D+02
 0.238765641032408D+03 -.229957343983507D+03 0.416788669075172D+02 -.489032037700314D+02
 0.847053847433746D+02 -.679152644442413D+02 -.244832493041851D+02 -.443067665656275D+02
 0.246206116720737D+03 0.224217885487923D+03 -.450369933452279D+02 -.457847629081741D+00
 0.983399146787150D+02 0.910488704570054D+02 0.316348932954331D+02 0.194955259920566D+02
0.311824413831D-05 0.000000000000D+00 0.000000000000D+00 0.109416520031D-08 0.000000000000D+00  7 -2 2 23 -11 11 23 21 0 0.28429267D-01 0.10052223D+00 0.10092223D+06 0.10092223D+06 0.10092223D+06 0.11213950D+01  1  2  2  2  7  2        2 0.188392799803D-03 0.100000000000D+01
-.171542989580D-06 0.000000000000D+00 -.119748785437D-07 0.109416520031D-08 0.000000000000D+00  7 -2 2 23 -11 11 23 21 2 0.28429267D-01 0.10052223D+00 0.10092223D+06 0.10092223D+06 0.10092223D+06 0.11213950D+01  1  2  3  2  7  2        2 -.130330004367D-04 0.100000000000D+01
0.193382778855D-06 0.000000000000D+00 0.000000000000D+00 0.109416520031D-08 0.000000000000D+00  7 -2 2 23 -11 11 23 21 2 0.28429267D-01 0.10052223D+00 0.10092223D+06 0.10092223D+06 0.10092223D+06 0.11213950D+01  1  2 15  2  7  2        2 0.146922812028D-04 0.100000000000D+01
-.137163759286D-05 0.000000000000D+00 0.000000000000D+00 0.109416520031D-08 0.000000000000D+00  7 -2 2 23 -11 11 23 21 2 0.28429267D-01 0.10052223D+00 0.10092223D+06 0.10092223D+06 0.10092223D+06 0.11213950D+01  1  2  4  2  7  2        2 -.104210340455D-03 0.100000000000D+01
  </mgrwgt>
  </event>
  <event>
  9     66 0.53686478E-06 0.17602682E+03 0.75467711E-02 0.10642422E+00
       21 -1    0    0  502  501 0.00000000E+00 0.00000000E+00 0.36919104E+02 0.36926721E+02 0.75000000E+00 0.0000E+00 0.9000E+01
        2 -1    0    0  501    0 0.00000000E+00 0.00000000E+00 -.15961428E+04 0.15961428E+04 0.32000000E+00 0.0000E+00 0.9000E+01
       25  2    1    2    0    0 0.62430248E+02 0.77248080E+02 -.84490814E+03 0.90177193E+03 0.29909538E+03 0.0000E+00 0.0000E+00
       23  2    1    2    0    0 -.34048440E+02 -.41804855E+02 -.54105908E+03 0.55218968E+03 0.96237019E+02 0.0000E+00 0.0000E+00
       23  1    3    3    0    0 0.10703329E+03 0.10609010E+03 -.30995190E+03 0.35650620E+03 0.91188000E+02 0.0000E+00 0.9000E+01
      -11  1    4    4    0    0 -.26645475E+02 0.11266513E+01 -.33758562E+02 0.43021985E+02 0.51099893E-03 0.0000E+00 0.9000E+01
       11  1    4    4    0    0 -.74029655E+01 -.42931507E+02 -.50730052E+03 0.50916769E+03 0.51099893E-03 0.0000E+00 0.9000E+01
       23  1    3    3    0    0 -.44603037E+02 -.28842024E+02 -.53495624E+03 0.54526574E+03 0.91188000E+02 0.0000E+00 0.9000E+01
        2  1    1    2  502    0 -.28381808E+02 -.35443225E+02 -.17325648E+03 0.17910795E+03 0.32000000E+00 0.0000E+00 0.9000E+01
#aMCatNLO 2  0  0  1  2 0.45406488D+02 0.00000000D+00  -5  7  0 0.00000000D+00 0.00000000D+00 0.00000000D+00 0.00000000D+00 0.00000000D+00
  <mgrwgt>
 0.7347569812D-04    1    2    0
 0.218539158836247D+03 0.000000000000000D+00 0.000000000000000D+00 0.218539158836247D+03
 0.218539158836247D+03 0.000000000000000D+00 0.000000000000000D+00 -.218539158836247D+03
 0.187529708251457D+03 0.944202477412842D+02 0.903389324719229D+02 0.988728184547425D+02
 0.377057558390319D+02 -.290280195766992D+02 -.184867257136154D+01 0.239933430886850D+02
 0.890918553506696D+02 -.130295963098725D+02 -.499580474516509D+02 -.726070368810420D+02
 0.122750998231335D+03 -.523626318547125D+02 -.385322124489104D+02 -.502591246623855D+02
 0.000000000000000D+00 -.000000000000000D+00 -.000000000000000D+00 -.000000000000000D+00
 0.238623029933929D+03 0.000000000000000D+00 0.000000000000000D+00 0.238623029933929D+03
 0.246975899780056D+03 0.000000000000000D+00 0.000000000000000D+00 -.246975899780056D+03
 0.201995841435077D+03 0.107033285417366D+03 0.106090104140984D+03 0.988728184547425D+02
 0.358738231990586D+02 -.266454749571113D+02 0.112665107993393D+01 0.239933430886850D+02
 0.846740809726976D+02 -.740296590416495D+01 -.429315068422684D+02 -.726070368810420D+02
 0.116886800641989D+03 -.446030366542569D+02 -.288420236757036D+02 -.502591246623855D+02
 0.461683834651635D+02 -.283818079018326D+02 -.354432247029460D+02 -.835286984612681D+01
0.160481373713D-07 0.000000000000D+00 0.000000000000D+00 0.341303048713D-08 0.191518249828D-12  7 21 2 23 -11 11 23 2 2 0.56804375D-02 0.24556046D+00 0.39464617D+05 0.39464617D+05 0.39464617D+05 0.11564455D+01  1  2  1  3  7  1       -2 0.734756981191D-04 0.100000000000D+01
  </mgrwgt>
  </event>
  <event>
  8     66 0.53686478E-06 0.44495193E+03 0.75467711E-02 0.90392442E-01
       -2 -1    0    0    0  501 0.00000000E+00 0.00000000E+00 0.17127870E+03 0.17127900E+03 0.32000000E+00 0.0000E+00 0.9000E+01
        2 -1    0    0  501    0 0.00000000E+00 0.00000000E+00 -.11884641E+04 0.11884641E+04 0.32000000E+00 0.0000E+00 0.9000E+01
       25  2    1    2    0    0 -.11664826E+03 -.37704367E+03 -.53587025E+03 0.73011667E+03 0.30024105E+03 0.0000E+00 0.0000E+00
       23  2    1    2    0    0 0.11664826E+03 0.37704367E+03 -.48131512E+03 0.62962645E+03 0.94849753E+02 0.0000E+00 0.0000E+00
       23  1    3    3    0    0 0.67127439E+02 -.10488796E+03 -.18569555E+03 0.24146567E+03 0.91188000E+02 0.0000E+00 0.9000E+01
      -13  1    4    4    0    0 0.73329381E+02 0.22533004E+03 -.21436311E+03 0.31953463E+03 0.10565837E+00 0.0000E+00 0.9000E+01
       13  1    4    4    0    0 0.43318881E+02 0.15171363E+03 -.26695201E+03 0.31009182E+03 0.10565837E+00 0.0000E+00 0.9000E+01
       23  1    3    3    0    0 -.18377570E+03 -.27215571E+03 -.35017470E+03 0.48865101E+03 0.91188000E+02 0.0000E+00 0.9000E+01
#aMCatNLO 1  0  0  1  2 0.47480047D+03 0.00000000D+00  -5  7  0 0.00000000D+00 0.00000000D+00 0.00000000D+00 0.00000000D+00 0.00000000D+00
  <mgrwgt>
 0.2243806471D-03    5    2    0
 0.451174933196680D+03 0.000000000000000D+00 0.000000000000000D+00 0.451174933196680D+03
 0.451174933196680D+03 0.000000000000000D+00 0.000000000000000D+00 -.451174933196680D+03
 0.154534824802226D+03 0.671274391603352D+02 -.104887963640083D+03 -.762776034408806D+01
 0.239860483871375D+03 0.733294184322813D+02 0.225330130211365D+03 0.371776886629958D+02
 0.166349512201582D+03 0.433188443584937D+02 0.151713539316474D+03 -.527128060457544D+02
 0.341605045518177D+03 -.183775701951110D+03 -.272155705887757D+03 0.231628777268467D+02
 0.000000000000000D+00 -.000000000000000D+00 0.000000000000000D+00 0.000000000000000D+00
 0.140077139839232D+04 0.000000000000000D+00 0.000000000000000D+00 0.140077139839232D+04
 0.573078274848548D+03 0.000000000000000D+00 0.000000000000000D+00 -.573078274848548D+03
 0.239910696748593D+03 0.112495200815307D+03 -.191124404867751D+03 -.762776034408806D+01
 0.184073407683344D+03 0.122088830565805D+03 0.132646735100831D+03 0.371776886629958D+02
 0.127936174316164D+03 0.771665676940640D+02 0.873747423902124D+02 -.527128060457544D+02
 0.467722189911251D+03 -.906896783768535D+02 -.449096491772860D+03 0.231628777268467D+02
 0.954207204581512D+03 -.221060920698323D+03 0.420199419149568D+03 0.827693123543768D+03
0.806834584012D-05 0.000000000000D+00 0.000000000000D+00 0.142154974599D-06 0.000000000000D+00  7 -2 2 23 -13 13 23 21 0 0.26350596D-01 0.18284065D+00 0.19798222D+06 0.19798222D+06 0.19798222D+06 0.10981638D+01  1  2  2  1  7  1       -2 0.246819623166D-03 0.100000000000D+01
-.448136305186D-06 0.000000000000D+00 -.309845724703D-07 0.142154974599D-06 0.000000000000D+00  7 -2 2 23 -13 13 23 21 2 0.26350596D-01 0.18284065D+00 0.19798222D+06 0.19798222D+06 0.19798222D+06 0.10981638D+01  1  2  3  1  7  1       -2 -.165325379842D-04 0.100000000000D+01
0.512393976731D-06 0.000000000000D+00 0.000000000000D+00 0.142154974599D-06 0.000000000000D+00  7 -2 2 23 -13 13 23 21 2 0.26350596D-01 0.18284065D+00 0.19798222D+06 0.19798222D+06 0.19798222D+06 0.10981638D+01  1  2 15  1  7  1       -2 0.189031167195D-04 0.100000000000D+01
-.407332388447D-05 0.000000000000D+00 -.276267873274D-05 0.142154974599D-06 0.000000000000D+00  7 -2 2 23 -13 13 23 21 2 0.98008174D-01 0.18284065D+00 0.19798222D+06 0.19798222D+06 0.19798222D+06 0.10981638D+01  1  2  5  1  7  1       -2 -.107575030246D-04 0.100000000000D+01
-.568036307656D-06 0.000000000000D+00 -.428679049274D-06 0.142154974599D-06 0.000000000000D+00  7 21 2 23 -13 13 23 2 2 0.98008174D-01 0.18284065D+00 0.19798222D+06 0.19798222D+06 0.19798222D+06 0.10981638D+01  1  2  5  3  7  1       -2 -.140520517930D-04 0.100000000000D+01
  </mgrwgt>
  </event>
  <event>
  8     66 0.53686478E-06 0.33126633E+03 0.75467711E-02 0.87173315E-01
       -2 -1    0    0    0  501 0.00000000E+00 0.00000000E+00 0.15813620E+03 0.15813652E+03 0.32000000E+00 0.0000E+00 0.9000E+01
        2 -1    0    0  501    0 0.00000000E+00 0.00000000E+00 -.80493442E+03 0.80493448E+03 0.32000000E+00 0.0000E+00 0.9000E+01
       25  2    1    2    0    0 0.20990397E+03 0.15974078E+03 -.52289540E+03 0.65740014E+03 0.29862778E+03 0.0000E+00 0.0000E+00
       23  2    1    2    0    0 -.20990397E+03 -.15974078E+03 -.12390282E+03 0.30567087E+03 0.92227846E+02 0.0000E+00 0.0000E+00
       23  1    3    3    0    0 0.40078953E+02 -.47714326E+02 -.19536067E+03 0.22441930E+03 0.91188000E+02 0.0000E+00 0.9000E+01
      -13  1    4    4    0    0 -.81502496E+02 -.31352643E+02 -.27170112E+01 0.87367261E+02 0.10565837E+00 0.0000E+00 0.9000E+01
       13  1    4    4    0    0 -.12840148E+03 -.12838813E+03 -.12118581E+03 0.21830360E+03 0.10565837E+00 0.0000E+00 0.9000E+01
       23  1    3    3    0    0 0.16982502E+03 0.20745510E+03 -.32753473E+03 0.43298084E+03 0.91188000E+02 0.0000E+00 0.9000E+01
#aMCatNLO 1  0  0  1  2 0.91314754D+03 0.00000000D+00  -5  7  0 0.00000000D+00 0.00000000D+00 0.00000000D+00 0.00000000D+00 0.00000000D+00
  <mgrwgt>
 0.2318257149D-03    3    2    0
 0.356776478712803D+03 0.000000000000000D+00 0.000000000000000D+00 0.356776478712803D+03
 0.356776478712803D+03 0.000000000000000D+00 0.000000000000000D+00 -.356776478712803D+03
 0.125810965570845D+03 0.400789531289418D+02 -.477143263253900D+02 -.602508779460564D+02
 0.115455275619372D+03 -.815024345062649D+02 -.313525163649444D+02 0.755267737658838D+02
 0.184792409901168D+03 -.128401538938339D+03 -.128388259612204D+03 0.343181344058312D+02
 0.287494306334222D+03 0.169825020315662D+03 0.207455102302538D+03 -.495940302256586D+02
 0.000000000000000D+00 0.000000000000000D+00 -.000000000000000D+00 -.000000000000000D+00
 0.902190891700319D+03 0.000000000000000D+00 0.000000000000000D+00 0.902190891700319D+03
 0.122531963982650D+04 0.000000000000000D+00 0.000000000000000D+00 -.122531963982650D+04
 0.142457961713056D+03 -.884098316217317D+02 -.230771075047312D+02 -.602508779460564D+02
 0.282388726533311D+03 -.272051868890984D+03 0.518458778931111D+01 0.755267737658838D+02
 0.430557914307300D+03 -.423126746788469D+03 -.718758608697156D+02 0.343181344058312D+02
 0.303472550783846D+03 -.113221600356393D+03 0.261728177913590D+03 -.495940302256586D+02
 0.968633378189302D+03 0.896810047657577D+03 -.171959797328454D+03 -.323128748126176D+03
0.375026770219D-05 0.000000000000D+00 0.000000000000D+00 0.491762681463D-07 0.000000000000D+00  7 -2 2 23 -13 13 23 21 0 0.24328676D-01 0.12383609D+00 0.10973738D+06 0.10973738D+06 0.10973738D+06 0.11184255D+01  1  2  2  1  7  1       -2 0.229569632074D-03 0.100000000000D+01
-.206954006934D-06 0.000000000000D+00 -.144020154446D-07 0.491762681463D-07 0.000000000000D+00  7 -2 2 23 -13 13 23 21 2 0.24328676D-01 0.12383609D+00 0.10973738D+06 0.10973738D+06 0.10973738D+06 0.11184255D+01  1  2  3  1  7  1       -2 -.158467457835D-04 0.100000000000D+01
0.236417808376D-06 0.000000000000D+00 0.000000000000D+00 0.491762681463D-07 0.000000000000D+00  7 -2 2 23 -13 13 23 21 2 0.24328676D-01 0.12383609D+00 0.10973738D+06 0.10973738D+06 0.10973738D+06 0.11184255D+01  1  2 15  1  7  1       -2 0.181028285634D-04 0.100000000000D+01
  </mgrwgt>
  </event>
  <event>
  8     66 0.53686478E-06 0.21194006E+03 0.75467711E-02 0.91788264E-01
       -2 -1    0    0    0  501 0.00000000E+00 0.00000000E+00 0.68599135E+03 0.68599143E+03 0.32000000E+00 0.0000E+00 0.9000E+01
        2 -1    0    0  501    0 0.00000000E+00 0.00000000E+00 -.29724127E+03 0.29724144E+03 0.32000000E+00 0.0000E+00 0.9000E+01
       25  2    1    2    0    0 -.47270299E+02 -.36369550E+03 0.50558806E+02 0.47688781E+03 0.30059423E+03 0.0000E+00 0.0000E+00
       23  2    1    2    0    0 0.47270299E+02 0.36369550E+03 0.33819128E+03 0.50634506E+03 0.86620338E+02 0.0000E+00 0.0000E+00
       23  1    3    3    0    0 -.10506956E+03 -.33387756E+03 0.47809808E+02 0.36484910E+03 0.91188000E+02 0.0000E+00 0.9000E+01
      -11  1    4    4    0    0 0.29373158E+02 0.35335390E+03 0.30747495E+03 0.46932143E+03 0.51099893E-03 0.0000E+00 0.9000E+01
       11  1    4    4    0    0 0.17897141E+02 0.10341599E+02 0.30716328E+02 0.37023629E+02 0.51099893E-03 0.0000E+00 0.9000E+01
       23  1    3    3    0    0 0.57799260E+02 -.29817938E+02 0.27489986E+01 0.11203871E+03 0.91188000E+02 0.0000E+00 0.9000E+01
#aMCatNLO 1  0  0  2  1 0.37497584D+03 0.00000000D+00  -5  7  0 0.00000000D+00 0.00000000D+00 0.00000000D+00 0.00000000D+00 0.00000000D+00
  <mgrwgt>
 0.2318965372D-03    7    2    0
 0.451558482497923D+03 0.000000000000000D+00 0.000000000000000D+00 0.451558482497923D+03
 0.451558482497923D+03 0.000000000000000D+00 0.000000000000000D+00 -.451558482497923D+03
 0.376635117079475D+03 -.105069559577947D+03 -.333877561469256D+03 -.104999627003668D+03
 0.378601398880596D+03 0.293731578596774D+02 0.353353900436160D+03 0.132730018753281D+03
 0.270860534845082D+02 0.178971412699170D+02 0.103415988635301D+02 0.175042269374030D+02
 0.120794395551267D+03 0.577992604483523D+02 -.298179378304341D+02 -.452346186870164D+02
 0.000000000000000D+00 0.000000000000000D+00 0.000000000000000D+00 -.000000000000000D+00
 0.543644952156967D+03 0.000000000000000D+00 0.000000000000000D+00 0.543644952156967D+03
 0.113143702019210D+04 0.000000000000000D+00 0.000000000000000D+00 -.113143702019210D+04
 0.522220596355311D+03 -.252811138097481D+03 -.435270842920409D+03 -.104999627003668D+03
 0.316865332688062D+03 -.849381283612668D+02 0.274903429465248D+03 0.132730018753281D+03
 0.207714523345182D+02 0.100309806080548D+02 0.494314671539142D+01 0.175042269374030D+02
 0.118011285763506D+03 0.185476566708600D+02 -.567558448780035D+02 -.452346186870164D+02
 0.697213305207668D+03 0.309170629179833D+03 0.212180111617773D+03 -.587792068035131D+03
0.307585578257D-04 0.000000000000D+00 0.000000000000D+00 0.444766159780D-07 0.000000000000D+00  7 -2 2 23 -11 11 23 21 0 0.10553715D+00 0.45729445D-01 0.18017938D+06 0.18017938D+06 0.18017938D+06 0.11013235D+01  1  2  2  2  7  2        2 0.306490516728D-03 0.100000000000D+01
-.170086062970D-05 0.000000000000D+00 -.118120960965D-06 0.444766159780D-07 0.000000000000D+00  7 -2 2 23 -11 11 23 21 2 0.10553715D+00 0.45729445D-01 0.18017938D+06 0.18017938D+06 0.18017938D+06 0.11013235D+01  1  2  3  2  7  2        2 -.205565213050D-04 0.100000000000D+01
0.193625385239D-05 0.000000000000D+00 0.000000000000D+00 0.444766159780D-07 0.000000000000D+00  7 -2 2 23 -11 11 23 21 2 0.10553715D+00 0.45729445D-01 0.18017938D+06 0.18017938D+06 0.18017938D+06 0.11013235D+01  1  2 15  2  7  2        2 0.234014726859D-04 0.100000000000D+01
0.667764430490D-06 0.000000000000D+00 0.000000000000D+00 0.444766159780D-07 0.000000000000D+00  7 -2 2 23 -11 11 23 21 2 0.10553715D+00 0.11235938D+00 0.41889272D+06 0.41889272D+06 0.41889272D+06 0.10739857D+01  1  2 12  2  7  2        2 0.268187183897D-05 0.100000000000D+01
-.202293407299D-04 0.000000000000D+00 -.102394147332D-04 0.444766159780D-07 0.000000000000D+00  7 -2 2 23 -11 11 23 21 2 0.10553715D+00 0.12885436D+00 0.18017938D+06 0.18017938D+06 0.18017938D+06 0.11013235D+01  1  2  5  2  7  2        2 -.742623757015D-04 0.100000000000D+01
0.659010132725D-07 0.000000000000D+00 0.000000000000D+00 0.444766159780D-07 0.000000000000D+00  7 -2 21 23 -11 11 23 -2 2 0.10553715D+00 0.11235938D+00 0.41889272D+06 0.41889272D+06 0.41889272D+06 0.10739857D+01  1  2 12  4  7  2        2 0.292655360436D-06 0.100000000000D+01
-.178968711715D-05 0.000000000000D+00 -.119263963840D-05 0.444766159780D-07 0.000000000000D+00  7 -2 21 23 -11 11 23 -2 2 0.10553715D+00 0.12885436D+00 0.18017938D+06 0.18017938D+06 0.18017938D+06 0.11013235D+01  1  2  5  4  7  2        2 -.615108240567D-05 0.100000000000D+01
  </mgrwgt>
  </event>
  <event>
  8     66 0.53686478E-06 0.35572313E+03 0.75467711E-02 0.95304014E-01
       -2 -1    0    0    0  501 0.00000000E+00 0.00000000E+00 0.12228751E+03 0.12228793E+03 0.32000000E+00 0.0000E+00 0.9000E+01
        2 -1    0    0  501    0 0.00000000E+00 0.00000000E+00 -.10510524E+04 0.10510524E+04 0.32000000E+00 0.0000E+00 0.9000E+01
       25  2    1    2    0    0 -.42726220E+02 -.28390177E+03 -.52560934E+03 0.66973027E+03 0.29974607E+03 0.0000E+00 0.0000E+00
       23  2    1    2    0    0 0.42726220E+02 0.28390177E+03 -.40315552E+03 0.50361008E+03 0.93075227E+02 0.0000E+00 0.0000E+00
       23  1    3    3    0    0 0.71807576E+02 -.27543948E+02 -.13592944E+03 0.18085093E+03 0.91188000E+02 0.0000E+00 0.9000E+01
      -13  1    4    4    0    0 0.92779526E+01 0.24684605E+03 -.29698048E+03 0.38628548E+03 0.10565837E+00 0.0000E+00 0.9000E+01
       13  1    4    4    0    0 0.33448268E+02 0.37055719E+02 -.10617504E+03 0.11732460E+03 0.10565837E+00 0.0000E+00 0.9000E+01
       23  1    3    3    0    0 -.11453380E+03 -.25635782E+03 -.38967990E+03 0.48887933E+03 0.91188000E+02 0.0000E+00 0.9000E+01
#aMCatNLO 1  0  0  2  1 0.20294119D+03 0.00000000D+00  -5  7  0 0.00000000D+00 0.00000000D+00 0.00000000D+00 0.00000000D+00 0.00000000D+00
  <mgrwgt>
 0.1991283438D-03    7    2    0
 0.358511999327881D+03 0.000000000000000D+00 0.000000000000000D+00 0.358511999327881D+03
 0.358511999327881D+03 0.000000000000000D+00 0.000000000000000D+00 -.358511999327881D+03
 0.119874946309289D+03 0.718075755699248D+02 -.275439481543918D+02 0.118217773406777D+02
 0.247438696434143D+03 0.927792283981397D+01 0.246846323452523D+03 0.143778036840980D+02
 0.544610353486651D+02 0.334482974474998D+02 0.370554493710600D+02 -.217740543083031D+02
 0.295249320563665D+03 -.114533795857239D+03 -.256357824669191D+03 -.442552671647267D+01
 0.000000000000000D+00 0.000000000000000D+00 -.000000000000000D+00 -.000000000000000D+00
 0.463726988306080D+03 0.000000000000000D+00 0.000000000000000D+00 0.463726988306080D+03
 0.485577379433747D+03 0.000000000000000D+00 0.000000000000000D+00 -.485577379433747D+03
 0.102898303540499D+03 0.440098597439128D+02 -.140066895925178D+02 0.118217773406777D+02
 0.285387199040437D+03 -.572082591283075D+02 0.279224546243478D+03 0.143778036840980D+02
 0.526810037405500D+02 0.200790802832770D+02 0.435661479714311D+02 -.217740543083031D+02
 0.304223764441881D+03 -.189336234990138D+03 -.219929653162620D+03 -.442552671647267D+01
 0.204114096976460D+03 0.182455554091256D+03 -.888543514597713D+02 -.218503911276665D+02
0.266662974825D-05 0.000000000000D+00 0.000000000000D+00 0.146525969701D-06 0.000000000000D+00  7 -2 2 23 -13 13 23 21 0 0.18813499D-01 0.16170040D+00 0.12653895D+06 0.12653895D+06 0.12653895D+06 0.11134287D+01  1  2  2  2  7  2        2 0.174760273259D-03 0.100000000000D+01
-.148135111875D-06 0.000000000000D+00 -.102405603730D-07 0.146525969701D-06 0.000000000000D+00  7 -2 2 23 -13 13 23 21 2 0.18813499D-01 0.16170040D+00 0.12653895D+06 0.12653895D+06 0.12653895D+06 0.11134287D+01  1  2  3  2  7  2        2 -.120354628529D-04 0.100000000000D+01
0.174464357995D-06 0.000000000000D+00 0.000000000000D+00 0.146525969701D-06 0.000000000000D+00  7 -2 2 23 -13 13 23 21 2 0.18813499D-01 0.16170040D+00 0.12653895D+06 0.12653895D+06 0.12653895D+06 0.11134287D+01  1  2 15  2  7  2        2 0.141746225674D-04 0.100000000000D+01
-.968931181515D-06 0.000000000000D+00 0.000000000000D+00 0.146525969701D-06 0.000000000000D+00  7 -2 2 23 -13 13 23 21 2 0.18813499D-01 0.16170040D+00 0.12653895D+06 0.12653895D+06 0.12653895D+06 0.11134287D+01  1  2  4  2  7  2        2 -.787222900403D-04 0.100000000000D+01
-.170905148962D-05 0.000000000000D+00 -.948004811037D-06 0.146525969701D-06 0.000000000000D+00  7 -2 2 23 -13 13 23 21 2 0.18813499D-01 0.25714507D+00 0.12653895D+06 0.12653895D+06 0.12653895D+06 0.11134287D+01  1  2  5  2  7  2        2 -.626842671090D-04 0.100000000000D+01
0.202103132006D-05 0.000000000000D+00 0.854410277016D-06 0.146525969701D-06 0.000000000000D+00  7 -2 2 23 -13 13 23 21 2 0.18813499D-01 0.16170040D+00 0.12653895D+06 0.12653895D+06 0.12653895D+06 0.11134287D+01  1  2  6  2  7  2        2 0.164201768705D-03 0.100000000000D+01
-.517311306714D-07 0.000000000000D+00 -.504189282372D-07 0.146525969701D-06 0.000000000000D+00  7 -2 21 23 -13 13 23 -2 2 0.18813499D-01 0.25714507D+00 0.12653895D+06 0.12653895D+06 0.12653895D+06 0.11134287D+01  1  2  5  4  7  2        2 -.566300692553D-06 0.100000000000D+01
  </mgrwgt>
  </event>
  <event>
  8     66 0.53686478E-06 0.41945016E+03 0.75467711E-02 0.90014820E-01
       -2 -1    0    0    0  501 0.00000000E+00 0.00000000E+00 0.82256951E+02 0.82257573E+02 0.32000000E+00 0.0000E+00 0.9000E+01
        2 -1    0    0  501    0 0.00000000E+00 0.00000000E+00 -.22565201E+04 0.22565202E+04 0.32000000E+00 0.0000E+00 0.9000E+01
       25  2    1    2    0    0 0.15652227E+02 -.36644684E+03 -.10217703E+04 0.11259350E+04 0.29864159E+03 0.0000E+00 0.0000E+00
       23  2    1    2    0    0 -.15652227E+02 0.36644684E+03 -.11524929E+04 0.12128427E+04 0.90660719E+02 0.0000E+00 0.0000E+00
       23  1    3    3    0    0 0.10399383E+03 -.29237955E+03 -.75465499E+03 0.82104807E+03 0.91188000E+02 0.0000E+00 0.9000E+01
      -13  1    4    4    0    0 -.24434553E+02 0.16190185E+03 -.38197495E+03 0.41558890E+03 0.10565837E+00 0.0000E+00 0.9000E+01
       13  1    4    4    0    0 0.87823262E+01 0.20454499E+03 -.77051794E+03 0.79725384E+03 0.10565837E+00 0.0000E+00 0.9000E+01
       23  1    3    3    0    0 -.88341606E+02 -.74067286E+02 -.26711530E+03 0.30488692E+03 0.91188000E+02 0.0000E+00 0.9000E+01
#aMCatNLO 1  0  0  2  2 0.53891739D+03 0.00000000D+00  -5  7  0 0.00000000D+00 0.00000000D+00 0.00000000D+00 0.00000000D+00 0.00000000D+00
  <mgrwgt>
 0.2048296665D-03    5    2    0
 0.430830848333907D+03 0.000000000000000D+00 0.000000000000000D+00 0.430830848333907D+03
 0.430830848333907D+03 0.000000000000000D+00 0.000000000000000D+00 -.430830848333907D+03
 0.324292432577332D+03 0.103993832974451D+03 -.292379550846920D+03 0.234480581873756D+02
 0.164166419715295D+03 -.244345982207482D+02 0.161901790007647D+03 0.118900868057776D+02
 0.219681120954715D+03 0.878237129769925D+01 0.204545047326389D+03 -.796491586431066D+02
 0.153521723420472D+03 -.883416060514021D+02 -.740672864871158D+02 0.443110136499534D+02
 0.000000000000000D+00 -.000000000000000D+00 0.000000000000000D+00 -.000000000000000D+00
 0.622137138688336D+03 0.000000000000000D+00 0.000000000000000D+00 0.622137138688336D+03
 0.114517803828084D+04 0.000000000000000D+00 0.000000000000000D+00 -.114517803828084D+04
 0.448399204589260D+03 0.325728589972895D+03 -.293424043959919D+03 0.234480581873756D+02
 0.177871944854444D+03 0.737181317998886D+02 0.161439436464538D+03 0.118900868057776D+02
 0.263999811022263D+03 0.147581432602375D+03 0.203891227124334D+03 -.796491586431066D+02
 0.126042393942057D+03 -.811674189191064D+01 -.744451898850320D+02 0.443110136499534D+02
 0.751001822561150D+03 -.538911412483248D+03 0.253857025607891D+01 -.523040899592503D+03
0.758312359856D-05 0.000000000000D+00 0.000000000000D+00 0.140944730041D-06 0.000000000000D+00  7 -2 2 23 -13 13 23 21 0 0.12654965D-01 0.34715699D+00 0.17593844D+06 0.17593844D+06 0.17593844D+06 0.11021267D+01  1  2  2  2  7  2        2 0.202653785692D-03 0.100000000000D+01
-.420917547213D-06 0.000000000000D+00 -.291211913008D-07 0.140944730041D-06 0.000000000000D+00  7 -2 2 23 -13 13 23 21 2 0.12654965D-01 0.34715699D+00 0.17593844D+06 0.17593844D+06 0.17593844D+06 0.11021267D+01  1  2  3  2  7  2        2 -.136636478279D-04 0.100000000000D+01
0.487999273334D-06 0.000000000000D+00 0.000000000000D+00 0.140944730041D-06 0.000000000000D+00  7 -2 2 23 -13 13 23 21 2 0.12654965D-01 0.34715699D+00 0.17593844D+06 0.17593844D+06 0.17593844D+06 0.11021267D+01  1  2 15  2  7  2        2 0.158412265187D-04 0.100000000000D+01
-.148233979700D-05 0.000000000000D+00 -.171119310422D-05 0.140944730041D-06 0.000000000000D+00  7 -2 2 23 -13 13 23 21 2 0.12654965D-01 0.93332191D+00 0.17593844D+06 0.17593844D+06 0.17593844D+06 0.11021267D+01  1  2  5  2  7  2        2 -.169769067938D-08 0.100000000000D+01
-.633481647014D-07 0.000000000000D+00 -.188624073978D-06 0.140944730041D-06 0.000000000000D+00  7 -2 21 23 -13 13 23 -2 2 0.12654965D-01 0.93332191D+00 0.17593844D+06 0.17593844D+06 0.17593844D+06 0.11021267D+01  1  2  5  4  7  2        2 -.160157470629D-12 0.100000000000D+01
  </mgrwgt>
  </event>
  <event>
  9     66 0.53686478E-06 0.19722365E+03 0.75467711E-02 0.10361849E+00
       -2 -1    0    0    0  501 0.00000000E+00 0.00000000E+00 0.39868174E+02 0.39869458E+02 0.32000000E+00 0.0000E+00 0.9000E+01
        2 -1    0    0  502    0 0.00000000E+00 0.00000000E+00 -.28399289E+04 0.28399289E+04 0.32000000E+00 0.0000E+00 0.9000E+01
       25  2    1    2    0    0 -.34917235E+02 0.13987082E+03 -.21583398E+04 0.21838356E+04 0.29987386E+03 0.0000E+00 0.0000E+00
       23  2    1    2    0    0 -.47986500E+02 -.11736176E+03 -.24986289E+03 0.29479822E+03 0.91640824E+02 0.0000E+00 0.0000E+00
       23  1    3    3    0    0 -.18362400E+02 0.15261360E+03 -.69856031E+03 0.72106161E+03 0.91188000E+02 0.0000E+00 0.9000E+01
      -13  1    4    4    0    0 -.39452900E+02 -.10453915E+03 -.25512543E+03 0.27852102E+03 0.10565837E+00 0.0000E+00 0.9000E+01
       13  1    4    4    0    0 -.85336005E+01 -.12822607E+02 0.52625403E+01 0.16277195E+02 0.10565837E+00 0.0000E+00 0.9000E+01
       23  1    3    3    0    0 -.16554835E+02 -.12742775E+02 -.14597795E+04 0.14627740E+04 0.91188000E+02 0.0000E+00 0.9000E+01
       21  1    1    2  502  501 0.82903736E+02 -.22509062E+02 -.39185810E+03 0.40116458E+03 0.75000000E+00 0.0000E+00 0.9000E+01
#aMCatNLO 2  0  0  2  1 0.85905106D+02 0.00000000D+00  -5  7  0 0.00000000D+00 0.00000000D+00 0.00000000D+00 0.00000000D+00 0.00000000D+00
  <mgrwgt>
 0.1173372653D-04    2    2    0
 0.290174913262206D+03 0.000000000000000D+00 0.000000000000000D+00 0.290174913262206D+03
 0.290174913262206D+03 0.000000000000000D+00 0.000000000000000D+00 -.290174913262206D+03
 0.172336407639691D+03 0.659101961557900D+01 0.145838536107710D+03 0.850093527447963D+01
 0.129301693848990D+03 -.210699905742601D+02 -.109530401046168D+03 0.654069933270457D+02
 0.906342954386505D+02 0.432483182438615D+01 -.163136489766827D+02 0.890490662298990D+02
 0.188077429597081D+03 0.101541391342949D+02 -.199944860848596D+02 -.162956994831424D+03
 0.000000000000000D+00 0.000000000000000D+00 -.000000000000000D+00 -.000000000000000D+00
 0.332095341113058D+03 0.000000000000000D+00 0.000000000000000D+00 0.332095341113058D+03
 0.340936904617350D+03 0.000000000000000D+00 0.000000000000000D+00 -.340936904617350D+03
 0.178929052301562D+03 -.183624000651025D+02 0.152613599580258D+03 0.850093527447963D+01
 0.129472272692802D+03 -.394529405820175D+02 -.104539275392490D+03 0.654069933270457D+02
 0.903713119529004D+02 -.853355990747795D+01 -.128224873943002D+02 0.890490662298990D+02
 0.187900703523674D+03 -.165548351784384D+02 -.127427747534660D+02 -.162956994831424D+03
 0.863589052594704D+02 0.829037357330364D+02 -.225090620400013D+02 -.884156350429206D+01
-.139496485121D-05 0.000000000000D+00 0.000000000000D+00 0.358801933959D-06 0.000000000000D+00  7 -2 2 23 -13 13 23 21 2 0.53593862D-02 0.45963811D+00 0.58884211D+05 0.58884211D+05 0.58884211D+05 0.11410996D+01  1  2 13  2  7  2        2 -.700999853009D-04 0.100000000000D+01
0.161916057032D-05 0.000000000000D+00 0.000000000000D+00 0.358801933959D-06 0.338873730130D-09  7 -2 2 23 -13 13 23 21 2 0.61336356D-02 0.43691013D+00 0.58884211D+05 0.58884211D+05 0.58884211D+05 0.11410996D+01  1  2  1  2  7  2        2 0.818337118283D-04 0.100000000000D+01
  </mgrwgt>
  </event>
  <event>
  8     66 0.53686478E-06 0.14745133E+03 0.75467711E-02 0.99261179E-01
       -2 -1    0    0    0  501 0.00000000E+00 0.00000000E+00 0.91587467E+02 0.91588026E+02 0.32000000E+00 0.0000E+00 0.9000E+01
        2 -1    0    0  501    0 0.00000000E+00 0.00000000E+00 -.13457025E+04 0.13457026E+04 0.32000000E+00 0.0000E+00 0.9000E+01
       25  2    1    2    0    0 0.23752668E+03 0.88575033E+02 -.49468802E+03 0.63165173E+03 0.30000534E+03 0.0000E+00 0.0000E+00
       23  2    1    2    0    0 -.23752668E+03 -.88575033E+02 -.75942706E+03 0.80563888E+03 0.89778044E+02 0.0000E+00 0.0000E+00
       23  1    3    3    0    0 0.23875711E+03 0.13646756E+03 -.36846402E+03 0.46873163E+03 0.91188000E+02 0.0000E+00 0.9000E+01
      -13  1    4    4    0    0 -.80121312E+02 -.95820419E+01 -.13924844E+03 0.16093906E+03 0.10565837E+00 0.0000E+00 0.9000E+01
       13  1    4    4    0    0 -.15740537E+03 -.78992991E+02 -.62017861E+03 0.64469983E+03 0.10565837E+00 0.0000E+00 0.9000E+01
       23  1    3    3    0    0 -.12304312E+01 -.47892530E+02 -.12622400E+03 0.16292010E+03 0.91188000E+02 0.0000E+00 0.9000E+01
#aMCatNLO 1  0  0  2  1 0.27476632D+02 0.00000000D+00  -5  7  0 0.00000000D+00 0.00000000D+00 0.00000000D+00 0.00000000D+00 0.00000000D+00
  <mgrwgt>
 0.2962464256D-03    9    2    0
 0.351069675251638D+03 0.000000000000000D+00 0.000000000000000D+00 0.351069675251638D+03
 0.351069675251638D+03 0.000000000000000D+00 0.000000000000000D+00 -.351069675251638D+03
 0.301375053480833D+03 0.238757110646703D+03 0.136467562733064D+03 0.829657637457173D+02
 0.807282716799215D+02 -.801212047807349D+02 -.958194586989132D+01 0.241509963712380D+01
 0.211988950626174D+03 -.157405474853827D+03 -.789930868536511D+02 -.117995440178676D+03
 0.108047074716347D+03 -.123043101214141D+01 -.478925300095215D+02 0.326145767958347D+02
 0.000000000000000D+00 0.000000000000000D+00 -.000000000000000D+00 -.000000000000000D+00
 0.357762954335274D+03 0.000000000000000D+00 0.000000000000000D+00 0.357762954335274D+03
 0.380716415551969D+03 0.000000000000000D+00 0.000000000000000D+00 -.380716415551969D+03
 0.302530989611922D+03 0.233799107321336D+03 0.147188341227846D+03 0.829657637457173D+02
 0.817658016493272D+02 -.814552635554956D+02 -.669728692864895D+01 0.241509963712380D+01
 0.211931052093161D+03 -.160885812246061D+03 -.714674916047829D+02 -.117995440178676D+03
 0.106448919336239D+03 -.299141993410075D+01 -.440847124416109D+02 0.326145767958347D+02
 0.358026071965950D+02 0.115333884143216D+02 -.249388502528035D+02 -.229534612166947D+02
0.216282370867D-05 0.000000000000D+00 0.000000000000D+00 0.369675462865D-06 0.000000000000D+00  7 -2 2 23 -13 13 23 21 0 0.14090426D-01 0.20703121D+00 0.10547690D+06 0.10547690D+06 0.10547690D+06 0.11198267D+01  1  2  2  2  7  2        2 0.153831048954D-03 0.100000000000D+01
-.119271205109D-06 0.000000000000D+00 -.830581252584D-08 0.369675462865D-06 0.000000000000D+00  7 -2 2 23 -13 13 23 21 2 0.14090426D-01 0.20703121D+00 0.10547690D+06 0.10547690D+06 0.10547690D+06 0.11198267D+01  1  2  3  2  7  2        2 -.106380024863D-04 0.100000000000D+01
0.137478057836D-06 0.000000000000D+00 0.000000000000D+00 0.369675462865D-06 0.000000000000D+00  7 -2 2 23 -13 13 23 21 2 0.14090426D-01 0.20703121D+00 0.10547690D+06 0.10547690D+06 0.10547690D+06 0.11198267D+01  1  2 15  2  7  2        2 0.122619027764D-04 0.100000000000D+01
0.819492120428D-05 0.000000000000D+00 0.000000000000D+00 0.369675462865D-06 0.000000000000D+00  7 -2 2 23 -13 13 23 21 2 0.14090426D-01 0.22637847D+00 0.11475620D+06 0.11475620D+06 0.11475620D+06 0.11168495D+01  1  2 12  2  7  2        2 0.619864838459D-03 0.100000000000D+01
-.827524132737D-05 0.000000000000D+00 0.000000000000D+00 0.369675462865D-06 0.000000000000D+00  7 -2 2 23 -13 13 23 21 2 0.14090426D-01 0.20703121D+00 0.10547690D+06 0.10547690D+06 0.10547690D+06 0.11198267D+01  1  2  4  2  7  2        2 -.738082907228D-03 0.100000000000D+01
-.187610966402D-04 0.000000000000D+00 -.283802985341D-05 0.369675462865D-06 0.000000000000D+00  7 -2 2 23 -13 13 23 21 2 0.14090426D-01 0.22653065D+00 0.10547690D+06 0.10547690D+06 0.10547690D+06 0.11198267D+01  1  2  5  2  7  2        2 -.142691855858D-02 0.100000000000D+01
0.189511853609D-04 0.000000000000D+00 0.282657178366D-05 0.369675462865D-06 0.000000000000D+00  7 -2 2 23 -13 13 23 21 2 0.14090426D-01 0.20703121D+00 0.10547690D+06 0.10547690D+06 0.10547690D+06 0.11198267D+01  1  2  6  2  7  2        2 0.169028858897D-02 0.100000000000D+01
0.120980893731D-06 0.000000000000D+00 0.000000000000D+00 0.369675462865D-06 0.000000000000D+00  7 -2 21 23 -13 13 23 -2 2 0.14090426D-01 0.22637847D+00 0.11475620D+06 0.11475620D+06 0.11475620D+06 0.11168495D+01  1  2 12  4  7  2        2 0.347724552906D-05 0.100000000000D+01
-.270378339990D-06 0.000000000000D+00 -.420630660512D-07 0.369675462865D-06 0.000000000000D+00  7 -2 21 23 -13 13 23 -2 2 0.14090426D-01 0.22653065D+00 0.10547690D+06 0.10547690D+06 0.10547690D+06 0.11198267D+01  1  2  5  4  7  2        2 -.783773083166D-05 0.100000000000D+01
  </mgrwgt>
  </event>
  <event>
  8     66 0.53686478E-06 0.76183813E+02 0.75467711E-02 0.10644513E+00
       -2 -1    0    0    0  501 0.00000000E+00 0.00000000E+00 0.11228620E+02 0.11233179E+02 0.32000000E+00 0.0000E+00 0.9000E+01
        2 -1    0    0  501    0 0.00000000E+00 0.00000000E+00 -.37059929E+04 0.37059929E+04 0.32000000E+00 0.0000E+00 0.9000E+01
       25  2    1    2    0    0 -.42867246E+02 0.21782915E+02 -.28338199E+04 0.28500261E+04 0.29966921E+03 0.0000E+00 0.0000E+00
       23  2    1    2    0    0 0.42867246E+02 -.21782915E+02 -.86094439E+03 0.86719997E+03 0.92187029E+02 0.0000E+00 0.0000E+00
       23  1    3    3    0    0 -.70675280E+02 -.46183836E+02 -.57983201E+03 0.59299946E+03 0.91188000E+02 0.0000E+00 0.9000E+01
      -13  1    4    4    0    0 0.21681170E+02 -.34508465E+02 -.13947095E+03 0.14530335E+03 0.10565837E+00 0.0000E+00 0.9000E+01
       13  1    4    4    0    0 0.21186077E+02 0.12725550E+02 -.72147344E+03 0.72189662E+03 0.10565837E+00 0.0000E+00 0.9000E+01
       23  1    3    3    0    0 0.27808034E+02 0.67966751E+02 -.22539878E+04 0.22570266E+04 0.91188000E+02 0.0000E+00 0.9000E+01
#aMCatNLO 1  0  0  2  1 0.82381660D+02 0.00000000D+00  -5  7  0 0.00000000D+00 0.00000000D+00 0.00000000D+00 0.00000000D+00 0.00000000D+00
  <mgrwgt>
 0.9427996320D-03    9    2    0
 0.204013929801308D+03 0.000000000000000D+00 0.000000000000000D+00 0.204013929801308D+03
 0.204013929801308D+03 0.000000000000000D+00 0.000000000000000D+00 -.204013929801308D+03
 0.151878120604967D+03 -.706760551179165D+02 -.461834417736563D+02 0.873137853572120D+02
 0.608125345713801D+02 0.216821181577256D+02 -.345086868808767D+02 0.451353591206201D+02
 0.435716570157328D+02 0.211866775653068D+02 0.127249842004647D+02 -.358843805288361D+02
 0.151765547410537D+03 0.278072593948842D+02 0.679671444540683D+02 -.965647639489959D+02
 0.000000000000000D+00 0.000000000000000D+00 -.000000000000000D+00 -.000000000000000D+00
 0.243643959076700D+03 0.000000000000000D+00 0.000000000000000D+00 0.243643959076700D+03
 0.255906670119507D+03 0.000000000000000D+00 0.000000000000000D+00 -.255906670119507D+03
 0.158018222246166D+03 -.920179307290798D+02 -.237383767088607D+02 0.873137853572120D+02
 0.539739178392252D+02 0.137770290990571D+02 -.261949734333103D+02 0.451353591206201D+02
 0.433651508294135D+02 0.151995319217262D+02 0.190216132302151D+02 -.358843805288361D+02
 0.160904011697580D+03 0.627439851472784D+01 0.906130670661137D+02 -.965647639489959D+02
 0.832893265838221D+02 0.567669711935687D+02 -.597013301541578D+02 -.122627110428067D+02
0.859762312980D-05 0.000000000000D+00 0.000000000000D+00 0.764774678232D-07 0.000000000000D+00  7 -2 2 23 -13 13 23 21 0 0.17278317D-02 0.57015310D+00 0.23534863D+05 0.23534863D+05 0.23534863D+05 0.11772442D+01  1  2  2  2  7  2        2 0.592863575557D-03 0.100000000000D+01
-.430451592213D-06 0.000000000000D+00 -.330171366246D-07 0.764774678232D-07 0.000000000000D+00  7 -2 2 23 -13 13 23 21 2 0.17278317D-02 0.57015310D+00 0.23534863D+05 0.23534863D+05 0.23534863D+05 0.11772442D+01  1  2  3  2  7  2        2 -.411371104212D-04 0.100000000000D+01
0.540401514872D-06 0.000000000000D+00 0.000000000000D+00 0.764774678232D-07 0.000000000000D+00  7 -2 2 23 -13 13 23 21 2 0.17278317D-02 0.57015310D+00 0.23534863D+05 0.23534863D+05 0.23534863D+05 0.11772442D+01  1  2 15  2  7  2        2 0.516447312340D-04 0.100000000000D+01
0.168294065058D-05 0.000000000000D+00 0.000000000000D+00 0.764774678232D-07 0.000000000000D+00  7 -2 2 23 -13 13 23 21 2 0.17278317D-02 0.75855665D+00 0.39350264D+05 0.39350264D+05 0.39350264D+05 0.11565591D+01  1  2 12  2  7  2        2 0.113223747721D-04 0.100000000000D+01
-.280142073248D-05 0.000000000000D+00 0.000000000000D+00 0.764774678232D-07 0.000000000000D+00  7 -2 2 23 -13 13 23 21 2 0.17278317D-02 0.57015310D+00 0.23534863D+05 0.23534863D+05 0.23534863D+05 0.11772442D+01  1  2  4  2  7  2        2 -.267724306502D-03 0.100000000000D+01
-.619821720345D-05 0.000000000000D+00 -.240718535054D-05 0.764774678232D-07 0.000000000000D+00  7 -2 2 23 -13 13 23 21 2 0.17278317D-02 0.73559450D+00 0.23534863D+05 0.23534863D+05 0.23534863D+05 0.11772442D+01  1  2  5  2  7  2        2 -.665113419801D-04 0.100000000000D+01
0.693077191873D-05 0.000000000000D+00 0.251551339132D-05 0.764774678232D-07 0.000000000000D+00  7 -2 2 23 -13 13 23 21 2 0.17278317D-02 0.57015310D+00 0.23534863D+05 0.23534863D+05 0.23534863D+05 0.11772442D+01  1  2  6  2  7  2        2 0.662355384165D-03 0.100000000000D+01
0.627647598077D-07 0.000000000000D+00 0.000000000000D+00 0.764774678232D-07 0.000000000000D+00  7 -2 21 23 -13 13 23 -2 2 0.17278317D-02 0.75855665D+00 0.39350264D+05 0.39350264D+05 0.39350264D+05 0.11565591D+01  1  2 12  4  7  2        2 0.322913829824D-08 0.100000000000D+01
-.171102949531D-06 0.000000000000D+00 -.826101333327D-07 0.764774678232D-07 0.000000000000D+00  7 -2 21 23 -13 13 23 -2 2 0.17278317D-02 0.73559450D+00 0.23534863D+05 0.23534863D+05 0.23534863D+05 0.11772442D+01  1  2  5  4  7  2        2 -.169039424692D-07 0.100000000000D+01
  </mgrwgt>
  </event>
  <event>
  8     66 0.53686478E-06 0.99929216E+02 0.75467711E-02 0.10520020E+00
       -2 -1    0    0    0  501 0.00000000E+00 0.00000000E+00 0.33110795E+02 0.33112341E+02 0.32000000E+00 0.0000E+00 0.9000E+01
        2 -1    0    0  501    0 0.00000000E+00 0.00000000E+00 -.14940412E+04 0.14940412E+04 0.32000000E+00 0.0000E+00 0.9000E+01
       25  2    1    2    0    0 -.76127335E+02 0.31788514E+02 -.88799273E+03 0.94069954E+03 0.29929694E+03 0.0000E+00 0.0000E+00
       23  2    1    2    0    0 0.76127335E+02 -.31788514E+02 -.57293766E+03 0.58645402E+03 0.94153458E+02 0.0000E+00 0.0000E+00
       23  1    3    3    0    0 -.18356073E+02 -.16485005E+02 -.76227953E+03 0.76811069E+03 0.91188000E+02 0.0000E+00 0.9000E+01
      -13  1    4    4    0    0 -.18029111E+02 0.87115673E+01 -.14699726E+03 0.14835479E+03 0.10565837E+00 0.0000E+00 0.9000E+01
       13  1    4    4    0    0 0.94156446E+02 -.40500081E+02 -.42594040E+03 0.43809922E+03 0.10565837E+00 0.0000E+00 0.9000E+01
       23  1    3    3    0    0 -.57771262E+02 0.48273519E+02 -.12571320E+03 0.17258885E+03 0.91188000E+02 0.0000E+00 0.9000E+01
#aMCatNLO 1  0  0  2  1 0.94920245D+02 0.00000000D+00  -5  7  0 0.00000000D+00 0.00000000D+00 0.00000000D+00 0.00000000D+00 0.00000000D+00
  <mgrwgt>
 0.1096940849D-02    8    2    0
 0.222418744400018D+03 0.000000000000000D+00 0.000000000000000D+00 0.222418744400018D+03
 0.222418744400018D+03 0.000000000000000D+00 0.000000000000000D+00 -.222418744400018D+03
 0.133499596603943D+03 -.183562270837628D+02 -.164849410003288D+02 -.943301998136364D+02
 0.265437077527071D+02 -.180289636049604D+02 0.871150111949926D+01 -.174251152316734D+02
 0.105152132359200D+03 0.941566604469758D+02 -.405001662527298D+02 -.234783041691850D+02
 0.179642052084187D+03 -.577714697582526D+02 0.482736061335593D+02 0.135233619214495D+03
 0.000000000000000D+00 -.000000000000000D+00 0.000000000000000D+00 -.000000000000000D+00
 0.238156944904371D+03 0.000000000000000D+00 0.000000000000000D+00 0.238156944904371D+03
 0.437328431925901D+03 0.000000000000000D+00 0.000000000000000D+00 -.437328431925901D+03
 0.135879556067159D+03 0.301095518909345D+01 -.352242809007771D+02 -.943301998136364D+02
 0.230232875390446D+02 -.140973044078221D+02 0.526337692946539D+01 -.174251152316734D+02
 0.128322745211110D+03 0.112675911902446D+03 -.567418280354716D+02 -.234783041691850D+02
 0.167626304050156D+03 -.302261078045113D+02 0.241159098243101D+02 0.135233619214495D+03
 0.220633483962803D+03 -.713634548792059D+02 0.625868221824732D+02 -.199171487021530D+03
0.147080344041D-05 0.000000000000D+00 0.000000000000D+00 0.106172877617D-07 0.000000000000D+00  7 -2 2 23 -13 13 23 21 0 0.50940900D-02 0.22985261D+00 0.28096103D+05 0.28096103D+05 0.28096103D+05 0.11699871D+01  1  2  2  2  7  2        2 0.410559852013D-03 0.100000000000D+01
-.737619155293D-07 0.000000000000D+00 -.564827248261D-08 0.106172877617D-07 0.000000000000D+00  7 -2 2 23 -13 13 23 21 2 0.50940900D-02 0.22985261D+00 0.28096103D+05 0.28096103D+05 0.28096103D+05 0.11699871D+01  1  2  3  2  7  2        2 -.281848810077D-04 0.100000000000D+01
0.957953463280D-07 0.000000000000D+00 0.000000000000D+00 0.106172877617D-07 0.000000000000D+00  7 -2 2 23 -13 13 23 21 2 0.50940900D-02 0.22985261D+00 0.28096103D+05 0.28096103D+05 0.28096103D+05 0.11699871D+01  1  2 15  2  7  2        2 0.366039902566D-04 0.100000000000D+01
0.109697245540D-05 0.000000000000D+00 0.000000000000D+00 0.106172877617D-07 0.000000000000D+00  7 -2 2 23 -13 13 23 21 2 0.50940900D-02 0.45264082D+00 0.46866527D+05 0.46866527D+05 0.46866527D+05 0.11497759D+01  1  2 12  2  7  2        2 0.647936954021D-04 0.100000000000D+01
-.203745413094D-05 0.000000000000D+00 -.402071473191D-06 0.106172877617D-07 0.000000000000D+00  7 -2 2 23 -13 13 23 21 2 0.50940900D-02 0.45876825D+00 0.28096103D+05 0.28096103D+05 0.28096103D+05 0.11699871D+01  1  2  5  2  7  2        2 -.119732823966D-03 0.100000000000D+01
0.191862409785D-05 0.000000000000D+00 0.322050751176D-06 0.106172877617D-07 0.000000000000D+00  7 -2 2 23 -13 13 23 21 2 0.50940900D-02 0.22985261D+00 0.28096103D+05 0.28096103D+05 0.28096103D+05 0.11699871D+01  1  2  6  2  7  2        2 0.733118052970D-03 0.100000000000D+01
0.805021380084D-07 0.000000000000D+00 0.000000000000D+00 0.106172877617D-07 0.000000000000D+00  7 -2 21 23 -13 13 23 -2 2 0.50940900D-02 0.45264082D+00 0.46866527D+05 0.46866527D+05 0.46866527D+05 0.11497759D+01  1  2 12  4  7  2        2 0.382112350167D-06 0.100000000000D+01
-.128288369275D-06 0.000000000000D+00 -.300693081152D-07 0.106172877617D-07 0.000000000000D+00  7 -2 21 23 -13 13 23 -2 2 0.50940900D-02 0.45876825D+00 0.28096103D+05 0.28096103D+05 0.28096103D+05 0.11699871D+01  1  2  5  4  7  2        2 -.599148735158D-06 0.100000000000D+01
  </mgrwgt>
  </event>
  <event>
  9     66 0.53686478E-06 0.15960978E+03 0.75467711E-02 0.10606997E+00
       21 -1    0    0  502  501 0.00000000E+00 0.00000000E+00 0.11720216E+03 0.11720456E+03 0.75000000E+00 0.0000E+00 0.9000E+01
        2 -1    0    0  501    0 0.00000000E+00 0.00000000E+00 -.31527233E+04 0.31527233E+04 0.32000000E+00 0.0000E+00 0.9000E+01
       25  2    1    2    0    0 0.38902839E+02 0.32734923E+02 -.30270233E+04 0.30422851E+04 0.30007305E+03 0.0000E+00 0.0000E+00
       23  2    1    2    0    0 -.88180480E+02 -.81703417E+02 -.25296644E+02 0.15616899E+03 0.96424008E+02 0.0000E+00 0.0000E+00
       23  1    3    3    0    0 0.21954346E+02 0.37848450E+02 -.36817900E+03 0.38181871E+03 0.91188000E+02 0.0000E+00 0.9000E+01
      -11  1    4    4    0    0 -.12651813E+02 0.15899600E+02 -.25690579E+02 0.32754718E+02 0.51099893E-03 0.0000E+00 0.9000E+01
       11  1    4    4    0    0 -.75528667E+02 -.97603018E+02 0.39393534E+00 0.12341428E+03 0.51099893E-03 0.0000E+00 0.9000E+01
       23  1    3    3    0    0 0.16948494E+02 -.51135264E+01 -.26588443E+04 0.26604664E+04 0.91188000E+02 0.0000E+00 0.9000E+01
        2  1    1    2  502    0 0.49277641E+02 0.48968494E+02 0.16798760E+02 0.71473771E+02 0.32000000E+00 0.0000E+00 0.9000E+01
#aMCatNLO 2  0  0  1  2 0.69470852D+02 0.00000000D+00  -5  7  0 0.00000000D+00 0.00000000D+00 0.00000000D+00 0.00000000D+00 0.00000000D+00
  <mgrwgt>
 0.2302599271D-03    2    2    0
 0.476609284220601D+03 0.000000000000000D+00 0.000000000000000D+00 0.476609284220601D+03
 0.476609284220601D+03 0.000000000000000D+00 0.000000000000000D+00 -.476609284220601D+03
 0.105290398141501D+03 0.273037676398738D+02 0.431643118256678D+02 -.127343258196166D+02
 0.278044541229167D+02 -.112224239873071D+02 0.173200215352877D+02 0.186322763756784D+02
 0.406450300317326D+03 -.543427581282136D+02 -.765500196313717D+02 0.395460245488089D+03
 0.413673415859457D+03 0.382614144756469D+02 0.160656862704162D+02 -.401358196044151D+03
 0.000000000000000D+00 0.000000000000000D+00 0.000000000000000D+00 0.000000000000000D+00
 0.766533202226186D+03 0.000000000000000D+00 0.000000000000000D+00 0.766533202226186D+03
 0.482053204719595D+03 0.000000000000000D+00 0.000000000000000D+00 -.482053204719595D+03
 0.101940731969398D+03 0.219543455906945D+02 0.378484497180652D+02 -.127343258196166D+02
 0.275685939898732D+02 -.126518125369246D+02 0.158996003462139D+02 0.186322763756784D+02
 0.414270122556437D+03 -.755286674266052D+02 -.976030177719285D+02 0.395460245488089D+03
 0.411967295391122D+03 0.169484938584579D+02 -.511352637530099D+01 -.401358196044151D+03
 0.292839663038951D+03 0.492776405143773D+02 0.489684940829504D+02 0.284479997506591D+03
-.844562900662D-05 0.000000000000D+00 0.000000000000D+00 0.135881718969D-06 0.000000000000D+00  7 21 2 23 -11 11 23 2 2 0.18062308D-01 0.47955687D+00 0.41460362D+05 0.41460362D+05 0.41460362D+05 0.11545192D+01  1  2 13  3  7  1       -2 -.759419523571D-03 0.100000000000D+01
0.115560719749D-04 0.000000000000D+00 0.000000000000D+00 0.135881718969D-06 0.120832576315D-10  7 21 2 23 -11 11 23 2 2 0.18031283D-01 0.48503446D+00 0.41460362D+05 0.41460362D+05 0.41460362D+05 0.11545192D+01  1  2  1  3  7  1       -2 0.989679450694D-03 0.100000000000D+01
  </mgrwgt>
  </event>
  <event>
  8     66 0.53686478E-06 0.40688160E+03 0.75467711E-02 0.91526175E-01
       -2 -1    0    0    0  501 0.00000000E+00 0.00000000E+00 0.43959048E+03 0.43959059E+03 0.32000000E+00 0.0000E+00 0.9000E+01
        2 -1    0    0  501    0 0.00000000E+00 0.00000000E+00 -.40977039E+03 0.40977051E+03 0.32000000E+00 0.0000E+00 0.9000E+01
       25  2    1    2    0    0 0.48919098E+02 0.34557179E+03 -.90386331E+02 0.46875890E+03 0.29958684E+03 0.0000E+00 0.0000E+00
       23  2    1    2    0    0 -.48919098E+02 -.34557179E+03 0.12020642E+03 0.38060221E+03 0.92712032E+02 0.0000E+00 0.0000E+00
       23  1    3    3    0    0 0.62658496E+02 0.34915553E+03 -.57305076E+02 0.37072199E+03 0.91188000E+02 0.0000E+00 0.9000E+01
      -11  1    4    4    0    0 -.56524543E+02 -.16378610E+03 0.24401658E+02 0.17497528E+03 0.51099893E-03 0.0000E+00 0.9000E+01
       11  1    4    4    0    0 0.76054449E+01 -.18178570E+03 0.95804761E+02 0.20562693E+03 0.51099893E-03 0.0000E+00 0.9000E+01
       23  1    3    3    0    0 -.13739398E+02 -.35837369E+01 -.33081255E+02 0.98036906E+02 0.91188000E+02 0.0000E+00 0.9000E+01
#aMCatNLO 1  0  0  1  1 0.42152662D+03 0.00000000D+00  -5  7  0 0.00000000D+00 0.00000000D+00 0.00000000D+00 0.00000000D+00 0.00000000D+00
  <mgrwgt>
 0.2260741612D-03    3    2    0
 0.424418736565873D+03 0.000000000000000D+00 0.000000000000000D+00 0.424418736565873D+03
 0.424418736565873D+03 0.000000000000000D+00 0.000000000000000D+00 -.424418736565873D+03
 0.372963838267105D+03 0.626584959239467D+02 0.349155528184509D+03 -.703640770398960D+02
 0.174225981662343D+03 -.565245432779327D+02 -.163786096074319D+03 0.182697407250917D+02
 0.202388108217134D+03 0.760544491634008D+01 -.181785695185028D+03 0.886400845071284D+02
 0.992595449851647D+02 -.137393975623541D+02 -.358373692516163D+01 -.365457481923241D+02
 0.000000000000000D+00 0.000000000000000D+00 -.000000000000000D+00 -.000000000000000D+00
 0.560202668634152D+03 0.000000000000000D+00 0.000000000000000D+00 0.560202668634152D+03
 0.988402439673720D+03 0.000000000000000D+00 0.000000000000000D+00 -.988402439673720D+03
 0.558104684025561D+03 -.340733331898735D+02 0.545026138469456D+03 -.703640770398960D+02
 0.134028515864065D+03 -.885501360934506D+02 -.989380262406376D+02 0.182697407250917D+02
 0.143355866761656D+03 -.283150553519189D+02 -.109050894512482D+03 0.886400845071284D+02
 0.112250217432244D+03 -.357138556223102D+02 0.409119637176958D+02 -.365457481923241D+02
 0.600865824224347D+03 0.186652380257553D+03 -.377949181434032D+03 -.428199771039568D+03
0.115566203963D-04 0.000000000000D+00 0.000000000000D+00 0.164494892925D-06 0.000000000000D+00  7 -2 2 23 -11 11 23 21 0 0.67629323D-01 0.63041617D-01 0.16555264D+06 0.16555264D+06 0.16555264D+06 0.11041866D+01  1  2  2  1  7  1       -2 0.223696174618D-03 0.100000000000D+01
-.640644417806D-06 0.000000000000D+00 -.443804652499D-07 0.164494892925D-06 0.000000000000D+00  7 -2 2 23 -11 11 23 21 2 0.67629323D-01 0.63041617D-01 0.16555264D+06 0.16555264D+06 0.16555264D+06 0.11041866D+01  1  2  3  1  7  1       -2 -.151192315481D-04 0.100000000000D+01
0.741406404312D-06 0.000000000000D+00 0.000000000000D+00 0.164494892925D-06 0.000000000000D+00  7 -2 2 23 -11 11 23 21 2 0.67629323D-01 0.63041617D-01 0.16555264D+06 0.16555264D+06 0.16555264D+06 0.11041866D+01  1  2 15  1  7  1       -2 0.174972180924D-04 0.100000000000D+01
  </mgrwgt>
  </event>
  <event>
  8     66 0.53686478E-06 0.34157661E+03 0.75467711E-02 0.86712581E-01
       -2 -1    0    0    0  501 0.00000000E+00 0.00000000E+00 0.99683422E+03 0.99683428E+03 0.32000000E+00 0.0000E+00 0.9000E+01
        2 -1    0    0  501    0 0.00000000E+00 0.00000000E+00 -.17033094E+03 0.17033124E+03 0.32000000E+00 0.0000E+00 0.9000E+01
       25  2    1    2    0    0 -.27489291E+03 -.11798021E+03 0.72213600E+03 0.83786126E+03 0.30173772E+03 0.0000E+00 0.0000E+00
       23  2    1    2    0    0 0.27489291E+03 0.11798021E+03 0.10436728E+03 0.32930425E+03 0.89795987E+02 0.0000E+00 0.0000E+00
       23  1    3    3    0    0 -.22559905E+02 -.21804093E+02 0.51843154E+02 0.10948667E+03 0.91188000E+02 0.0000E+00 0.9000E+01
      -11  1    4    4    0    0 0.19779684E+03 0.65201150E+02 0.31108816E+02 0.21057669E+03 0.51099893E-03 0.0000E+00 0.9000E+01
       11  1    4    4    0    0 0.77096064E+02 0.52779063E+02 0.73258465E+02 0.11872757E+03 0.51099893E-03 0.0000E+00 0.9000E+01
       23  1    3    3    0    0 -.25233300E+03 -.96176120E+02 0.67029285E+03 0.72837459E+03 0.91188000E+02 0.0000E+00 0.9000E+01
#aMCatNLO 1  0  0  2  2 0.96710584D+03 0.00000000D+00  -5  7  0 0.00000000D+00 0.00000000D+00 0.00000000D+00 0.00000000D+00 0.00000000D+00
  <mgrwgt>
 0.3442298134D-03    5    2    0
 0.412058147144577D+03 0.000000000000000D+00 0.000000000000000D+00 0.412058147144577D+03
 0.412058147144577D+03 0.000000000000000D+00 0.000000000000000D+00 -.412058147144577D+03
 0.103068625079993D+03 -.225599048110978D+02 -.218040934360797D+02 -.363802465113298D+02
 0.267033072845191D+03 0.197796844898351D+03 0.652011500521047D+02 -.167128334441786D+03
 0.946788229584571D+02 0.770960638342828D+02 0.527790631124418D+02 -.153181903314963D+02
 0.359335773405513D+03 -.252333003921536D+03 -.961761197284667D+02 0.218826771284612D+03
 0.000000000000000D+00 0.000000000000000D+00 -.000000000000000D+00 -.000000000000000D+00
 0.108721839697701D+04 0.000000000000000D+00 0.000000000000000D+00 0.108721839697701D+04
 0.115271749914393D+04 0.000000000000000D+00 0.000000000000000D+00 -.115271749914393D+04
 0.162100482614501D+03 -.114947663393213D+03 0.585220254610989D+02 -.363802465113298D+02
 0.286745609576399D+03 0.485441783994457D+01 0.232954070721013D+03 -.167128334441786D+03
 0.118337900267035D+03 0.287875484826071D+01 0.117306966779908D+03 -.153181903314963D+02
 0.703430573502841D+03 -.622612187424646D+03 0.225761441867263D+03 0.218826771284612D+03
 0.969321330160168D+03 0.729826678129654D+03 -.634544504829282D+03 -.654991021669206D+02
0.401842583399D-04 0.000000000000D+00 0.000000000000D+00 0.505492380559D-07 0.000000000000D+00  7 -2 2 23 -11 11 23 21 0 0.15335914D+00 0.26204787D-01 0.11667458D+06 0.11667458D+06 0.11667458D+06 0.11162670D+01  1  2  2  2  7  2        2 0.286760455085D-03 0.100000000000D+01
-.213693846869D-05 0.000000000000D+00 -.154318132783D-06 0.505492380559D-07 0.000000000000D+00  7 -2 2 23 -11 11 23 21 2 0.15335914D+00 0.26204787D-01 0.11667458D+06 0.11667458D+06 0.11667458D+06 0.11162670D+01  1  2  3  2  7  2        2 -.190016563617D-04 0.100000000000D+01
0.254246536824D-05 0.000000000000D+00 0.000000000000D+00 0.505492380559D-07 0.000000000000D+00  7 -2 2 23 -11 11 23 21 2 0.15335914D+00 0.26204787D-01 0.11667458D+06 0.11667458D+06 0.11667458D+06 0.11162670D+01  1  2 15  2  7  2        2 0.226076014573D-04 0.100000000000D+01
0.572416592022D-04 0.000000000000D+00 -.235962894924D-04 0.505492380559D-07 0.000000000000D+00  7 -2 2 23 -11 11 23 21 2 0.15335914D+00 0.18807896D+00 0.11667458D+06 0.11667458D+06 0.11667458D+06 0.11162670D+01  1  2  5  2  7  2        2 0.487566217654D-04 0.100000000000D+01
0.114416241606D-04 0.000000000000D+00 -.567899872379D-05 0.505492380559D-07 0.000000000000D+00  7 -2 21 23 -11 11 23 -2 2 0.15335914D+00 0.18807896D+00 0.11667458D+06 0.11667458D+06 0.11667458D+06 0.11162670D+01  1  2  5  4  7  2        2 0.510679143902D-05 0.100000000000D+01
  </mgrwgt>
  </event>
  <event>
  8     66 0.53686478E-06 0.26575380E+03 0.75467711E-02 0.10175506E+00
       -2 -1    0    0    0  501 0.00000000E+00 0.00000000E+00 0.40503547E+02 0.40504811E+02 0.32000000E+00 0.0000E+00 0.9000E+01
        2 -1    0    0  501    0 0.00000000E+00 0.00000000E+00 -.26551701E+04 0.26551701E+04 0.32000000E+00 0.0000E+00 0.9000E+01
       25  2    1    2    0    0 -.81839226E+01 -.21777669E+03 -.20352223E+04 0.20698518E+04 0.30767370E+03 0.0000E+00 0.0000E+00
       23  2    1    2    0    0 0.81839226E+01 0.21777669E+03 -.57944424E+03 0.62582310E+03 0.91680158E+02 0.0000E+00 0.0000E+00
       23  1    3    3    0    0 -.29926514E+02 -.15482698E+03 -.17971449E+04 0.18063532E+04 0.91188000E+02 0.0000E+00 0.9000E+01
      -11  1    4    4    0    0 -.21080911E+02 0.50219590E+01 -.52684096E+02 0.56966998E+02 0.51099893E-03 0.0000E+00 0.9000E+01
       11  1    4    4    0    0 0.29264833E+02 0.21275473E+03 -.52676015E+03 0.56885610E+03 0.51099893E-03 0.0000E+00 0.9000E+01
       23  1    3    3    0    0 0.21742591E+02 -.62949708E+02 -.23807744E+03 0.26349862E+03 0.91188000E+02 0.0000E+00 0.9000E+01
#aMCatNLO 1  0  0  1  2 0.24245124D+02 0.00000000D+00  -5  7  0 0.00000000D+00 0.00000000D+00 0.00000000D+00 0.00000000D+00 0.00000000D+00
  <mgrwgt>
 0.3814785670D-03    4    2    0
 0.327941361938727D+03 0.000000000000000D+00 0.000000000000000D+00 0.327941361938727D+03
 0.327941361938727D+03 0.000000000000000D+00 0.000000000000000D+00 -.327941361938727D+03
 0.259812432963408D+03 -.299265136474577D+02 -.154826982387919D+03 -.185257275927087D+03
 0.241097436591184D+02 -.210809108321297D+02 0.502195905323053D+01 0.105666865697753D+02
 0.238074544843139D+03 0.292648334828142D+02 0.212754731708596D+03 0.102754477075671D+03
 0.133886002411790D+03 0.217425909967733D+02 -.629497083739070D+02 0.719361122816408D+02
 0.000000000000000D+00 -.000000000000000D+00 0.000000000000000D+00 -.000000000000000D+00
 0.329382690574839D+03 0.000000000000000D+00 0.000000000000000D+00 0.329382690574839D+03
 0.448884115045158D+03 0.000000000000000D+00 0.000000000000000D+00 -.448884115045158D+03
 0.264223637028619D+03 -.247265879440142D+02 -.162994529311120D+03 -.185257275927087D+03
 0.235511062189063D+02 -.206079798784790D+02 0.427912425602975D+01 0.105666865697753D+02
 0.232183936694586D+03 0.339311328187502D+02 0.205425354144850D+03 0.102754477075671D+03
 0.136372009214406D+03 0.244243178123300D+02 -.671619088649183D+02 0.719361122816408D+02
 0.121936116463479D+03 -.130208828085871D+02 0.204519597751586D+02 -.119501424470319D+03
0.794420607596D-05 0.000000000000D+00 0.000000000000D+00 0.503629334972D-08 0.000000000000D+00  7 -2 2 23 -11 11 23 21 0 0.62314137D-02 0.40848781D+00 0.70625080D+05 0.70625080D+05 0.70625080D+05 0.11343316D+01  1  2  2  1  7  1       -2 0.384732778916D-03 0.100000000000D+01
-.417620587675D-06 0.000000000000D+00 -.305078430892D-07 0.503629334972D-08 0.000000000000D+00  7 -2 2 23 -11 11 23 21 2 0.62314137D-02 0.40848781D+00 0.70625080D+05 0.70625080D+05 0.70625080D+05 0.11343316D+01  1  2  3  1  7  1       -2 -.260237939557D-04 0.100000000000D+01
0.500341946952D-06 0.000000000000D+00 0.000000000000D+00 0.503629334972D-08 0.000000000000D+00  7 -2 2 23 -11 11 23 21 2 0.62314137D-02 0.40848781D+00 0.70625080D+05 0.70625080D+05 0.70625080D+05 0.11343316D+01  1  2 15  1  7  1       -2 0.311785293138D-04 0.100000000000D+01
-.134943794520D-06 0.000000000000D+00 0.000000000000D+00 0.503629334972D-08 0.000000000000D+00  7 -2 2 23 -11 11 23 21 2 0.62314137D-02 0.40848781D+00 0.70625080D+05 0.70625080D+05 0.70625080D+05 0.11343316D+01  1  2  4  1  7  1       -2 -.840894727850D-05 0.100000000000D+01
  </mgrwgt>
  </event>
  <event>
  8     66 0.53686478E-06 0.21390064E+03 0.75467711E-02 0.99723977E-01
       -2 -1    0    0    0  501 0.00000000E+00 0.00000000E+00 0.32003632E+02 0.32005232E+02 0.32000000E+00 0.0000E+00 0.9000E+01
        2 -1    0    0  501    0 0.00000000E+00 0.00000000E+00 -.45128415E+04 0.45128415E+04 0.32000000E+00 0.0000E+00 0.9000E+01
       25  2    1    2    0    0 0.28246366E+02 -.25006976E+03 -.36614482E+04 0.36823460E+04 0.30022689E+03 0.0000E+00 0.0000E+00
       23  2    1    2    0    0 -.28246366E+02 0.25006976E+03 -.81938963E+03 0.86250074E+03 0.95788375E+02 0.0000E+00 0.0000E+00
       23  1    3    3    0    0 -.23767638E+02 -.48671952E+02 -.22706589E+04 0.22731346E+04 0.91188000E+02 0.0000E+00 0.9000E+01
      -13  1    4    4    0    0 -.10876775E+02 -.29069063E+01 -.81123926E+02 0.81901507E+02 0.10565837E+00 0.0000E+00 0.9000E+01
       13  1    4    4    0    0 -.17369591E+02 0.25297666E+03 -.73826571E+03 0.78059923E+03 0.10565837E+00 0.0000E+00 0.9000E+01
       23  1    3    3    0    0 0.52014004E+02 -.20139780E+03 -.13907893E+04 0.14092114E+04 0.91188000E+02 0.0000E+00 0.9000E+01
#aMCatNLO 1  0  0  2  1 0.54017912D+02 0.00000000D+00  -5  7  0 0.00000000D+00 0.00000000D+00 0.00000000D+00 0.00000000D+00 0.00000000D+00
  <mgrwgt>
 0.2292009491D-03    9    2    0
 0.380040761849527D+03 0.000000000000000D+00 0.000000000000000D+00 0.380040761849527D+03
 0.380040761849527D+03 0.000000000000000D+00 0.000000000000000D+00 -.380040761849527D+03
 0.206022694602263D+03 -.237676381770179D+02 -.486719530484303D+02 -.176624572778295D+03
 0.114808166225912D+02 -.108767664689070D+02 -.290721648614184D+01 -.224793100542072D+01
 0.315301991752718D+03 -.173695995973383D+02 0.252976973912943D+03 0.187393419529365D+03
 0.227276020721482D+03 0.520140042432632D+02 -.201397804378371D+03 -.852091574564983D+01
 0.000000000000000D+00 -.000000000000000D+00 -.000000000000000D+00 -.000000000000000D+00
 0.394845028666581D+03 0.000000000000000D+00 0.000000000000000D+00 0.394845028666581D+03
 0.433685836984102D+03 0.000000000000000D+00 0.000000000000000D+00 -.433685836984102D+03
 0.204001227542568D+03 -.973060644161036D+01 -.448366488939317D+02 -.176624572778295D+03
 0.107096533931102D+02 -.101170831552979D+02 -.269965005588016D+01 -.224793100542072D+01
 0.319645046741724D+03 0.436759974221947D+01 0.258916176196278D+03 0.187393419529365D+03
 0.227642666437826D+03 0.675879932322021D+02 -.197142561119163D+03 -.852091574564983D+01
 0.665322715354545D+02 -.521079033775133D+02 -.142373161273036D+02 -.388408083175210D+02
0.375205582816D-04 0.000000000000D+00 0.000000000000D+00 0.643382614988D-07 0.000000000000D+00  7 -2 2 23 -13 13 23 21 0 0.49237597D-02 0.69428343D+00 0.89403761D+05 0.89403761D+05 0.89403761D+05 0.11257359D+01  1  2  2  2  7  2        2 0.109745028659D-03 0.100000000000D+01
-.193871246529D-05 0.000000000000D+00 -.144088823191D-06 0.643382614988D-07 0.000000000000D+00  7 -2 2 23 -13 13 23 21 2 0.49237597D-02 0.69428343D+00 0.89403761D+05 0.89403761D+05 0.89403761D+05 0.11257359D+01  1  2  3  2  7  2        2 -.718624409223D-05 0.100000000000D+01
0.245360349948D-05 0.000000000000D+00 0.000000000000D+00 0.643382614988D-07 0.000000000000D+00  7 -2 2 23 -13 13 23 21 2 0.49237597D-02 0.69428343D+00 0.89403761D+05 0.89403761D+05 0.89403761D+05 0.11257359D+01  1  2 15  2  7  2        2 0.909479562777D-05 0.100000000000D+01
0.315630647369D-04 0.000000000000D+00 0.000000000000D+00 0.643382614988D-07 0.000000000000D+00  7 -2 2 23 -13 13 23 21 2 0.49237597D-02 0.80447052D+00 0.10660382D+06 0.10660382D+06 0.10660382D+06 0.11194501D+01  1  2 12  2  7  2        2 0.156159151809D-04 0.100000000000D+01
-.356383085822D-04 0.000000000000D+00 0.000000000000D+00 0.643382614988D-07 0.000000000000D+00  7 -2 2 23 -13 13 23 21 2 0.49237597D-02 0.69428343D+00 0.89403761D+05 0.89403761D+05 0.89403761D+05 0.11257359D+01  1  2  4  2  7  2        2 -.132100860283D-03 0.100000000000D+01
-.651001553288D-04 0.000000000000D+00 -.129184072135D-04 0.643382614988D-07 0.000000000000D+00  7 -2 2 23 -13 13 23 21 2 0.49237597D-02 0.79540612D+00 0.89403761D+05 0.89403761D+05 0.89403761D+05 0.11257359D+01  1  2  5  2  7  2        2 -.404594672077D-04 0.100000000000D+01
0.740534129068D-04 0.000000000000D+00 0.154184915525D-04 0.643382614988D-07 0.000000000000D+00  7 -2 2 23 -13 13 23 21 2 0.49237597D-02 0.69428343D+00 0.89403761D+05 0.89403761D+05 0.89403761D+05 0.11257359D+01  1  2  6  2  7  2        2 0.274494495981D-03 0.100000000000D+01
0.709473588504D-06 0.000000000000D+00 0.000000000000D+00 0.643382614988D-07 0.000000000000D+00  7 -2 21 23 -13 13 23 -2 2 0.49237597D-02 0.80447052D+00 0.10660382D+06 0.10660382D+06 0.10660382D+06 0.11194501D+01  1  2 12  4  7  2        2 0.186227128378D-08 0.100000000000D+01
-.129549623797D-05 0.000000000000D+00 -.271976978272D-06 0.643382614988D-07 0.000000000000D+00  7 -2 21 23 -13 13 23 -2 2 0.49237597D-02 0.79540612D+00 0.89403761D+05 0.89403761D+05 0.89403761D+05 0.11257359D+01  1  2  5  4  7  2        2 -.457708542549D-08 0.100000000000D+01
  </mgrwgt>
  </event>
  <event>
  8     66 0.53686478E-06 0.29182506E+03 0.75467711E-02 0.93094556E-01
       -2 -1    0    0    0  501 0.00000000E+00 0.00000000E+00 0.22287071E+03 0.22287094E+03 0.32000000E+00 0.0000E+00 0.9000E+01
        2 -1    0    0  501    0 0.00000000E+00 0.00000000E+00 -.22296029E+04 0.22296029E+04 0.32000000E+00 0.0000E+00 0.9000E+01
       25  2    1    2    0    0 0.28825799E+03 0.35297673E+03 -.18992642E+03 0.57712719E+03 0.29886202E+03 0.0000E+00 0.0000E+00
       23  2    1    2    0    0 -.28825799E+03 -.35297673E+03 -.18168057E+04 0.18753466E+04 0.91960156E+02 0.0000E+00 0.0000E+00
       23  1    3    3    0    0 0.15090996E+03 0.32337074E+03 -.80382070E+02 0.37698671E+03 0.91188000E+02 0.0000E+00 0.9000E+01
      -11  1    4    4    0    0 -.13168971E+03 -.13754980E+03 -.59004436E+03 0.62001167E+03 0.51099893E-03 0.0000E+00 0.9000E+01
       11  1    4    4    0    0 -.15656827E+03 -.21542693E+03 -.12267614E+04 0.12553350E+04 0.51099893E-03 0.0000E+00 0.9000E+01
       23  1    3    3    0    0 0.13734803E+03 0.29605996E+02 -.10954435E+03 0.20014048E+03 0.91188000E+02 0.0000E+00 0.9000E+01
#aMCatNLO 1  0  0  2  1 0.14566303D+03 0.00000000D+00  -5  7  0 0.00000000D+00 0.00000000D+00 0.00000000D+00 0.00000000D+00 0.00000000D+00
  <mgrwgt>
 0.2133346928D-03    9    2    0
 0.704920899442704D+03 0.000000000000000D+00 0.000000000000000D+00 0.704920899442704D+03
 0.704920899442704D+03 0.000000000000000D+00 0.000000000000000D+00 -.704920899442704D+03
 0.541369069617649D+03 0.150909958450415D+03 0.323370736042406D+03 0.396765383704986D+03
 0.238680260122757D+03 -.131689713596574D+03 -.137549800073569D+03 -.143896276549604D+03
 0.437563012456813D+03 -.156568274912075D+03 -.215426931759883D+03 -.347187272568942D+03
 0.192229456688190D+03 0.137348030058234D+03 0.296059957910459D+02 0.943181654135604D+02
 0.000000000000000D+00 0.000000000000000D+00 0.000000000000000D+00 -.000000000000000D+00
 0.751132962932953D+03 0.000000000000000D+00 0.000000000000000D+00 0.751132962932953D+03
 0.833602141035548D+03 0.000000000000000D+00 0.000000000000000D+00 -.833602141035548D+03
 0.509163003214744D+03 0.144188368160349D+03 0.269663971044240D+03 0.396765383704986D+03
 0.255741921762834D+03 -.134853161360711D+03 -.162826340047087D+03 -.143896276549604D+03
 0.463986455660509D+03 -.162336633925211D+03 -.261517200368106D+03 -.347187272568942D+03
 0.188455301166367D+03 0.134912305306802D+03 0.101440989511382D+02 0.943181654135604D+02
 0.167388422164046D+03 0.180891218187716D+02 0.144535470419814D+03 -.824691781025949D+02
0.268639942998D-04 0.000000000000D+00 0.000000000000D+00 0.591110599650D-06 0.000000000000D+00  7 -2 2 23 -11 11 23 21 0 0.34287820D-01 0.34301584D+00 0.24629192D+06 0.24629192D+06 0.24629192D+06 0.10909477D+01  1  2  2  2  7  2        2 0.136706066859D-03 0.100000000000D+01
-.126894896983D-05 0.000000000000D+00 -.103164811564D-06 0.591110599650D-06 0.000000000000D+00  7 -2 2 23 -11 11 23 21 2 0.34287820D-01 0.34301584D+00 0.24629192D+06 0.24629192D+06 0.24629192D+06 0.10909477D+01  1  2  3  2  7  2        2 -.768544818969D-05 0.100000000000D+01
0.161611037154D-05 0.000000000000D+00 0.000000000000D+00 0.591110599650D-06 0.000000000000D+00  7 -2 2 23 -11 11 23 21 2 0.34287820D-01 0.34301584D+00 0.24629192D+06 0.24629192D+06 0.24629192D+06 0.10909477D+01  1  2 15  2  7  2        2 0.978804729314D-05 0.100000000000D+01
0.280629990543D-04 0.000000000000D+00 0.000000000000D+00 0.591110599650D-06 0.000000000000D+00  7 -2 2 23 -11 11 23 21 2 0.34287820D-01 0.41535177D+00 0.32898324D+06 0.32898324D+06 0.32898324D+06 0.10816010D+01  1  2 12  2  7  2        2 0.880510402638D-04 0.100000000000D+01
-.295951081965D-04 0.000000000000D+00 0.000000000000D+00 0.591110599650D-06 0.000000000000D+00  7 -2 2 23 -11 11 23 21 2 0.34287820D-01 0.34301584D+00 0.24629192D+06 0.24629192D+06 0.24629192D+06 0.10909477D+01  1  2  4  2  7  2        2 -.179244143082D-03 0.100000000000D+01
-.551356557952D-04 0.000000000000D+00 -.147593304598D-04 0.591110599650D-06 0.000000000000D+00  7 -2 2 23 -11 11 23 21 2 0.34287820D-01 0.41462152D+00 0.24629192D+06 0.24629192D+06 0.24629192D+06 0.10909477D+01  1  2  5  2  7  2        2 -.180304595278D-03 0.100000000000D+01
0.571647591258D-04 0.000000000000D+00 0.144979899511D-04 0.591110599650D-06 0.000000000000D+00  7 -2 2 23 -11 11 23 21 2 0.34287820D-01 0.34301584D+00 0.24629192D+06 0.24629192D+06 0.24629192D+06 0.10909477D+01  1  2  6  2  7  2        2 0.346221010443D-03 0.100000000000D+01
0.776185059035D-06 0.000000000000D+00 0.000000000000D+00 0.591110599650D-06 0.000000000000D+00  7 -2 21 23 -11 11 23 -2 2 0.34287820D-01 0.41535177D+00 0.32898324D+06 0.32898324D+06 0.32898324D+06 0.10816010D+01  1  2 12  4  7  2        2 0.228115905367D-06 0.100000000000D+01
-.135913315997D-05 0.000000000000D+00 -.405314296873D-06 0.591110599650D-06 0.000000000000D+00  7 -2 21 23 -11 11 23 -2 2 0.34287820D-01 0.41462152D+00 0.24629192D+06 0.24629192D+06 0.24629192D+06 0.10909477D+01  1  2  5  4  7  2        2 -.425401423002D-06 0.100000000000D+01
  </mgrwgt>
  </event>
  <event>
  9     66 0.53686478E-06 0.18296986E+03 0.75467711E-02 0.10075277E+00
       21 -1    0    0  502  501 0.00000000E+00 0.00000000E+00 0.91808041E+02 0.91811104E+02 0.75000000E+00 0.0000E+00 0.9000E+01
        2 -1    0    0  501    0 0.00000000E+00 0.00000000E+00 -.15126383E+04 0.15126383E+04 0.32000000E+00 0.0000E+00 0.9000E+01
       25  2    1    2    0    0 0.64602913E+02 -.27418054E+02 -.43631707E+03 0.53394914E+03 0.29967285E+03 0.0000E+00 0.0000E+00
       23  2    1    2    0    0 0.59977962E+02 -.98317000E+02 -.80824576E+03 0.82070035E+03 0.83810949E+02 0.0000E+00 0.0000E+00
       23  1    3    3    0    0 0.11840422E+03 0.68971430E+02 -.23469192E+03 0.28665688E+03 0.91188000E+02 0.0000E+00 0.9000E+01
      -13  1    4    4    0    0 0.13359545E+02 -.69865051E+01 -.16533607E+02 0.22375434E+02 0.10565837E+00 0.0000E+00 0.9000E+01
       13  1    4    4    0    0 0.46618417E+02 -.91330495E+02 -.79171215E+03 0.79832492E+03 0.10565837E+00 0.0000E+00 0.9000E+01
       23  1    3    3    0    0 -.53801302E+02 -.96389485E+02 -.20162515E+03 0.24729227E+03 0.91188000E+02 0.0000E+00 0.9000E+01
        2  1    1    2  502    0 -.12458087E+03 0.12573505E+03 -.17626741E+03 0.24979992E+03 0.32000000E+00 0.0000E+00 0.9000E+01
#aMCatNLO 2  0  0  1  2 0.17700197D+03 0.00000000D+00  -5  7  0 0.00000000D+00 0.00000000D+00 0.00000000D+00 0.00000000D+00 0.00000000D+00
  <mgrwgt>
 0.7123819704D-04    2    2    0
 0.252393010578741D+03 0.000000000000000D+00 0.000000000000000D+00 0.252393010578741D+03
 0.252393010578741D+03 0.000000000000000D+00 0.000000000000000D+00 -.252393010578741D+03
 0.178594446620571D+03 0.754485157671928D+02 0.112325091935620D+03 0.726038580923219D+02
 0.142453418555470D+02 0.947221261473621D+01 -.306307903845433D+01 0.101894307773698D+02
 0.156152983828586D+03 0.637769459275910D+01 -.507170429603053D+02 -.147549520241900D+03
 0.155793248852779D+03 -.912984229746881D+02 -.585449699368603D+02 0.647562313722082D+02
 0.000000000000000D+00 -.000000000000000D+00 0.000000000000000D+00 0.000000000000000D+00
 0.446109436992770D+03 0.000000000000000D+00 0.000000000000000D+00 0.446109436992770D+03
 0.311301970586875D+03 0.000000000000000D+00 0.000000000000000D+00 -.311301970586875D+03
 0.179897714608557D+03 0.118404214321094D+03 0.689714303062966D+02 0.726038580923219D+02
 0.181964246736062D+02 0.133594907599664D+02 -.698637087261937D+01 0.101894307773698D+02
 0.179681459559998D+03 0.466184715870344D+02 -.913306306388240D+02 -.147549520241900D+03
 0.157143671174113D+03 -.538013018187537D+02 -.963894831771296D+02 0.647562313722082D+02
 0.222492137563370D+03 -.124580874849341D+03 0.125735054382276D+03 0.134807466405895D+03
-.684726395559D-10 0.000000000000D+00 0.000000000000D+00 0.100903848691D-07 0.000000000000D+00  7 21 2 23 -13 13 23 2 2 0.14459703D-01 0.18867636D+00 0.90720075D+05 0.90720075D+05 0.90720075D+05 0.11252096D+01  1  2 13  3  7  1       -2 -.944405025261D-07 0.100000000000D+01
0.712050714098D-07 0.000000000000D+00 0.000000000000D+00 0.100903848691D-07 0.187525526242D-12  7 21 2 23 -13 13 23 2 2 0.14124547D-01 0.23271374D+00 0.90720075D+05 0.90720075D+05 0.90720075D+05 0.11252096D+01  1  2  1  3  7  1       -2 0.713326375401D-04 0.100000000000D+01
  </mgrwgt>
  </event>
  <event>
  8     66 0.53686478E-06 0.18921045E+03 0.75467711E-02 0.10535046E+00
       -2 -1    0    0    0  501 0.00000000E+00 0.00000000E+00 0.53068170E+02 0.53069135E+02 0.32000000E+00 0.0000E+00 0.9000E+01
        2 -1    0    0  501    0 0.00000000E+00 0.00000000E+00 -.10961704E+04 0.10961704E+04 0.32000000E+00 0.0000E+00 0.9000E+01
       25  2    1    2    0    0 -.18873301E+02 0.29915138E+02 -.99858670E+03 0.10438221E+04 0.30189081E+03 0.0000E+00 0.0000E+00
       23  2    1    2    0    0 0.18873301E+02 -.29915138E+02 -.44515519E+02 0.10541747E+03 0.88769899E+02 0.0000E+00 0.0000E+00
       23  1    3    3    0    0 -.10222754E+03 -.46640599E+02 -.34225543E+03 0.37159096E+03 0.91188000E+02 0.0000E+00 0.9000E+01
      -11  1    4    4    0    0 0.32530489E+02 -.52626085E+02 -.48507389E+02 0.78617455E+02 0.51099893E-03 0.0000E+00 0.9000E+01
       11  1    4    4    0    0 -.13657187E+02 0.22710947E+02 0.39918696E+01 0.26800017E+02 0.51099893E-03 0.0000E+00 0.9000E+01
       23  1    3    3    0    0 0.83354236E+02 0.76555737E+02 -.65633127E+03 0.67223113E+03 0.91188000E+02 0.0000E+00 0.9000E+01
#aMCatNLO 1  0  0  1  1 0.49093805D+02 0.00000000D+00  -5  7  0 0.00000000D+00 0.00000000D+00 0.00000000D+00 0.00000000D+00 0.00000000D+00
  <mgrwgt>
 0.1663604795D-03    4    2    0
 0.241189423132010D+03 0.000000000000000D+00 0.000000000000000D+00 0.241189423132010D+03
 0.241189423132010D+03 0.000000000000000D+00 0.000000000000000D+00 -.241189423132010D+03
 0.145196339949341D+03 -.102227537123583D+03 -.466405989155706D+02 -.118705929560356D+02
 0.824085173919786D+02 0.325304885170579D+02 -.526260848531189D+02 0.544373607793209D+02
 0.724815527730823D+02 -.136571874429210D+02 0.227109468631825D+02 0.674630981805885D+02
 0.182292436149618D+03 0.833542360494465D+02 0.765557369055069D+02 -.110029866003874D+03
 0.000000000000000D+00 -.000000000000000D+00 0.000000000000000D+00 -.000000000000000D+00
 0.257708404577652D+03 0.000000000000000D+00 0.000000000000000D+00 0.257708404577652D+03
 0.281887131593808D+03 0.000000000000000D+00 0.000000000000000D+00 -.281887131593808D+03
 0.140113846757087D+03 -.903377582813232D+02 -.549073506977504D+02 -.118705929560356D+02
 0.886100297308831D+02 0.396573728624378D+02 -.575812807945397D+02 0.544373607793209D+02
 0.703952711120050D+02 -.770305780847430D+01 0.185711464161008D+02 0.674630981805885D+02
 0.185751508347018D+03 0.986917925342445D+02 0.658918066434631D+02 -.110029866003874D+03
 0.547248802244666D+02 -.403083493068848D+02 0.280256784327262D+02 -.241787270161561D+02
0.123252346666D-05 0.000000000000D+00 0.000000000000D+00 0.326323475736D-08 0.000000000000D+00  7 -2 2 23 -11 11 23 21 0 0.81644117D-02 0.16864168D+00 0.35800593D+05 0.35800593D+05 0.35800593D+05 0.11602795D+01  1  2  2  1  7  1       -2 0.282033559297D-03 0.100000000000D+01
-.635686826453D-07 0.000000000000D+00 -.473321464284D-08 0.326323475736D-08 0.000000000000D+00  7 -2 2 23 -11 11 23 21 2 0.81644117D-02 0.16864168D+00 0.35800593D+05 0.35800593D+05 0.35800593D+05 0.11602795D+01  1  2  3  1  7  1       -2 -.195827655651D-04 0.100000000000D+01
0.755156604738D-07 0.000000000000D+00 0.000000000000D+00 0.326323475736D-08 0.000000000000D+00  7 -2 2 23 -11 11 23 21 2 0.81644117D-02 0.16864168D+00 0.35800593D+05 0.35800593D+05 0.35800593D+05 0.11602795D+01  1  2 15  1  7  1       -2 0.232631134391D-04 0.100000000000D+01
-.387439666815D-06 0.000000000000D+00 0.000000000000D+00 0.326323475736D-08 0.000000000000D+00  7 -2 2 23 -11 11 23 21 2 0.81644117D-02 0.16864168D+00 0.35800593D+05 0.35800593D+05 0.35800593D+05 0.11602795D+01  1  2  4  1  7  1       -2 -.119353427665D-03 0.100000000000D+01
  </mgrwgt>
  </event>
  <event>
  7     66 0.53686478E-06 0.32843613E+03 0.75467711E-02 0.96080240E-01
       -2 -1    0    0    0  501 0.00000000E+00 0.00000000E+00 0.86980120E+02 0.86980708E+02 0.32000000E+00 0.0000E+00 0.9000E+01
        2 -1    0    0  501    0 0.00000000E+00 0.00000000E+00 -.14102874E+04 0.14102874E+04 0.32000000E+00 0.0000E+00 0.9000E+01
       23  2    1    2    0    0 -.21236190E+03 0.85314806E+02 -.69289372E+03 0.73638781E+03 0.98939909E+02 0.0000E+00 0.0000E+00
       23  1    1    2    0    0 0.15283038E+03 -.19107114E+03 -.48418159E+03 0.55010215E+03 0.91188000E+02 0.0000E+00 0.9000E+01
      -11  1    3    3    0    0 -.17426609E+03 0.30056289E+02 -.56388838E+03 0.59096714E+03 0.51099893E-03 0.0000E+00 0.9000E+01
       11  1    3    3    0    0 -.38095800E+02 0.55258517E+02 -.12900534E+03 0.14542067E+03 0.51099893E-03 0.0000E+00 0.9000E+01
       23  1    1    2    0    0 0.59531513E+02 0.10575633E+03 -.14623194E+03 0.21077817E+03 0.91188000E+02 0.0000E+00 0.9000E+01
#aMCatNLO 1  0  0  2  1 0.19523286D+03 0.00000000D+00  -5  7  0 0.00000000D+00 0.00000000D+00 0.00000000D+00 0.00000000D+00 0.00000000D+00
  <mgrwgt>
 0.4413549784D-03    3    2    0
 0.350239108529284D+03 0.000000000000000D+00 0.000000000000000D+00 0.350239108529284D+03
 0.350239108529284D+03 0.000000000000000D+00 0.000000000000000D+00 -.350239108529284D+03
 0.261149288148928D+03 0.152830388311215D+03 -.191071123771440D+03 0.428922208028097D+01
 0.197920045390949D+03 -.174266107582599D+03 0.300562944258489D+02 -.888835602400795D+02
 0.671256196769185D+02 -.380958045416777D+02 0.552585184898070D+02 -.102695065326940D+01
 0.174283263841774D+03 0.595315238130621D+02 0.105756310855784D+03 0.856212888130680D+02
 0.000000000000000D+00 0.000000000000000D+00 0.000000000000000D+00 0.000000000000000D+00
 0.105529887573493D+04 0.000000000000000D+00 0.000000000000000D+00 0.105529887573493D+04
 0.377364174857546D+03 0.000000000000000D+00 0.000000000000000D+00 -.377364174857546D+03
 0.237010030139757D+03 0.854832099037657D+02 -.201327411053098D+03 0.428922208028097D+01
 0.252219159267887D+03 -.235121348489240D+03 0.207886629067240D+02 -.888835602400795D+02
 0.778621367176527D+02 -.576969962454578D+02 0.522734572306618D+02 -.102695065326940D+01
 0.160085133681883D+03 0.143275754071651D+02 0.988722112976528D+02 0.856212888130680D+02
 0.705486590785299D+03 0.193007559423767D+03 0.293930796180594D+02 0.677934700877386D+03
0.612970806677D-05 0.000000000000D+00 0.000000000000D+00 0.425318519616D-11 0.000000000000D+00  7 -2 2 23 -11 11 23 21 0 0.13381605D-01 0.21696734D+00 0.10787029D+06 0.10787029D+06 0.10787029D+06 0.11190320D+01  1  2  2  2  7  2        2 0.436002302460D-03 0.100000000000D+01
-.338828866600D-06 0.000000000000D+00 -.235396929656D-07 0.425318519616D-11 0.000000000000D+00  7 -2 2 23 -11 11 23 21 2 0.13381605D-01 0.21696734D+00 0.10787029D+06 0.10787029D+06 0.10787029D+06 0.11190320D+01  1  2  3  2  7  2        2 -.301796658587D-04 0.100000000000D+01
0.398923670876D-06 0.000000000000D+00 0.000000000000D+00 0.425318519616D-11 0.000000000000D+00  7 -2 2 23 -11 11 23 21 2 0.13381605D-01 0.21696734D+00 0.10787029D+06 0.10787029D+06 0.10787029D+06 0.11190320D+01  1  2 15  2  7  2        2 0.355323417718D-04 0.100000000000D+01
  </mgrwgt>
  </event>
  <event>
  8     66 0.53686478E-06 0.14200193E+03 0.75467711E-02 0.10240579E+00
       -2 -1    0    0    0  501 0.00000000E+00 0.00000000E+00 0.50658625E+02 0.50659635E+02 0.32000000E+00 0.0000E+00 0.9000E+01
        2 -1    0    0  501    0 0.00000000E+00 0.00000000E+00 -.28779563E+04 0.28779564E+04 0.32000000E+00 0.0000E+00 0.9000E+01
       25  2    1    2    0    0 0.80997739E+02 -.12873531E+03 -.55231910E+03 0.64669319E+03 0.30003713E+03 0.0000E+00 0.0000E+00
       23  2    1    2    0    0 -.80997739E+02 0.12873531E+03 -.22749786E+04 0.22819228E+04 0.92252746E+02 0.0000E+00 0.0000E+00
       23  1    3    3    0    0 0.10938841E+03 -.27679025E+02 -.10726581E+03 0.18042494E+03 0.91188000E+02 0.0000E+00 0.9000E+01
      -13  1    4    4    0    0 -.61107836E+02 0.16046081E+02 -.87121109E+03 0.87349895E+03 0.10565837E+00 0.0000E+00 0.9000E+01
       13  1    4    4    0    0 -.19889902E+02 0.11268923E+03 -.14037675E+04 0.14084239E+04 0.10565837E+00 0.0000E+00 0.9000E+01
       23  1    3    3    0    0 -.28390668E+02 -.10105629E+03 -.44505329E+03 0.46626826E+03 0.91188000E+02 0.0000E+00 0.9000E+01
#aMCatNLO 1  0  0  1  2 0.71749758D+02 0.00000000D+00  -5  7  0 0.00000000D+00 0.00000000D+00 0.00000000D+00 0.00000000D+00 0.00000000D+00
  <mgrwgt>
 0.1135329070D-03    7    2    0
 0.381830874079745D+03 0.000000000000000D+00 0.000000000000000D+00 0.381830874079745D+03
 0.381830874079745D+03 0.000000000000000D+00 0.000000000000000D+00 -.381830874079745D+03
 0.294794088855535D+03 0.109388406793891D+03 -.276790247480765D+02 0.256624923825132D+03
 0.124361074899759D+03 -.611078900400004D+02 0.160459546808851D+02 -.107116899056412D+03
 0.204100810557943D+03 -.198898488454528D+02 0.112689357821799D+03 -.169004862110606D+03
 0.140405773846253D+03 -.283906679084376D+02 -.101056287754607D+03 0.194968373418864D+02
 0.000000000000000D+00 0.000000000000000D+00 0.000000000000000D+00 0.000000000000000D+00
 0.829992194611693D+03 0.000000000000000D+00 0.000000000000000D+00 0.829992194611693D+03
 0.386395046624589D+03 0.000000000000000D+00 0.000000000000000D+00 -.386395046624589D+03
 0.292120348729101D+03 0.931387997006106D+02 -.498784448402945D+02 0.256624923825132D+03
 0.127083431719357D+03 -.680695085940424D+02 0.653533119837230D+01 -.107116899056412D+03
 0.197559985168298D+03 -.310104308202053D+02 0.974969615065940D+02 -.169004862110606D+03
 0.150261197028204D+03 -.364382192536415D+02 -.112050459613677D+03 0.194968373418864D+02
 0.449362278591322D+03 0.423793589672786D+02 0.578966117490051D+02 0.443597147987104D+03
0.986044151354D-05 0.000000000000D+00 0.000000000000D+00 0.510389255903D-06 0.000000000000D+00  7 -2 2 23 -13 13 23 21 0 0.77937137D-02 0.44276259D+00 0.53299278D+05 0.53299278D+05 0.53299278D+05 0.11448624D+01  1  2  2  1  7  1       -2 0.254573622003D-03 0.100000000000D+01
-.379193259896D-06 0.000000000000D+00 -.378666917259D-07 0.510389255903D-06 0.000000000000D+00  7 -2 2 23 -13 13 23 21 2 0.77937137D-02 0.44276259D+00 0.53299278D+05 0.53299278D+05 0.53299278D+05 0.11448624D+01  1  2  3  1  7  1       -2 -.128317003367D-04 0.100000000000D+01
0.591595667099D-06 0.000000000000D+00 0.000000000000D+00 0.510389255903D-06 0.000000000000D+00  7 -2 2 23 -13 13 23 21 2 0.77937137D-02 0.44276259D+00 0.53299278D+05 0.53299278D+05 0.53299278D+05 0.11448624D+01  1  2 15  1  7  1       -2 0.200192860042D-04 0.100000000000D+01
0.102526571216D-03 0.000000000000D+00 0.000000000000D+00 0.510389255903D-06 0.000000000000D+00  7 -2 2 23 -13 13 23 21 2 0.16930750D-01 0.44276259D+00 0.70489314D+05 0.70489314D+05 0.70489314D+05 0.11344025D+01  1  2 12  1  7  1       -2 0.100769947063D-02 0.100000000000D+01
-.107689830149D-03 0.000000000000D+00 -.307261018737D-05 0.510389255903D-06 0.000000000000D+00  7 -2 2 23 -13 13 23 21 2 0.17055625D-01 0.44276259D+00 0.53299278D+05 0.53299278D+05 0.53299278D+05 0.11448624D+01  1  2  5  1  7  1       -2 -.108107778294D-02 0.100000000000D+01
0.861438950739D-05 0.000000000000D+00 0.000000000000D+00 0.510389255903D-06 0.000000000000D+00  7 21 2 23 -13 13 23 2 2 0.16930750D-01 0.44276259D+00 0.70489314D+05 0.70489314D+05 0.70489314D+05 0.11344025D+01  1  2 12  3  7  1       -2 0.113068122235D-02 0.100000000000D+01
-.894483264182D-05 0.000000000000D+00 -.260729182158D-06 0.510389255903D-06 0.000000000000D+00  7 21 2 23 -13 13 23 2 2 0.17055625D-01 0.44276259D+00 0.53299278D+05 0.53299278D+05 0.53299278D+05 0.11448624D+01  1  2  5  3  7  1       -2 -.120553121074D-02 0.100000000000D+01
  </mgrwgt>
  </event>
  <event>
  8     66 0.53686478E-06 0.98031942E+02 0.75467711E-02 0.10639655E+00
       -2 -1    0    0    0  501 0.00000000E+00 0.00000000E+00 0.25734874E+02 0.25736863E+02 0.32000000E+00 0.0000E+00 0.9000E+01
        2 -1    0    0  501    0 0.00000000E+00 0.00000000E+00 -.18369725E+04 0.18369725E+04 0.32000000E+00 0.0000E+00 0.9000E+01
       25  2    1    2    0    0 0.55001395E+00 0.73096444E+01 -.16299108E+04 0.16573685E+04 0.30034505E+03 0.0000E+00 0.0000E+00
       23  2    1    2    0    0 -.55001395E+00 -.73096444E+01 -.18132677E+03 0.20534091E+03 0.96082038E+02 0.0000E+00 0.0000E+00
       23  1    3    3    0    0 0.19845663E+02 0.48265283E+02 -.14219317E+04 0.14258079E+04 0.91188000E+02 0.0000E+00 0.9000E+01
      -11  1    4    4    0    0 -.35932653E+02 -.23928558E+02 -.40518465E+02 0.59207073E+02 0.51099893E-03 0.0000E+00 0.9000E+01
       11  1    4    4    0    0 0.35382639E+02 0.16618913E+02 -.14080830E+03 0.14613383E+03 0.51099893E-03 0.0000E+00 0.9000E+01
       23  1    3    3    0    0 -.19295649E+02 -.40955638E+02 -.20797919E+03 0.23156054E+03 0.91188000E+02 0.0000E+00 0.9000E+01
#aMCatNLO 1  0  0  2  1 0.91396503D+02 0.00000000D+00  -5  7  0 0.00000000D+00 0.00000000D+00 0.00000000D+00 0.00000000D+00 0.00000000D+00
  <mgrwgt>
 0.2207475803D-03    9    2    0
 0.217430756425150D+03 0.000000000000000D+00 0.000000000000000D+00 0.217430756425150D+03
 0.217430756425150D+03 0.000000000000000D+00 0.000000000000000D+00 -.217430756425150D+03
 0.184908796798494D+03 0.198456627409617D+02 0.482652831140217D+02 -.152159862992058D+03
 0.848477075930107D+02 -.359326489167622D+02 -.239285561035583D+02 0.730438390859394D+02
 0.394782415732654D+02 0.353826348934120D+02 0.166189106588645D+02 0.551475423108694D+01
 0.125626766885531D+03 -.192956487176114D+02 -.409556376693279D+02 0.736012696750321D+02
 0.000000000000000D+00 0.000000000000000D+00 -.000000000000000D+00 -.000000000000000D+00
 0.243357663033612D+03 0.000000000000000D+00 0.000000000000000D+00 0.243357663033612D+03
 0.320796551440057D+03 0.000000000000000D+00 0.000000000000000D+00 -.320796551440057D+03
 0.194991683769911D+03 -.236054594861264D+01 0.809216245047492D+02 -.152159862992058D+03
 0.867893083370749D+02 -.459652958586578D+02 -.917459480529306D+01 0.730438390859394D+02
 0.390474919418720D+02 0.307925937770384D+02 0.233690025718593D+02 0.551475423108694D+01
 0.123533818639062D+03 -.338597575892225D+02 -.195377307221436D+02 0.736012696750321D+02
 0.119791911785749D+03 0.513930056194546D+02 -.755783015491718D+02 -.774388884064450D+02
0.866001407726D-06 0.000000000000D+00 0.000000000000D+00 0.870346134273D-08 0.000000000000D+00  7 -2 2 23 -11 11 23 21 0 0.39593665D-02 0.28261131D+00 0.20899817D+05 0.20899817D+05 0.20899817D+05 0.11821870D+01  1  2  2  2  7  2        2 0.231683858606D-03 0.100000000000D+01
-.383673491536D-07 0.000000000000D+00 -.332567342908D-08 0.870346134273D-08 0.000000000000D+00  7 -2 2 23 -11 11 23 21 2 0.39593665D-02 0.28261131D+00 0.20899817D+05 0.20899817D+05 0.20899817D+05 0.11821870D+01  1  2  3  2  7  2        2 -.143453568333D-04 0.100000000000D+01
0.526201930087D-07 0.000000000000D+00 0.000000000000D+00 0.870346134273D-08 0.000000000000D+00  7 -2 2 23 -11 11 23 21 2 0.39593665D-02 0.28261131D+00 0.20899817D+05 0.20899817D+05 0.20899817D+05 0.11821870D+01  1  2 15  2  7  2        2 0.196744227058D-04 0.100000000000D+01
0.215926994211D-06 0.000000000000D+00 0.000000000000D+00 0.870346134273D-08 0.000000000000D+00  7 -2 2 23 -11 11 23 21 2 0.39593665D-02 0.42743282D+00 0.39616489D+05 0.39616489D+05 0.39616489D+05 0.11562952D+01  1  2 12  2  7  2        2 0.235337568814D-04 0.100000000000D+01
-.644755654114D-06 0.000000000000D+00 0.000000000000D+00 0.870346134273D-08 0.000000000000D+00  7 -2 2 23 -11 11 23 21 2 0.39593665D-02 0.28261131D+00 0.20899817D+05 0.20899817D+05 0.20899817D+05 0.11821870D+01  1  2  4  2  7  2        2 -.241070861882D-03 0.100000000000D+01
-.661225978343D-06 0.000000000000D+00 -.278379577992D-06 0.870346134273D-08 0.000000000000D+00  7 -2 2 23 -11 11 23 21 2 0.39593665D-02 0.43177517D+00 0.20899817D+05 0.20899817D+05 0.20899817D+05 0.11821870D+01  1  2  5  2  7  2        2 -.735621643111D-04 0.100000000000D+01
0.735423274863D-06 0.000000000000D+00 0.255120357094D-06 0.870346134273D-08 0.000000000000D+00  7 -2 2 23 -11 11 23 21 2 0.39593665D-02 0.28261131D+00 0.20899817D+05 0.20899817D+05 0.20899817D+05 0.11821870D+01  1  2  6  2  7  2        2 0.274971024430D-03 0.100000000000D+01
0.105367080894D-07 0.000000000000D+00 0.000000000000D+00 0.870346134273D-08 0.000000000000D+00  7 -2 21 23 -11 11 23 -2 2 0.39593665D-02 0.42743282D+00 0.39616489D+05 0.39616489D+05 0.39616489D+05 0.11562952D+01  1  2 12  4  7  2        2 0.112578442874D-06 0.100000000000D+01
-.225867050088D-07 0.000000000000D+00 -.138296674524D-07 0.870346134273D-08 0.000000000000D+00  7 -2 21 23 -11 11 23 -2 2 0.39593665D-02 0.43177517D+00 0.20899817D+05 0.20899817D+05 0.20899817D+05 0.11821870D+01  1  2  5  4  7  2        2 -.249677736689D-06 0.100000000000D+01
  </mgrwgt>
  </event>
  <event>
  8     66 0.53686478E-06 0.20814005E+03 0.75467711E-02 0.10110600E+00
       -2 -1    0    0    0  501 0.00000000E+00 0.00000000E+00 0.44625139E+03 0.44625150E+03 0.32000000E+00 0.0000E+00 0.9000E+01
        2 -1    0    0  501    0 0.00000000E+00 0.00000000E+00 -.12002713E+03 0.12002756E+03 0.32000000E+00 0.0000E+00 0.9000E+01
       25  2    1    2    0    0 -.55524069E+02 0.84640801E+02 0.27523146E+03 0.41929754E+03 0.29968498E+03 0.0000E+00 0.0000E+00
       23  2    1    2    0    0 0.55524069E+02 -.84640801E+02 0.50992803E+02 0.14698152E+03 0.93575176E+02 0.0000E+00 0.0000E+00
       23  1    3    3    0    0 -.92556244E+02 0.14795593E+03 0.14724918E+03 0.24587637E+03 0.91188000E+02 0.0000E+00 0.9000E+01
      -11  1    4    4    0    0 0.36510419E+02 -.41964369E+02 -.22412306E+02 0.59969412E+02 0.51099893E-03 0.0000E+00 0.9000E+01
       11  1    4    4    0    0 0.19013649E+02 -.42676432E+02 0.73405109E+02 0.87012107E+02 0.51099893E-03 0.0000E+00 0.9000E+01
       23  1    3    3    0    0 0.37032176E+02 -.63315131E+02 0.12798228E+03 0.17342117E+03 0.91188000E+02 0.0000E+00 0.9000E+01
#aMCatNLO 1  0  0  1  1 0.14836775D+03 0.00000000D+00  -5  7  0 0.00000000D+00 0.00000000D+00 0.00000000D+00 0.00000000D+00 0.00000000D+00
  <mgrwgt>
 0.2027733617D-03    3    2    0
 0.231435576413324D+03 0.000000000000000D+00 0.000000000000000D+00 0.231435576413324D+03
 0.231435576413324D+03 0.000000000000000D+00 0.000000000000000D+00 -.231435576413324D+03
 0.197027581151372D+03 -.925562446059686D+02 0.147955932110228D+03 0.685566394991513D+01
 0.891627396413031D+02 0.365104194037313D+02 -.419643691125753D+02 -.696848271884919D+02
 0.547163205888468D+02 0.190136496157260D+02 -.426764319134163D+02 0.284794491908009D+02
 0.121964511445126D+03 0.370321755865113D+02 -.633151310842364D+02 0.343497140477758D+02
 0.000000000000000D+00 -.000000000000000D+00 -.000000000000000D+00 -.000000000000000D+00
 0.247495048459853D+03 0.000000000000000D+00 0.000000000000000D+00 0.247495048459853D+03
 0.147674037580434D+04 0.000000000000000D+00 0.000000000000000D+00 -.147674037580434D+04
 0.231130842289302D+03 -.567795126785439D+02 0.204536797973262D+03 0.685566394991513D+01
 0.885166897343242D+02 0.513572353619613D+02 -.184841444813863D+02 -.696848271884919D+02
 0.491537091448068D+02 0.276929841928944D+02 -.289500729355378D+02 0.284794491908009D+02
 0.117267367566840D+03 0.570222875061268D+02 -.317007890195329D+02 0.343497140477758D+02
 0.123816681552892D+04 -.792929943824385D+02 -.125401791536805D+03 -.122924532734449D+04
0.265822522620D-05 0.000000000000D+00 0.000000000000D+00 0.359850152880D-07 0.000000000000D+00  7 -2 2 23 -11 11 23 21 0 0.68654101D-01 0.18465754D-01 0.43322281D+05 0.43322281D+05 0.43322281D+05 0.11528122D+01  1  2  2  1  7  1       -2 0.200308782265D-03 0.100000000000D+01
-.145658242654D-06 0.000000000000D+00 -.102082847954D-07 0.359850152880D-07 0.000000000000D+00  7 -2 2 23 -11 11 23 21 2 0.68654101D-01 0.18465754D-01 0.43322281D+05 0.43322281D+05 0.43322281D+05 0.11528122D+01  1  2  3  1  7  1       -2 -.145868135398D-04 0.100000000000D+01
0.170268573563D-06 0.000000000000D+00 0.000000000000D+00 0.359850152880D-07 0.000000000000D+00  7 -2 2 23 -11 11 23 21 2 0.68654101D-01 0.18465754D-01 0.43322281D+05 0.43322281D+05 0.43322281D+05 0.11528122D+01  1  2 15  1  7  1       -2 0.170513929661D-04 0.100000000000D+01
  </mgrwgt>
  </event>
  <event>
  8     66 0.53686478E-06 0.24394871E+03 0.75467711E-02 0.10194099E+00
       -4 -1    0    0    0  501 0.00000000E+00 0.00000000E+00 0.92552807E+02 0.92565785E+02 0.15500000E+01 0.0000E+00 0.9000E+01
        4 -1    0    0  501    0 0.00000000E+00 0.00000000E+00 -.78668400E+03 0.78668553E+03 0.15500000E+01 0.0000E+00 0.9000E+01
       25  2    1    2    0    0 0.15613248E+03 0.34945398E+02 -.32572964E+03 0.46719370E+03 0.29423057E+03 0.0000E+00 0.0000E+00
       23  2    1    2    0    0 -.15613248E+03 -.34945398E+02 -.36840156E+03 0.41205761E+03 0.92050191E+02 0.0000E+00 0.0000E+00
       23  1    3    3    0    0 -.39907147E+02 0.36446482E+02 -.51128909E+02 0.11768748E+03 0.91188000E+02 0.0000E+00 0.9000E+01
      -13  1    4    4    0    0 -.63944876E+02 0.71387292E+01 -.24004410E+03 0.24851778E+03 0.10565837E+00 0.0000E+00 0.9000E+01
       13  1    4    4    0    0 -.92187599E+02 -.42084127E+02 -.12835746E+03 0.16353983E+03 0.10565837E+00 0.0000E+00 0.9000E+01
       23  1    3    3    0    0 0.19603962E+03 -.15010839E+01 -.27460073E+03 0.34950622E+03 0.91188000E+02 0.0000E+00 0.9000E+01
#aMCatNLO 1  0  0  1  1 0.61093419D+02 0.00000000D+00  -5  7  0 0.00000000D+00 0.00000000D+00 0.00000000D+00 0.00000000D+00 0.00000000D+00
  <mgrwgt>
 0.4717586894D-05    4    2    0
 0.269844750276318D+03 0.000000000000000D+00 0.000000000000000D+00 0.269844750276318D+03
 0.269844750276318D+03 0.000000000000000D+00 0.000000000000000D+00 -.269844750276318D+03
 0.125973731263020D+03 -.399071405045844D+02 0.364464813500553D+02 0.680676410511996D+02
 0.961432230522562D+02 -.639448419567422D+02 0.713879271487965D+01 -.714395840173859D+02
 0.101346603322062D+03 -.921876384950777D+02 -.420841919268304D+02 0.122233525919751D+01
 0.216225942915299D+03 0.196039620956404D+03 -.150108213810447D+01 0.214960770698877D+01
 0.000000000000000D+00 -.000000000000000D+00 0.000000000000000D+00 -.000000000000000D+00
 0.296116457888770D+03 0.000000000000000D+00 0.000000000000000D+00 0.296116457888770D+03
 0.309579119729349D+03 0.000000000000000D+00 0.000000000000000D+00 -.309579119729349D+03
 0.121212817670659D+03 -.344450101023122D+02 0.236142614628778D+02 0.680676410511996D+02
 0.931786856450858D+02 -.597613580342842D+02 -.268949435148597D+01 -.714395840173859D+02
 0.102290095547723D+03 -.876878378031985D+02 -.526556041184264D+02 0.122233525919751D+01
 0.226454813884037D+03 0.205821625805152D+03 -.244820122719497D+02 0.214960770698877D+01
 0.625591648706141D+02 -.239274198653571D+02 0.562128492789843D+02 -.134626618405790D+02
0.263869312783D-05 0.000000000000D+00 0.000000000000D+00 0.170158762852D-08 0.000000000000D+00  7 -4 4 23 -13 13 23 21 0 0.14240009D-01 0.12102942D+00 0.59510973D+05 0.59510973D+05 0.59510973D+05 0.11407021D+01  1  2  2  1  7  1       -4 0.112631523700D-04 0.100000000000D+01
-.144779868509D-06 0.000000000000D+00 -.101332763947D-07 0.170158762852D-08 0.000000000000D+00  7 -4 4 23 -13 13 23 21 2 0.14240009D-01 0.12102942D+00 0.59510973D+05 0.59510973D+05 0.59510973D+05 0.11407021D+01  1  2  3  1  7  1       -4 -.804125300443D-06 0.100000000000D+01
0.166733468016D-06 0.000000000000D+00 0.000000000000D+00 0.170158762852D-08 0.000000000000D+00  7 -4 4 23 -13 13 23 21 2 0.14240009D-01 0.12102942D+00 0.59510973D+05 0.59510973D+05 0.59510973D+05 0.11407021D+01  1  2 15  1  7  1       -4 0.926058307986D-06 0.100000000000D+01
-.120045912400D-05 0.000000000000D+00 0.000000000000D+00 0.170158762852D-08 0.000000000000D+00  7 -4 4 23 -13 13 23 21 2 0.14240009D-01 0.12102942D+00 0.59510973D+05 0.59510973D+05 0.59510973D+05 0.11407021D+01  1  2  4  1  7  1       -4 -.666749848370D-05 0.100000000000D+01
  </mgrwgt>
  </event>
  <event>
  8     66 0.53686478E-06 0.17436452E+03 0.75467711E-02 0.98989792E-01
       -2 -1    0    0    0  501 0.00000000E+00 0.00000000E+00 0.59465175E+02 0.59466036E+02 0.32000000E+00 0.0000E+00 0.9000E+01
        2 -1    0    0  501    0 0.00000000E+00 0.00000000E+00 -.23395359E+04 0.23395360E+04 0.32000000E+00 0.0000E+00 0.9000E+01
       25  2    1    2    0    0 -.18134655E+03 -.22663412E+03 -.16101254E+04 0.16632022E+04 0.29914592E+03 0.0000E+00 0.0000E+00
       23  2    1    2    0    0 0.18134655E+03 0.22663412E+03 -.66994541E+03 0.73579981E+03 0.91240934E+02 0.0000E+00 0.0000E+00
       23  1    3    3    0    0 -.14992836E+03 -.62451985E+02 -.44176849E+03 0.47943031E+03 0.91188000E+02 0.0000E+00 0.9000E+01
      -11  1    4    4    0    0 0.18580569E+03 0.22039626E+03 -.66848978E+03 0.72799508E+03 0.51099893E-03 0.0000E+00 0.9000E+01
       11  1    4    4    0    0 -.44591378E+01 0.62378620E+01 -.14556365E+01 0.78047236E+01 0.51099893E-03 0.0000E+00 0.9000E+01
       23  1    3    3    0    0 -.31418185E+02 -.16418213E+03 -.11683569E+04 0.11837719E+04 0.91188000E+02 0.0000E+00 0.9000E+01
#aMCatNLO 1  0  0  2  1 0.19952272D+02 0.00000000D+00  -5  7  0 0.00000000D+00 0.00000000D+00 0.00000000D+00 0.00000000D+00 0.00000000D+00
  <mgrwgt>
 0.7090291969D-03    9    2    0
 0.372990582578424D+03 0.000000000000000D+00 0.000000000000000D+00 0.372990582578424D+03
 0.372990582578424D+03 0.000000000000000D+00 0.000000000000000D+00 -.372990582578424D+03
 0.191547509695840D+03 -.149928363421893D+03 -.624519852054957D+02 0.446814560215225D+02
 0.297940053898960D+03 0.185805686095660D+03 0.220396255720229D+03 0.752994900138104D+02
 0.206501102996903D+02 -.445913782185516D+01 0.623786201910120D+01 0.191737378386618D+02
 0.235843491262358D+03 -.314181848519118D+02 -.164182132533834D+03 -.139154683873995D+03
 0.000000000000000D+00 -.000000000000000D+00 -.000000000000000D+00 -.000000000000000D+00
 0.375911254673775D+03 0.000000000000000D+00 0.000000000000000D+00 0.375911254673775D+03
 0.408830169292468D+03 0.000000000000000D+00 0.000000000000000D+00 -.408830169292468D+03
 0.187406789451889D+03 -.144914560354440D+03 -.617202646927299D+02 0.446814560215225D+02
 0.303815409518177D+03 0.193767288312926D+03 0.221558181623277D+03 0.752994900138104D+02
 0.205635733112030D+02 -.391385493741752D+01 0.631744126591950D+01 0.191737378386618D+02
 0.234462170383756D+03 -.251957459607188D+02 -.163274022240138D+03 -.139154683873995D+03
 0.384934813012177D+02 -.197431270603498D+02 -.288133595632826D+01 -.329189146186938D+02
0.848842048751D-05 0.000000000000D+00 0.000000000000D+00 0.270101547669D-06 0.000000000000D+00  7 -2 2 23 -11 11 23 21 0 0.91485564D-02 0.35992868D+00 0.11310254D+06 0.11310254D+06 0.11310254D+06 0.11173603D+01  1  2  2  2  7  2        2 0.342900248991D-03 0.100000000000D+01
-.465433485850D-06 0.000000000000D+00 -.325977697245D-07 0.270101547669D-06 0.000000000000D+00  7 -2 2 23 -11 11 23 21 2 0.91485564D-02 0.35992868D+00 0.11310254D+06 0.11310254D+06 0.11310254D+06 0.11173603D+01  1  2  3  2  7  2        2 -.234738852949D-04 0.100000000000D+01
0.544769809100D-06 0.000000000000D+00 0.000000000000D+00 0.270101547669D-06 0.000000000000D+00  7 -2 2 23 -11 11 23 21 2 0.91485564D-02 0.35992868D+00 0.11310254D+06 0.11310254D+06 0.11310254D+06 0.11173603D+01  1  2 15  2  7  2        2 0.274751697068D-04 0.100000000000D+01
0.569172737821D-04 0.000000000000D+00 0.000000000000D+00 0.270101547669D-06 0.000000000000D+00  7 -2 2 23 -11 11 23 21 2 0.91485564D-02 0.39584074D+00 0.11986293D+06 0.11986293D+06 0.11986293D+06 0.11153217D+01  1  2 12  2  7  2        2 0.210498267987D-02 0.100000000000D+01
-.578645115043D-04 0.000000000000D+00 0.000000000000D+00 0.270101547669D-06 0.000000000000D+00  7 -2 2 23 -11 11 23 21 2 0.91485564D-02 0.35992868D+00 0.11310254D+06 0.11310254D+06 0.11310254D+06 0.11173603D+01  1  2  4  2  7  2        2 -.291836523799D-02 0.100000000000D+01
-.879961246588D-04 0.000000000000D+00 -.861833588897D-05 0.270101547669D-06 0.000000000000D+00  7 -2 2 23 -11 11 23 21 2 0.91485564D-02 0.39545299D+00 0.11310254D+06 0.11310254D+06 0.11310254D+06 0.11173603D+01  1  2  5  2  7  2        2 -.328362895618D-02 0.100000000000D+01
0.884532475195D-04 0.000000000000D+00 0.858029834813D-05 0.270101547669D-06 0.000000000000D+00  7 -2 2 23 -11 11 23 21 2 0.91485564D-02 0.35992868D+00 0.11310254D+06 0.11310254D+06 0.11310254D+06 0.11173603D+01  1  2  6  2  7  2        2 0.446109154017D-02 0.100000000000D+01
0.887834862182D-06 0.000000000000D+00 0.000000000000D+00 0.270101547669D-06 0.000000000000D+00  7 -2 21 23 -11 11 23 -2 2 0.91485564D-02 0.39584074D+00 0.11986293D+06 0.11986293D+06 0.11986293D+06 0.11153217D+01  1  2 12  4  7  2        2 0.374196770487D-05 0.100000000000D+01
-.133076641968D-05 0.000000000000D+00 -.132820832025D-06 0.270101547669D-06 0.000000000000D+00  7 -2 21 23 -11 11 23 -2 2 0.91485564D-02 0.39545299D+00 0.11310254D+06 0.11310254D+06 0.11310254D+06 0.11173603D+01  1  2  5  4  7  2        2 -.569433005816D-05 0.100000000000D+01
  </mgrwgt>
  </event>
  <event>
  8     66 0.53686478E-06 0.22826921E+03 0.75467711E-02 0.95675861E-01
       -2 -1    0    0    0  501 0.00000000E+00 0.00000000E+00 0.72477278E+02 0.72477984E+02 0.32000000E+00 0.0000E+00 0.9000E+01
        2 -1    0    0  501    0 0.00000000E+00 0.00000000E+00 -.13335363E+04 0.13335363E+04 0.32000000E+00 0.0000E+00 0.9000E+01
       25  2    1    2    0    0 0.68331827E+02 0.97866014E+02 -.11894795E+04 0.12330837E+04 0.30230261E+03 0.0000E+00 0.0000E+00
       23  2    1    2    0    0 -.68331827E+02 -.97866014E+02 -.71579526E+02 0.17293065E+03 0.10263716E+03 0.0000E+00 0.0000E+00
       23  1    3    3    0    0 0.13690152E+03 0.19906962E+02 -.85973798E+03 0.87555865E+03 0.91188000E+02 0.0000E+00 0.9000E+01
      -11  1    4    4    0    0 -.57031769E+01 0.19128649E+02 0.37907215E+01 0.20317505E+02 0.51099893E-03 0.0000E+00 0.9000E+01
       11  1    4    4    0    0 -.62628651E+02 -.11699466E+03 -.75370247E+02 0.15261315E+03 0.51099893E-03 0.0000E+00 0.9000E+01
       23  1    3    3    0    0 -.68569691E+02 0.77959052E+02 -.32974151E+03 0.35752501E+03 0.91188000E+02 0.0000E+00 0.9000E+01
#aMCatNLO 1  0  0  1  1 0.35796405D+03 0.00000000D+00  -5  7  0 0.00000000D+00 0.00000000D+00 0.00000000D+00 0.00000000D+00 0.00000000D+00
  <mgrwgt>
 0.2302094368D-03    5    2    0
 0.310888410504779D+03 0.000000000000000D+00 0.000000000000000D+00 0.310888410504779D+03
 0.310888410504779D+03 0.000000000000000D+00 0.000000000000000D+00 -.310888410504779D+03
 0.236206412634615D+03 0.136901518222678D+03 0.199069622377927D+02 -.168344602492931D+03
 0.536318251100502D+02 -.570317705225062D+01 0.191286478930810D+02 0.497789239129194D+02
 0.192239302073540D+03 -.626286505799587D+02 -.116994662241429D+03 0.139089361186501D+03
 0.139699281191353D+03 -.685696905904684D+02 0.779590521105549D+02 -.205236826064901D+02
 0.000000000000000D+00 0.000000000000000D+00 0.000000000000000D+00 0.000000000000000D+00
 0.580414317055846D+03 0.000000000000000D+00 0.000000000000000D+00 0.580414317055846D+03
 0.503232928844412D+03 0.000000000000000D+00 0.000000000000000D+00 -.503232928844412D+03
 0.192912875550171D+03 0.232521969091531D+02 0.442225727779334D+01 -.168344602492931D+03
 0.636513978738913D+02 -.367648399991000D+02 0.148965004350946D+02 0.497789239129194D+02
 0.266640541014406D+03 -.184159852199925D+03 -.133553272348108D+03 0.139089361186501D+03
 0.194252276828315D+03 -.157014486630925D+03 0.659084603770976D+02 -.205236826064901D+02
 0.366190154633473D+03 0.354686981920797D+03 0.483260542581225D+02 0.771813882114342D+02
0.181914202290D-05 0.000000000000D+00 0.000000000000D+00 0.371346256233D-09 0.000000000000D+00  7 -2 2 23 -11 11 23 21 0 0.11150408D-01 0.20515949D+00 0.52106833D+05 0.52106833D+05 0.52106833D+05 0.11457221D+01  1  2  2  1  7  1       -2 0.190983726049D-03 0.100000000000D+01
-.893378499360D-07 0.000000000000D+00 -.698598435902D-08 0.371346256233D-09 0.000000000000D+00  7 -2 2 23 -11 11 23 21 2 0.11150408D-01 0.20515949D+00 0.52106833D+05 0.52106833D+05 0.52106833D+05 0.11457221D+01  1  2  3  1  7  1       -2 -.123118640761D-04 0.100000000000D+01
0.110959684200D-06 0.000000000000D+00 0.000000000000D+00 0.371346256233D-09 0.000000000000D+00  7 -2 2 23 -11 11 23 21 2 0.11150408D-01 0.20515949D+00 0.52106833D+05 0.52106833D+05 0.52106833D+05 0.11457221D+01  1  2 15  1  7  1       -2 0.152916210853D-04 0.100000000000D+01
0.566993285499D-06 0.000000000000D+00 -.589909260450D-06 0.371346256233D-09 0.000000000000D+00  7 -2 2 23 -11 11 23 21 2 0.35248509D-01 0.20515949D+00 0.52106833D+05 0.52106833D+05 0.52106833D+05 0.11457221D+01  1  2  5  1  7  1       -2 0.117191951770D-04 0.100000000000D+01
0.101302322137D-06 0.000000000000D+00 -.780148098893D-07 0.371346256233D-09 0.000000000000D+00  7 21 2 23 -11 11 23 2 2 0.35248509D-01 0.20515949D+00 0.52106833D+05 0.52106833D+05 0.52106833D+05 0.11457221D+01  1  2  5  3  7  1       -2 0.245267585512D-04 0.100000000000D+01
  </mgrwgt>
  </event>
  <event>
  8     66 0.53686478E-06 0.34919428E+03 0.75467711E-02 0.98203409E-01
       -2 -1    0    0    0  501 0.00000000E+00 0.00000000E+00 0.82081631E+02 0.82082255E+02 0.32000000E+00 0.0000E+00 0.9000E+01
        2 -1    0    0  501    0 0.00000000E+00 0.00000000E+00 -.18748387E+04 0.18748387E+04 0.32000000E+00 0.0000E+00 0.9000E+01
       25  2    1    2    0    0 -.15992362E+03 -.22950624E+03 -.14332033E+04 0.14904798E+04 0.29867989E+03 0.0000E+00 0.0000E+00
       23  2    1    2    0    0 0.15992362E+03 0.22950624E+03 -.35955376E+03 0.46644116E+03 0.10019868E+03 0.0000E+00 0.0000E+00
       23  1    3    3    0    0 0.16291041E+02 0.87489864E+01 -.23340406E+03 0.25126609E+03 0.91188000E+02 0.0000E+00 0.9000E+01
      -13  1    4    4    0    0 0.10430447E+03 0.68089079E+02 -.12640586E+03 0.17746549E+03 0.10565837E+00 0.0000E+00 0.9000E+01
       13  1    4    4    0    0 0.55619150E+02 0.16141716E+03 -.23314789E+03 0.28897568E+03 0.10565837E+00 0.0000E+00 0.9000E+01
       23  1    3    3    0    0 -.17621466E+03 -.23825523E+03 -.11997993E+04 0.12392137E+04 0.91188000E+02 0.0000E+00 0.9000E+01
#aMCatNLO 1  0  0  2  2 0.38760729D+02 0.00000000D+00  -5  7  0 0.00000000D+00 0.00000000D+00 0.00000000D+00 0.00000000D+00 0.00000000D+00
  <mgrwgt>
 0.1670250506D-03    4    2    0
 0.392288739699600D+03 0.000000000000000D+00 0.000000000000000D+00 0.392288739699600D+03
 0.392288739699600D+03 0.000000000000000D+00 0.000000000000000D+00 -.392288739699600D+03
 0.933892601742620D+02 0.162910405137485D+02 0.874898547341019D+01 -.802245748268393D+01
 0.153803669579241D+03 0.104304515965629D+03 0.680889869508776D+02 0.902220958591596D+02
 0.188031221770956D+03 0.556191071104748D+02 0.161417260301123D+03 0.787827605621403D+02
 0.349353327874741D+03 -.176214663589852D+03 -.238255232725411D+03 -.160982398938616D+03
 0.000000000000000D+00 -.000000000000000D+00 0.000000000000000D+00 0.000000000000000D+00
 0.554735113134438D+03 0.000000000000000D+00 0.000000000000000D+00 0.554735113134438D+03
 0.395086143437198D+03 0.000000000000000D+00 0.000000000000000D+00 -.395086143437198D+03
 0.931042675849754D+02 0.164796725914300D+02 0.414895959880289D+01 -.802245748268393D+01
 0.150841381353826D+03 0.104612654428145D+03 0.605746504819341D+02 0.902220958591596D+02
 0.180405275602232D+03 0.559917685257435D+02 0.152329452046166D+03 0.787827605621403D+02
 0.361183425614768D+03 -.175495979002295D+03 -.255781242824436D+03 -.160982398938616D+03
 0.164286906415834D+03 -.158811654302410D+01 0.387281806975323D+02 0.159648969697240D+03
0.393805813141D-05 0.000000000000D+00 0.000000000000D+00 0.124659055444D-08 0.000000000000D+00  7 -2 2 23 -13 13 23 21 0 0.12627993D-01 0.28843677D+00 0.12193664D+06 0.12193664D+06 0.12193664D+06 0.11147215D+01  1  2  2  2  7  2        2 0.172305968201D-03 0.100000000000D+01
-.215178780372D-06 0.000000000000D+00 -.151231801391D-07 0.124659055444D-08 0.000000000000D+00  7 -2 2 23 -13 13 23 21 2 0.12627993D-01 0.28843677D+00 0.12193664D+06 0.12193664D+06 0.12193664D+06 0.11147215D+01  1  2  3  2  7  2        2 -.116990451267D-04 0.100000000000D+01
0.255190085242D-06 0.000000000000D+00 0.000000000000D+00 0.124659055444D-08 0.000000000000D+00  7 -2 2 23 -13 13 23 21 2 0.12627993D-01 0.28843677D+00 0.12193664D+06 0.12193664D+06 0.12193664D+06 0.11147215D+01  1  2 15  2  7  2        2 0.138744179048D-04 0.100000000000D+01
-.137142430233D-06 0.000000000000D+00 0.000000000000D+00 0.124659055444D-08 0.000000000000D+00  7 -2 2 23 -13 13 23 21 2 0.12627993D-01 0.28843677D+00 0.12193664D+06 0.12193664D+06 0.12193664D+06 0.11147215D+01  1  2  4  2  7  2        2 -.745629042655D-05 0.100000000000D+01
  </mgrwgt>
  </event>
  <event>
  8     66 0.53686478E-06 0.22605012E+03 0.75467711E-02 0.10336795E+00
       -2 -1    0    0    0  501 0.00000000E+00 0.00000000E+00 0.20731856E+02 0.20734326E+02 0.32000000E+00 0.0000E+00 0.9000E+01
        2 -1    0    0  501    0 0.00000000E+00 0.00000000E+00 -.32899415E+04 0.32899415E+04 0.32000000E+00 0.0000E+00 0.9000E+01
       25  2    1    2    0    0 -.13622059E+03 0.71923191E+02 -.23571202E+04 0.23811812E+04 0.30046443E+03 0.0000E+00 0.0000E+00
       23  2    1    2    0    0 0.13622059E+03 -.71923191E+02 -.91208938E+03 0.92949466E+03 0.91237579E+02 0.0000E+00 0.0000E+00
       23  1    3    3    0    0 -.17989545E+03 0.10155518E+03 -.13740979E+04 0.13925287E+04 0.91188000E+02 0.0000E+00 0.9000E+01
      -13  1    4    4    0    0 0.19758245E+02 0.62107735E+01 -.30800269E+02 0.37116434E+02 0.10565837E+00 0.0000E+00 0.9000E+01
       13  1    4    4    0    0 0.11646234E+03 -.78133964E+02 -.88128911E+03 0.89237823E+03 0.10565837E+00 0.0000E+00 0.9000E+01
       23  1    3    3    0    0 0.43674863E+02 -.29631987E+02 -.98302236E+03 0.98865250E+03 0.91188000E+02 0.0000E+00 0.9000E+01
#aMCatNLO 1  0  0  2  2 0.22849338D+01 0.00000000D+00  -5  7  0 0.00000000D+00 0.00000000D+00 0.00000000D+00 0.00000000D+00 0.00000000D+00
  <mgrwgt>
 0.7651349311D-03   10    2    0
 0.261171795833734D+03 0.000000000000000D+00 0.000000000000000D+00 0.261171795833734D+03
 0.261171795833734D+03 0.000000000000000D+00 0.000000000000000D+00 -.261171795833734D+03
 0.225899094502037D+03 -.179895452282579D+03 0.101555177514384D+03 0.627070338226778D+01
 0.424775504157986D+02 0.197581157527818D+02 0.621088578275163D+01 0.370861705898574D+02
 0.140245331960266D+03 0.116462476423890D+03 -.781340781967205D+02 -.557266730474829D+00
 0.113721614789368D+03 0.436748601059072D+02 -.296319851004154D+02 -.427996072416503D+02
 0.000000000000000D+00 0.000000000000000D+00 0.000000000000000D+00 -.000000000000000D+00
 0.262048619090031D+03 0.000000000000000D+00 0.000000000000000D+00 0.262048619090031D+03
 0.262667139248194D+03 0.000000000000000D+00 0.000000000000000D+00 -.262667139248194D+03
 0.226050969197387D+03 -.180517293918401D+03 0.100786775950752D+03 0.627070338226778D+01
 0.424024663819178D+02 0.196413286722311D+02 0.606657351715608D+01 0.370861705898574D+02
 0.140191875998493D+03 0.116076620670900D+03 -.786108750962106D+02 -.557266730474829D+00
 0.113703277659731D+03 0.433619444134307D+02 -.300186509226003D+02 -.427996072416503D+02
 0.236716910069579D+01 0.143740016183968D+01 0.177617655090302D+01 -.618520158163377D+00
0.277151837114D-05 0.000000000000D+00 0.000000000000D+00 0.176116379699D-06 0.000000000000D+00  7 -2 2 23 -13 13 23 21 0 0.31897075D-02 0.50614503D+00 0.60547469D+05 0.60547469D+05 0.60547469D+05 0.11400547D+01  1  2  2  2  7  2        2 0.147729377721D-03 0.100000000000D+01
-.153308537926D-06 0.000000000000D+00 -.106433603027D-07 0.176116379699D-06 0.000000000000D+00  7 -2 2 23 -13 13 23 21 2 0.31897075D-02 0.50614503D+00 0.60547469D+05 0.60547469D+05 0.60547469D+05 0.11400547D+01  1  2  3  2  7  2        2 -.106210339620D-04 0.100000000000D+01
0.182409029513D-06 0.000000000000D+00 0.000000000000D+00 0.176116379699D-06 0.000000000000D+00  7 -2 2 23 -13 13 23 21 2 0.31897075D-02 0.50614503D+00 0.60547469D+05 0.60547469D+05 0.60547469D+05 0.11400547D+01  1  2 15  2  7  2        2 0.126370815588D-04 0.100000000000D+01
-.429052575691D-04 0.000000000000D+00 0.000000000000D+00 0.176116379699D-06 0.000000000000D+00  7 -2 2 23 -13 13 23 21 2 0.31897075D-02 0.50614503D+00 0.60547469D+05 0.60547469D+05 0.60547469D+05 0.11400547D+01  1  2  4  2  7  2        2 -.297242543667D-02 0.100000000000D+01
-.306816946793D-03 0.000000000000D+00 -.290802097751D-04 0.176116379699D-06 0.000000000000D+00  7 -2 2 23 -13 13 23 21 2 0.31897075D-02 0.50954749D+00 0.60547469D+05 0.60547469D+05 0.60547469D+05 0.11400547D+01  1  2  5  2  7  2        2 -.205525532808D-01 0.100000000000D+01
0.307014963632D-03 0.000000000000D+00 0.290844193197D-04 0.176116379699D-06 0.000000000000D+00  7 -2 2 23 -13 13 23 21 2 0.31897075D-02 0.50614503D+00 0.60547469D+05 0.60547469D+05 0.60547469D+05 0.11400547D+01  1  2  6  2  7  2        2 0.212696331183D-01 0.100000000000D+01
0.429057243552D-04 0.000000000000D+00 0.000000000000D+00 0.176116379699D-06 0.233696233819D-06  7 -2 2 23 -13 13 23 21 2 0.32004162D-02 0.50904298D+00 0.61092290D+05 0.61092290D+05 0.61092290D+05 0.11397192D+01  1  2 11  2  7  2        2 0.287178118953D-02 0.100000000000D+01
0.187903060899D-09 0.000000000000D+00 0.000000000000D+00 0.176116379699D-06 0.000000000000D+00  7 -2 21 23 -13 13 23 -2 2 0.31897075D-02 0.50988875D+00 0.61092290D+05 0.61092290D+05 0.61092290D+05 0.11397192D+01  1  2 12  4  7  2        2 0.620195919762D-09 0.100000000000D+01
-.381096832186D-06 0.000000000000D+00 -.361664886706D-07 0.176116379699D-06 0.000000000000D+00  7 -2 21 23 -13 13 23 -2 2 0.31897075D-02 0.50954749D+00 0.60547469D+05 0.60547469D+05 0.60547469D+05 0.11400547D+01  1  2  5  4  7  2        2 -.126770874545D-05 0.100000000000D+01
0.662386911106D-07 0.000000000000D+00 0.000000000000D+00 0.176116379699D-06 0.248850816943D-09  7 -2 21 23 -13 13 23 -2 2 0.32004162D-02 0.50904298D+00 0.61092290D+05 0.61092290D+05 0.61092290D+05 0.11397192D+01  1  2 11  4  7  2        2 0.221004006784D-06 0.100000000000D+01
  </mgrwgt>
  </event>
  <event>
  8     66 0.53686478E-06 0.21898892E+03 0.75467711E-02 0.93339201E-01
       -2 -1    0    0    0  501 0.00000000E+00 0.00000000E+00 0.67479463E+02 0.67480221E+02 0.32000000E+00 0.0000E+00 0.9000E+01
        2 -1    0    0  501    0 0.00000000E+00 0.00000000E+00 -.13581241E+04 0.13581242E+04 0.32000000E+00 0.0000E+00 0.9000E+01
       25  2    1    2    0    0 0.61143853E+02 0.15365615E+03 -.45611950E+03 0.57039026E+03 0.29991876E+03 0.0000E+00 0.0000E+00
       23  2    1    2    0    0 -.61143853E+02 -.15365615E+03 -.83452518E+03 0.85521415E+03 0.87236362E+02 0.0000E+00 0.0000E+00
       23  1    3    3    0    0 0.28995676E+02 0.27664810E+02 -.13967160E+02 0.10058043E+03 0.91188000E+02 0.0000E+00 0.9000E+01
      -13  1    4    4    0    0 -.70293721E+02 -.15510613E+03 -.82296778E+03 0.84040175E+03 0.10565837E+00 0.0000E+00 0.9000E+01
       13  1    4    4    0    0 0.91498679E+01 0.14499886E+01 -.11557397E+02 0.14812398E+02 0.10565837E+00 0.0000E+00 0.9000E+01
       23  1    3    3    0    0 0.32148177E+02 0.12599134E+03 -.44215234E+03 0.46980982E+03 0.91188000E+02 0.0000E+00 0.9000E+01
#aMCatNLO 1  0  0  2  2 0.46964165D+03 0.00000000D+00  -5  7  0 0.00000000D+00 0.00000000D+00 0.00000000D+00 0.00000000D+00 0.00000000D+00
  <mgrwgt>
 0.5437280685D-03    3    2    0
 0.302730994496229D+03 0.000000000000000D+00 0.000000000000000D+00 0.302730994496229D+03
 0.302730994496229D+03 0.000000000000000D+00 0.000000000000000D+00 -.302730994496229D+03
 0.207050603006126D+03 0.289956761763765D+02 0.276648104150333D+02 0.181517519509758D+03
 0.224492432234950D+03 -.702938373265735D+02 -.155106364366725D+03 -.146279336536661D+03
 0.102400088885880D+02 0.914998379963262D+01 0.145021773758356D+01 0.436261928414798D+01
 0.163678944862793D+03 0.321481773505644D+02 0.125991336214108D+03 -.396008022572457D+02
 0.000000000000000D+00 -.000000000000000D+00 0.000000000000000D+00 0.000000000000000D+00
 0.104795387817181D+04 0.000000000000000D+00 0.000000000000000D+00 0.104795387817181D+04
 0.466067967149867D+03 0.000000000000000D+00 0.000000000000000D+00 -.466067967149867D+03
 0.252792951799222D+03 0.988853931300675D+02 -.113411173487889D+03 0.181517519509758D+03
 0.367714485590095D+03 0.197132388459526D+02 -.336790271280786D+03 -.146279336536661D+03
 0.151021380197230D+02 0.130016317262203D+02 -.632453146122986D+01 0.436261928414798D+01
 0.130645932049358D+03 0.768813961265186D+02 0.356950361712280D+02 -.396008022572457D+02
 0.747766337863282D+03 -.208481659828759D+03 0.420830940058677D+03 0.581885911021945D+03
0.472197289944D-05 0.000000000000D+00 0.000000000000D+00 0.487311141546D-07 0.000000000000D+00  7 -2 2 23 -13 13 23 21 0 0.10381517D-01 0.20894224D+00 0.47956145D+05 0.47956145D+05 0.47956145D+05 0.11488931D+01  1  2  2  2  7  2        2 0.536930565090D-03 0.100000000000D+01
-.228885443183D-06 0.000000000000D+00 -.181336192579D-07 0.487311141546D-07 0.000000000000D+00  7 -2 2 23 -13 13 23 21 2 0.10381517D-01 0.20894224D+00 0.47956145D+05 0.47956145D+05 0.47956145D+05 0.11488931D+01  1  2  3  2  7  2        2 -.343535863448D-04 0.100000000000D+01
0.274174734818D-06 0.000000000000D+00 0.000000000000D+00 0.487311141546D-07 0.000000000000D+00  7 -2 2 23 -13 13 23 21 2 0.10381517D-01 0.20894224D+00 0.47956145D+05 0.47956145D+05 0.47956145D+05 0.11488931D+01  1  2 15  2  7  2        2 0.411510897991D-04 0.100000000000D+01
  </mgrwgt>
  </event>
  <event>
  8     66 0.53686478E-06 0.44343691E+03 0.75467711E-02 0.86002918E-01
       -2 -1    0    0    0  501 0.00000000E+00 0.00000000E+00 0.24349711E+03 0.24349732E+03 0.32000000E+00 0.0000E+00 0.9000E+01
        2 -1    0    0  501    0 0.00000000E+00 0.00000000E+00 -.90171562E+03 0.90171567E+03 0.32000000E+00 0.0000E+00 0.9000E+01
       25  2    1    2    0    0 -.14852399E+02 0.41247012E+03 -.30201758E+03 0.59256956E+03 0.29928559E+03 0.0000E+00 0.0000E+00
       23  2    1    2    0    0 0.14852399E+02 -.41247012E+03 -.35620093E+03 0.55264343E+03 0.90462548E+02 0.0000E+00 0.0000E+00
       23  1    3    3    0    0 -.53072506E+02 0.10587478E+03 -.20959002E+03 0.25742842E+03 0.91188000E+02 0.0000E+00 0.9000E+01
      -11  1    4    4    0    0 0.31418282E+02 -.25957635E+03 -.17333704E+03 0.31370802E+03 0.51099893E-03 0.0000E+00 0.9000E+01
       11  1    4    4    0    0 -.16565884E+02 -.15289377E+03 -.18286389E+03 0.23893542E+03 0.51099893E-03 0.0000E+00 0.9000E+01
       23  1    3    3    0    0 0.38220108E+02 0.30659534E+03 -.92427557E+02 0.33514114E+03 0.91188000E+02 0.0000E+00 0.9000E+01
#aMCatNLO 1  0  0  2  2 0.98326784D+03 0.00000000D+00  -5  7  0 0.00000000D+00 0.00000000D+00 0.00000000D+00 0.00000000D+00 0.00000000D+00
  <mgrwgt>
 0.2116795149D-03    3    2    0
 0.468577950796338D+03 0.000000000000000D+00 0.000000000000000D+00 0.468577950796338D+03
 0.468577950796338D+03 0.000000000000000D+00 0.000000000000000D+00 -.468577950796338D+03
 0.167372719652793D+03 -.530725064040401D+02 0.105874778146620D+03 -.753141179087254D+02
 0.261609456734431D+03 0.314182824248929D+02 -.259576349606294D+03 0.851575642117939D+01
 0.163545412624453D+03 -.165658838006412D+02 -.152893767609213D+03 -.556432323887282D+02
 0.344628312580999D+03 0.382201077797884D+02 0.306595339068887D+03 0.122441593876274D+03
 0.000000000000000D+00 0.000000000000000D+00 -.000000000000000D+00 0.000000000000000D+00
 0.118465784879582D+04 0.000000000000000D+00 0.000000000000000D+00 0.118465784879582D+04
 0.115732585191066D+04 0.000000000000000D+00 0.000000000000000D+00 -.115732585191066D+04
 0.346293722999556D+03 -.243728202864569D+03 0.215704515522812D+03 -.753141179087254D+02
 0.214672808034895D+03 -.145361665341428D+03 -.157739920918355D+03 0.851575642117939D+01
 0.172033206211487D+03 -.141121373470288D+03 -.811419292264963D+02 -.556432323887282D+02
 0.625336317418275D+03 -.321798119456738D+03 0.513988603902260D+03 0.122441593876274D+03
 0.983647646042267D+03 0.852009361133023D+03 -.490811269280221D+03 0.273319968851586D+02
0.861158609802D-05 0.000000000000D+00 0.000000000000D+00 0.346145109973D-06 0.000000000000D+00  7 -2 2 23 -11 11 23 21 0 0.37461114D-01 0.13872550D+00 0.19663629D+06 0.19663629D+06 0.19663629D+06 0.10983916D+01  1  2  2  2  7  2        2 0.209902453224D-03 0.100000000000D+01
-.476652420437D-06 0.000000000000D+00 -.330707580991D-07 0.346145109973D-06 0.000000000000D+00  7 -2 2 23 -11 11 23 21 2 0.37461114D-01 0.13872550D+00 0.19663629D+06 0.19663629D+06 0.19663629D+06 0.10983916D+01  1  2  3  2  7  2        2 -.140168544190D-04 0.100000000000D+01
0.537082580240D-06 0.000000000000D+00 0.000000000000D+00 0.346145109973D-06 0.000000000000D+00  7 -2 2 23 -11 11 23 21 2 0.37461114D-01 0.13872550D+00 0.19663629D+06 0.19663629D+06 0.19663629D+06 0.10983916D+01  1  2 15  2  7  2        2 0.157939161020D-04 0.100000000000D+01
  </mgrwgt>
  </event>
  <event>
  8     66 0.53686478E-06 0.30287970E+03 0.75467711E-02 0.98945609E-01
       -4 -1    0    0    0  501 0.00000000E+00 0.00000000E+00 0.79485002E+02 0.79500113E+02 0.15500000E+01 0.0000E+00 0.9000E+01
        4 -1    0    0  501    0 0.00000000E+00 0.00000000E+00 -.12369511E+04 0.12369520E+04 0.15500000E+01 0.0000E+00 0.9000E+01
       25  2    1    2    0    0 0.11035505E+03 -.20118192E+03 -.65172835E+03 0.75329928E+03 0.30009591E+03 0.0000E+00 0.0000E+00
       23  2    1    2    0    0 -.11035505E+03 0.20118192E+03 -.50573770E+03 0.56315286E+03 0.93370884E+02 0.0000E+00 0.0000E+00
       23  1    3    3    0    0 0.60845735E+02 0.22653332E+02 -.32599469E+03 0.34467835E+03 0.91188000E+02 0.0000E+00 0.9000E+01
      -13  1    4    4    0    0 0.11292593E+02 0.58605142E+02 -.13997149E+03 0.15216476E+03 0.10565837E+00 0.0000E+00 0.9000E+01
       13  1    4    4    0    0 -.12164765E+03 0.14257678E+03 -.36576621E+03 0.41098810E+03 0.10565837E+00 0.0000E+00 0.9000E+01
       23  1    3    3    0    0 0.49509317E+02 -.22383525E+03 -.32573367E+03 0.40862093E+03 0.91188000E+02 0.0000E+00 0.9000E+01
#aMCatNLO 1  0  0  1  2 0.84247618D+02 0.00000000D+00  -5  7  0 0.00000000D+00 0.00000000D+00 0.00000000D+00 0.00000000D+00 0.00000000D+00
  <mgrwgt>
 0.1046329033D-05    4    2    0
 0.313575577132713D+03 0.000000000000000D+00 0.000000000000000D+00 0.313575577132713D+03
 0.313575577132713D+03 0.000000000000000D+00 0.000000000000000D+00 -.313575577132713D+03
 0.121860201820069D+03 0.608457359603901D+02 0.226533314605094D+02 -.481589081355326D+02
 0.610782168226481D+02 0.112927575098836D+02 0.586050336360286D+02 -.129796853034788D+02
 0.187649009707362D+03 -.121647811705727D+03 0.142576886052407D+03 -.926241410004846D+01
 0.256563725915347D+03 0.495093182354530D+02 -.223835251148945D+03 0.704010075390598D+02
 0.000000000000000D+00 0.000000000000000D+00 -.000000000000000D+00 -.000000000000000D+00
 0.349584645038883D+03 0.000000000000000D+00 0.000000000000000D+00 0.349584645038883D+03
 0.369850747223307D+03 0.000000000000000D+00 0.000000000000000D+00 -.369850747223307D+03
 0.125624130814822D+03 0.600953098293867D+02 0.391847445147065D+02 -.481589081355326D+02
 0.694225969722955D+02 0.108970507605056D+02 0.673222030575604D+02 -.129796853034788D+02
 0.209208791963809D+03 -.122851170566855D+03 0.169086120691052D+03 -.926241410004846D+01
 0.228528986565340D+03 0.480384120026053D+02 -.191432117123367D+03 0.704010075390598D+02
 0.866508859459234D+02 0.382039797435743D+01 -.841609511399523D+02 -.202661021844238D+02
0.150124189101D-05 0.000000000000D+00 0.000000000000D+00 0.561133347141D-07 0.000000000000D+00  7 -4 4 23 -13 13 23 21 0 0.12229699D-01 0.19030140D+00 0.91736115D+05 0.91736115D+05 0.91736115D+05 0.11248091D+01  1  2  2  1  7  1       -4 0.192679706852D-05 0.100000000000D+01
-.832801934023D-07 0.000000000000D+00 -.576516414754D-08 0.561133347141D-07 0.000000000000D+00  7 -4 4 23 -13 13 23 21 2 0.12229699D-01 0.19030140D+00 0.91736115D+05 0.91736115D+05 0.91736115D+05 0.11248091D+01  1  2  3  1  7  1       -4 -.135233610148D-06 0.100000000000D+01
0.968836712911D-07 0.000000000000D+00 0.000000000000D+00 0.561133347141D-07 0.000000000000D+00  7 -4 4 23 -13 13 23 21 2 0.12229699D-01 0.19030140D+00 0.91736115D+05 0.91736115D+05 0.91736115D+05 0.11248091D+01  1  2 15  1  7  1       -4 0.157323465494D-06 0.100000000000D+01
-.555817415779D-06 0.000000000000D+00 0.000000000000D+00 0.561133347141D-07 0.000000000000D+00  7 -4 4 23 -13 13 23 21 2 0.12229699D-01 0.19030140D+00 0.91736115D+05 0.91736115D+05 0.91736115D+05 0.11248091D+01  1  2  4  1  7  1       -4 -.902557890993D-06 0.100000000000D+01
  </mgrwgt>
  </event>
  <event>
  8     66 0.53686478E-06 0.27193745E+03 0.75467711E-02 0.95513502E-01
       -2 -1    0    0    0  501 0.00000000E+00 0.00000000E+00 0.77131612E+02 0.77132275E+02 0.32000000E+00 0.0000E+00 0.9000E+01
        2 -1    0    0  501    0 0.00000000E+00 0.00000000E+00 -.12061478E+04 0.12061478E+04 0.32000000E+00 0.0000E+00 0.9000E+01
       25  2    1    2    0    0 0.17666593E+03 0.85102496E+01 -.96023179E+03 0.10205175E+04 0.29686287E+03 0.0000E+00 0.0000E+00
       23  2    1    2    0    0 -.17666593E+03 -.85102496E+01 -.16878439E+03 0.26276263E+03 0.96295143E+02 0.0000E+00 0.0000E+00
       23  1    3    3    0    0 0.34351269E+02 -.10242284E+03 -.45025967E+03 0.47193163E+03 0.91188000E+02 0.0000E+00 0.9000E+01
      -11  1    4    4    0    0 -.18122374E+03 -.25254798E+02 -.16107901E+03 0.24377509E+03 0.51099893E-03 0.0000E+00 0.9000E+01
       11  1    4    4    0    0 0.45578137E+01 0.16744548E+02 -.77053776E+01 0.18987533E+02 0.51099893E-03 0.0000E+00 0.9000E+01
       23  1    3    3    0    0 0.14231466E+03 0.11093309E+03 -.50997212E+03 0.54858585E+03 0.91188000E+02 0.0000E+00 0.9000E+01
#aMCatNLO 1  0  0  2  2 0.30417212D+03 0.00000000D+00  -5  7  0 0.00000000D+00 0.00000000D+00 0.00000000D+00 0.00000000D+00 0.00000000D+00
  <mgrwgt>
 0.4544643088D-03    3    2    0
 0.305012419486504D+03 0.000000000000000D+00 0.000000000000000D+00 0.305012419486504D+03
 0.305012419486504D+03 0.000000000000000D+00 0.000000000000000D+00 -.305012419486504D+03
 0.159452572896112D+03 0.343512694521834D+02 -.102422842831384D+03 -.737524454682750D+02
 0.214697684591580D+03 -.181223740745322D+03 -.252547979395575D+02 0.112317615449625D+03
 0.256822779111419D+02 0.455781371708758D+01 0.167445483319069D+02 0.189321375968455D+02
 0.210192303574174D+03 0.142314657576051D+03 0.110933092439035D+03 -.574973075781956D+02
 0.000000000000000D+00 0.000000000000000D+00 0.000000000000000D+00 0.000000000000000D+00
 0.521229842266187D+03 0.000000000000000D+00 0.000000000000000D+00 0.521229842266187D+03
 0.469040250762466D+03 0.000000000000000D+00 0.000000000000000D+00 -.469040250762466D+03
 0.223421093412833D+03 0.120472143445993D+02 -.189781914448586D+03 -.737524454682750D+02
 0.274462149237749D+03 -.209719427051788D+03 -.136864847718414D+03 0.112317615449625D+03
 0.200459500568693D+02 0.189394569397914D+01 0.631088340922777D+01 0.189321375968455D+02
 0.163723932714479D+03 0.120532411697921D+03 0.256178092552153D+02 -.574973075781956D+02
 0.308616967606722D+03 0.752458553152882D+02 0.294718069502557D+03 0.521895915037211D+02
0.402517080118D-05 0.000000000000D+00 0.000000000000D+00 0.958828085350D-09 0.000000000000D+00  7 -2 2 23 -11 11 23 21 0 0.11866456D-01 0.18556125D+00 0.73949974D+05 0.73949974D+05 0.73949974D+05 0.11326385D+01  1  2  2  2  7  2        2 0.450282519353D-03 0.100000000000D+01
-.220038571474D-06 0.000000000000D+00 -.154577157283D-07 0.958828085350D-09 0.000000000000D+00  7 -2 2 23 -11 11 23 21 2 0.11866456D-01 0.18556125D+00 0.73949974D+05 0.73949974D+05 0.73949974D+05 0.11326385D+01  1  2  3  2  7  2        2 -.315778284394D-04 0.100000000000D+01
0.249177845105D-06 0.000000000000D+00 0.000000000000D+00 0.958828085350D-09 0.000000000000D+00  7 -2 2 23 -11 11 23 21 2 0.11866456D-01 0.18556125D+00 0.73949974D+05 0.73949974D+05 0.73949974D+05 0.11326385D+01  1  2 15  2  7  2        2 0.357596179203D-04 0.100000000000D+01
  </mgrwgt>
  </event>
  <event>
  9     66 0.53686478E-06 0.31600625E+03 0.75467711E-02 0.99802008E-01
       -2 -1    0    0    0  501 0.00000000E+00 0.00000000E+00 0.19173838E+03 0.19173864E+03 0.32000000E+00 0.0000E+00 0.9000E+01
        2 -1    0    0  502    0 0.00000000E+00 0.00000000E+00 -.58471157E+03 0.58471165E+03 0.32000000E+00 0.0000E+00 0.9000E+01
       25  2    1    2    0    0 0.21565765E+03 -.12144485E+03 -.25236001E+03 0.46321080E+03 0.29936867E+03 0.0000E+00 0.0000E+00
       23  2    1    2    0    0 -.22272643E+03 0.10631652E+03 -.13619923E+03 0.29595136E+03 0.90148280E+02 0.0000E+00 0.0000E+00
       23  1    3    3    0    0 -.35073110E+02 -.26463631E+02 -.38351854E+02 0.10824307E+03 0.91188000E+02 0.0000E+00 0.9000E+01
      -13  1    4    4    0    0 -.58927756E+02 0.17177650E+02 0.56649037E+01 0.61641336E+02 0.10565837E+00 0.0000E+00 0.9000E+01
       13  1    4    4    0    0 -.16379868E+03 0.89138866E+02 -.14186413E+03 0.23431002E+03 0.10565837E+00 0.0000E+00 0.9000E+01
       23  1    3    3    0    0 0.25073076E+03 -.94981219E+02 -.21400816E+03 0.35496773E+03 0.91188000E+02 0.0000E+00 0.9000E+01
       21  1    1    2  502  501 0.70687856E+01 0.15128335E+02 -.44139484E+01 0.17288138E+02 0.75000000E+00 0.0000E+00 0.9000E+01
#aMCatNLO 2  0  0  2  2 0.16698331D+02 0.00000000D+00  -5  7  0 0.00000000D+00 0.00000000D+00 0.00000000D+00 0.00000000D+00 0.00000000D+00
  <mgrwgt>
 0.1523231862D-03    2    2    0
 0.325986989632896D+03 0.000000000000000D+00 0.000000000000000D+00 0.325986989632896D+03
 0.325986989632896D+03 0.000000000000000D+00 0.000000000000000D+00 -.325986989632896D+03
 0.102187825225530D+03 -.339601516831870D+02 -.240817226784560D+02 0.198463853337686D+02
 0.749111804660146D+02 -.581143793183181D+02 0.189179990340721D+02 0.433187394530969D+02
 0.188577237001626D+03 -.161756498152031D+03 0.935098650413565D+02 -.255365377588006D+02
 0.286297736572621D+03 0.253831029153536D+03 -.883461413969727D+02 -.376285870280650D+02
 0.000000000000000D+00 0.000000000000000D+00 0.000000000000000D+00 0.000000000000000D+00
 0.337413781073080D+03 0.000000000000000D+00 0.000000000000000D+00 0.337413781073080D+03
 0.332251951802130D+03 0.000000000000000D+00 0.000000000000000D+00 -.332251951802130D+03
 0.103148326007729D+03 -.350731096621706D+02 -.264636313079991D+02 0.198463853337686D+02
 0.751268585895633D+02 -.589276118237247D+02 0.171775510036606D+02 0.433187394530969D+02
 0.188223069303228D+03 -.163798821945804D+03 0.891389644677772D+02 -.255365377588006D+02
 0.285689528797564D+03 0.250730757783652D+03 -.949812195124980D+02 -.376285870280650D+02
 0.174779501771254D+02 0.706878564804787D+01 0.151283353490593D+02 0.516182927094987D+01
-.172547147753D-05 0.000000000000D+00 0.000000000000D+00 0.160896879652D-06 0.000000000000D+00  7 -2 2 23 -13 13 23 21 2 0.28498571D-01 0.88257319D-01 0.99859947D+05 0.99859947D+05 0.99859947D+05 0.11217720D+01  1  2  8  2  7  2        2 -.151899288001D-03 0.100000000000D+01
0.376481521018D-05 0.000000000000D+00 0.000000000000D+00 0.160896879652D-06 0.386043144435D-08  7 -2 2 23 -13 13 23 21 2 0.29497529D-01 0.89953487D-01 0.10529472D+06 0.10529472D+06 0.10529472D+06 0.11198880D+01  1  2  1  2  7  2        2 0.304222474212D-03 0.100000000000D+01
  </mgrwgt>
  </event>
  <event>
  8     66 0.53686478E-06 0.26806020E+03 0.75467711E-02 0.89807842E-01
       -2 -1    0    0    0  501 0.00000000E+00 0.00000000E+00 0.49858482E+03 0.49858492E+03 0.32000000E+00 0.0000E+00 0.9000E+01
        2 -1    0    0  501    0 0.00000000E+00 0.00000000E+00 -.19857215E+03 0.19857241E+03 0.32000000E+00 0.0000E+00 0.9000E+01
       25  2    1    2    0    0 -.92124133E+02 -.16464543E+03 0.33412100E+03 0.48787856E+03 0.30131989E+03 0.0000E+00 0.0000E+00
       23  2    1    2    0    0 0.92124133E+02 0.16464543E+03 -.34108332E+02 0.20927877E+03 0.83900249E+02 0.0000E+00 0.0000E+00
       23  1    3    3    0    0 -.99723783E+02 0.95816599E+01 0.54662782E+02 0.14608187E+03 0.91188000E+02 0.0000E+00 0.9000E+01
      -11  1    4    4    0    0 0.77766538E+02 0.59977486E+02 0.17032038E+00 0.98208769E+02 0.51099893E-03 0.0000E+00 0.9000E+01
       11  1    4    4    0    0 0.14357595E+02 0.10466795E+03 -.34278653E+02 0.11107000E+03 0.51099893E-03 0.0000E+00 0.9000E+01
       23  1    3    3    0    0 0.75996500E+01 -.17422709E+03 0.27945821E+03 0.34179669E+03 0.91188000E+02 0.0000E+00 0.9000E+01
#aMCatNLO 1  0  0  1  2 0.71171797D+03 0.00000000D+00  -5  7  0 0.00000000D+00 0.00000000D+00 0.00000000D+00 0.00000000D+00 0.00000000D+00
  <mgrwgt>
 0.2497554056D-03    3    2    0
 0.314650896220746D+03 0.000000000000000D+00 0.000000000000000D+00 0.314650896220746D+03
 0.314650896220746D+03 0.000000000000000D+00 0.000000000000000D+00 -.314650896220746D+03
 0.135773518197201D+03 -.997237828242849D+02 0.958165988215146D+01 -.908602403493004D+01
 0.108717098250428D+03 0.777665382412148D+02 0.599774855171142D+02 -.466312578965566D+02
 0.139388282969430D+03 0.143575945529434D+02 0.104667945743931D+03 -.909262010729837D+02
 0.245422893024433D+03 0.759965003012663D+01 -.174227091143196D+03 0.146643483004470D+03
 0.000000000000000D+00 0.000000000000000D+00 0.000000000000000D+00 -.000000000000000D+00
 0.699187201097877D+03 0.000000000000000D+00 0.000000000000000D+00 0.699187201097877D+03
 0.103992405624991D+04 0.000000000000000D+00 0.000000000000000D+00 -.103992405624991D+04
 0.265096557702852D+03 -.209790315327258D+03 -.133665258478140D+03 -.908602403493004D+01
 0.567511066157827D+02 0.323340835781330D+02 0.849074945496106D+00 -.466312578965566D+02
 0.106669275859403D+03 -.532022058028913D+02 0.167417343340413D+02 -.909262010729837D+02
 0.521516329109276D+03 -.202978155337993D+03 -.448285163184683D+03 0.146643483004470D+03
 0.789077988060474D+03 0.433636592890009D+03 0.564359612383285D+03 -.340736855152033D+03
0.746494715072D-05 0.000000000000D+00 0.000000000000D+00 0.138170570593D-08 0.000000000000D+00  7 -2 2 23 -11 11 23 21 0 0.76705384D-01 0.30549590D-01 0.71856270D+05 0.71856270D+05 0.71856270D+05 0.11336946D+01  1  2  2  1  7  1       -2 0.247549138745D-03 0.100000000000D+01
-.401770064945D-06 0.000000000000D+00 -.286673626245D-07 0.138170570593D-08 0.000000000000D+00  7 -2 2 23 -11 11 23 21 2 0.76705384D-01 0.30549590D-01 0.71856270D+05 0.71856270D+05 0.71856270D+05 0.11336946D+01  1  2  3  1  7  1       -2 -.171239685107D-04 0.100000000000D+01
0.453534466992D-06 0.000000000000D+00 0.000000000000D+00 0.138170570593D-08 0.000000000000D+00  7 -2 2 23 -11 11 23 21 2 0.76705384D-01 0.30549590D-01 0.71856270D+05 0.71856270D+05 0.71856270D+05 0.11336946D+01  1  2 15  1  7  1       -2 0.193302353980D-04 0.100000000000D+01
  </mgrwgt>
  </event>
  <event>
  8     66 0.53686478E-06 0.11167235E+03 0.75467711E-02 0.11025879E+00
       -2 -1    0    0    0  501 0.00000000E+00 0.00000000E+00 0.14117889E+03 0.14117926E+03 0.32000000E+00 0.0000E+00 0.9000E+01
        2 -1    0    0  501    0 0.00000000E+00 0.00000000E+00 -.61506717E+03 0.61506725E+03 0.32000000E+00 0.0000E+00 0.9000E+01
       25  2    1    2    0    0 0.49744645E+02 -.41922837E+01 -.55113570E+03 0.62856755E+03 0.29808472E+03 0.0000E+00 0.0000E+00
       23  2    1    2    0    0 -.49744645E+02 0.41922837E+01 0.77247426E+02 0.12767896E+03 0.88558716E+02 0.0000E+00 0.0000E+00
       23  1    3    3    0    0 -.41311757E+02 -.21846648E+02 -.56282272E+02 0.11690544E+03 0.91188000E+02 0.0000E+00 0.9000E+01
      -11  1    4    4    0    0 -.22944167E+02 -.16710051E+02 -.13017805E+02 0.31226973E+02 0.51099893E-03 0.0000E+00 0.9000E+01
       11  1    4    4    0    0 -.26800479E+02 0.20902335E+02 0.90265231E+02 0.96451984E+02 0.51099893E-03 0.0000E+00 0.9000E+01
       23  1    3    3    0    0 0.91056403E+02 0.17654364E+02 -.49485343E+03 0.51166211E+03 0.91188000E+02 0.0000E+00 0.9000E+01
#aMCatNLO 1  0  0  2  1 0.14852615D+02 0.00000000D+00  -5  7  0 0.00000000D+00 0.00000000D+00 0.00000000D+00 0.00000000D+00 0.00000000D+00
  <mgrwgt>
 0.1807414905D-03    9    2    0
 0.294677232366705D+03 0.000000000000000D+00 0.000000000000000D+00 0.294677232366705D+03
 0.294677232366705D+03 0.000000000000000D+00 0.000000000000000D+00 -.294677232366705D+03
 0.104754996691860D+03 -.413117570904042D+02 -.218466481645756D+02 0.217812001044087D+02
 0.296023959810733D+02 -.229441668863169D+02 -.167100510269292D+02 0.840483482232247D+01
 0.196345523270606D+03 -.268004785883959D+02 0.209023347464125D+02 0.193381465652710D+03
 0.258651548789871D+03 0.910564025651170D+02 0.176543644450923D+02 -.223567500579441D+03
 0.000000000000000D+00 0.000000000000000D+00 0.000000000000000D+00 -.000000000000000D+00
 0.296760465082686D+03 0.000000000000000D+00 0.000000000000000D+00 0.296760465082686D+03
 0.322488971351501D+03 0.000000000000000D+00 0.000000000000000D+00 -.322488971351501D+03
 0.105402454422261D+03 -.414762810661109D+02 -.244892524421133D+02 0.217812001044087D+02
 0.300680293400963D+02 -.229908805077179D+02 -.174603709435454D+02 0.840483482232247D+01
 0.195924080973348D+03 -.271075709826791D+02 0.159697790429263D+02 0.193381465652710D+03
 0.258147024349001D+03 0.906518213549740D+02 0.111559314237452D+02 -.223567500579441D+03
 0.297078473494806D+02 0.922911201533825D+00 0.148239129189871D+02 -.257285062688142D+02
0.137815031569D-05 0.000000000000D+00 0.000000000000D+00 0.784247167220D-08 0.000000000000D+00  7 -2 2 23 -11 11 23 21 0 0.21719864D-01 0.94625753D-01 0.21742611D+05 0.21742611D+05 0.21742611D+05 0.11805343D+01  1  2  2  2  7  2        2 0.141202322835D-03 0.100000000000D+01
-.319390267978D-07 0.000000000000D+00 -.529246008755D-08 0.784247167220D-08 0.000000000000D+00  7 -2 2 23 -11 11 23 21 2 0.21719864D-01 0.94625753D-01 0.21742611D+05 0.21742611D+05 0.21742611D+05 0.11805343D+01  1  2  3  2  7  2        2 -.456062257357D-05 0.100000000000D+01
0.812106449672D-07 0.000000000000D+00 0.000000000000D+00 0.784247167220D-08 0.000000000000D+00  7 -2 2 23 -11 11 23 21 2 0.21719864D-01 0.94625753D-01 0.21742611D+05 0.21742611D+05 0.21742611D+05 0.11805343D+01  1  2 15  2  7  2        2 0.115961924262D-04 0.100000000000D+01
0.140895407801D-04 0.000000000000D+00 0.000000000000D+00 0.784247167220D-08 0.000000000000D+00  7 -2 2 23 -11 11 23 21 2 0.21719864D-01 0.10387213D+00 0.23619874D+05 0.23619874D+05 0.23619874D+05 0.11770951D+01  1  2 12  2  7  2        2 0.179874933259D-02 0.100000000000D+01
-.143149123472D-04 0.000000000000D+00 0.000000000000D+00 0.784247167220D-08 0.000000000000D+00  7 -2 2 23 -11 11 23 21 2 0.21719864D-01 0.94625753D-01 0.21742611D+05 0.21742611D+05 0.21742611D+05 0.11805343D+01  1  2  4  2  7  2        2 -.204404826742D-02 0.100000000000D+01
-.189714178551D-04 0.000000000000D+00 -.198468858980D-05 0.784247167220D-08 0.000000000000D+00  7 -2 2 23 -11 11 23 21 2 0.21719864D-01 0.10393659D+00 0.21742611D+05 0.21742611D+05 0.21742611D+05 0.11805343D+01  1  2  5  2  7  2        2 -.243421769352D-02 0.100000000000D+01
0.190822913833D-04 0.000000000000D+00 0.197597991795D-05 0.784247167220D-08 0.000000000000D+00  7 -2 2 23 -11 11 23 21 2 0.21719864D-01 0.94625753D-01 0.21742611D+05 0.21742611D+05 0.21742611D+05 0.11805343D+01  1  2  6  2  7  2        2 0.272478962459D-02 0.100000000000D+01
0.216692399176D-06 0.000000000000D+00 0.000000000000D+00 0.784247167220D-08 0.000000000000D+00  7 -2 21 23 -11 11 23 -2 2 0.21719864D-01 0.10387213D+00 0.23619874D+05 0.23619874D+05 0.23619874D+05 0.11770951D+01  1  2 12  4  7  2        2 0.387820571830D-04 0.100000000000D+01
-.285820567562D-06 0.000000000000D+00 -.305090995913D-07 0.784247167220D-08 0.000000000000D+00  7 -2 21 23 -11 11 23 -2 2 0.21719864D-01 0.10393659D+00 0.21742611D+05 0.21742611D+05 0.21742611D+05 0.11805343D+01  1  2  5  4  7  2        2 -.515514555974D-04 0.100000000000D+01
  </mgrwgt>
  </event>
  <event>
  8     66 0.53686478E-06 0.31696222E+03 0.75467711E-02 0.94906756E-01
       -2 -1    0    0    0  501 0.00000000E+00 0.00000000E+00 0.42638473E+02 0.42639674E+02 0.32000000E+00 0.0000E+00 0.9000E+01
        2 -1    0    0  501    0 0.00000000E+00 0.00000000E+00 -.25792815E+04 0.25792815E+04 0.32000000E+00 0.0000E+00 0.9000E+01
       25  2    1    2    0    0 0.16709284E+03 0.17251818E+03 -.18308954E+04 0.18707562E+04 0.29978005E+03 0.0000E+00 0.0000E+00
       23  2    1    2    0    0 -.16709284E+03 -.17251818E+03 -.70574756E+03 0.75116497E+03 0.92123074E+02 0.0000E+00 0.0000E+00
       23  1    3    3    0    0 -.43643275E+02 0.76609954E+01 -.49904548E+03 0.50923970E+03 0.91188000E+02 0.0000E+00 0.9000E+01
      -11  1    4    4    0    0 -.24560958E+01 -.35752443E+02 -.51074341E+02 0.62392771E+02 0.51099893E-03 0.0000E+00 0.9000E+01
       11  1    4    4    0    0 -.16463674E+03 -.13676574E+03 -.65467321E+03 0.68877220E+03 0.51099893E-03 0.0000E+00 0.9000E+01
       23  1    3    3    0    0 0.21073611E+03 0.16485718E+03 -.13318499E+04 0.13615165E+04 0.91188000E+02 0.0000E+00 0.9000E+01
#aMCatNLO 1  0  0  1  1 0.28174989D+03 0.00000000D+00  -5  7  0 0.00000000D+00 0.00000000D+00 0.00000000D+00 0.00000000D+00 0.00000000D+00
  <mgrwgt>
 0.3053227243D-03    5    2    0
 0.331629647327525D+03 0.000000000000000D+00 0.000000000000000D+00 0.331629647327525D+03
 0.331629647327525D+03 0.000000000000000D+00 0.000000000000000D+00 -.331629647327525D+03
 0.104463090939897D+03 -.436432745893664D+02 0.766099535466724D+01 -.251765716095348D+02
 0.513095822535730D+02 -.245609584905677D+01 -.357524427987936D+02 0.367206162548426D+02
 0.218970439031457D+03 -.164636743170727D+03 -.136765735874858D+03 0.462377492788483D+02
 0.288516182430122D+03 0.210736113609150D+03 0.164857183318984D+03 -.577817939241561D+02
 0.000000000000000D+00 0.000000000000000D+00 0.000000000000000D+00 0.000000000000000D+00
 0.510636755757380D+03 0.000000000000000D+00 0.000000000000000D+00 0.510636755757380D+03
 0.492329184162182D+03 0.000000000000000D+00 0.000000000000000D+00 -.492329184162182D+03
 0.131775905974043D+03 -.916309195238006D+02 0.442186391610706D+01 -.251765716095348D+02
 0.578109267394050D+02 -.246219376830676D+02 -.372486211431319D+02 0.367206162548426D+02
 0.311599185224909D+03 -.272412288590461D+03 -.144040507494803D+03 0.462377492788483D+02
 0.219435861565977D+03 0.107554917238406D+03 0.157892526947759D+03 -.577817939241561D+02
 0.282344060415229D+03 0.281110228558924D+03 0.189747377740696D+02 0.183075715951987D+02
0.552495018596D-05 0.000000000000D+00 0.000000000000D+00 0.285356786788D-06 0.000000000000D+00  7 -2 2 23 -11 11 23 21 0 0.65598590D-02 0.39681263D+00 0.10046505D+06 0.10046505D+06 0.10046505D+06 0.11215567D+01  1  2  2  1  7  1       -2 0.271375984321D-03 0.100000000000D+01
-.306177998996D-06 0.000000000000D+00 -.212172634669D-07 0.285356786788D-06 0.000000000000D+00  7 -2 2 23 -11 11 23 21 2 0.65598590D-02 0.39681263D+00 0.10046505D+06 0.10046505D+06 0.10046505D+06 0.11215567D+01  1  2  3  1  7  1       -2 -.189173158458D-04 0.100000000000D+01
0.340900003391D-06 0.000000000000D+00 0.000000000000D+00 0.285356786788D-06 0.000000000000D+00  7 -2 2 23 -11 11 23 21 2 0.65598590D-02 0.39681263D+00 0.10046505D+06 0.10046505D+06 0.10046505D+06 0.11215567D+01  1  2 15  1  7  1       -2 0.210626271553D-04 0.100000000000D+01
0.589953992389D-06 0.000000000000D+00 -.175241307849D-05 0.285356786788D-06 0.000000000000D+00  7 -2 2 23 -11 11 23 21 2 0.19018543D-01 0.39681263D+00 0.10046505D+06 0.10046505D+06 0.10046505D+06 0.11215567D+01  1  2  5  1  7  1       -2 0.691210536269D-05 0.100000000000D+01
0.163975107913D-06 0.000000000000D+00 -.210864992802D-06 0.285356786788D-06 0.000000000000D+00  7 21 2 23 -11 11 23 2 2 0.19018543D-01 0.39681263D+00 0.10046505D+06 0.10046505D+06 0.10046505D+06 0.11215567D+01  1  2  5  3  7  1       -2 0.248893233297D-04 0.100000000000D+01
  </mgrwgt>
  </event>
  <event>
  8     66 0.53686478E-06 0.26573061E+03 0.75467711E-02 0.93437335E-01
       -2 -1    0    0    0  501 0.00000000E+00 0.00000000E+00 0.11555225E+03 0.11555270E+03 0.32000000E+00 0.0000E+00 0.9000E+01
        2 -1    0    0  501    0 0.00000000E+00 0.00000000E+00 -.89946784E+03 0.89946790E+03 0.32000000E+00 0.0000E+00 0.9000E+01
       25  2    1    2    0    0 0.19148788E+03 0.12050506E+03 -.60664550E+03 0.71369078E+03 0.30024437E+03 0.0000E+00 0.0000E+00
       23  2    1    2    0    0 -.19148788E+03 -.12050506E+03 -.17727008E+03 0.30132981E+03 0.90475945E+02 0.0000E+00 0.0000E+00
       23  1    3    3    0    0 0.90278562E+02 0.22582860E+02 -.62953203E+02 0.14470163E+03 0.91188000E+02 0.0000E+00 0.9000E+01
      -13  1    4    4    0    0 -.18285657E+03 -.12696946E+03 -.14105185E+03 0.26354014E+03 0.10565837E+00 0.0000E+00 0.9000E+01
       13  1    4    4    0    0 -.86313194E+01 0.64644063E+01 -.36218234E+02 0.37789679E+02 0.10565837E+00 0.0000E+00 0.9000E+01
       23  1    3    3    0    0 0.10120932E+03 0.97922197E+02 -.54369230E+03 0.56898915E+03 0.91188000E+02 0.0000E+00 0.9000E+01
#aMCatNLO 1  0  0  1  1 0.43306962D+03 0.00000000D+00  -5  7  0 0.00000000D+00 0.00000000D+00 0.00000000D+00 0.00000000D+00 0.00000000D+00
  <mgrwgt>
 0.3929054291D-03    3    2    0
 0.322390741482298D+03 0.000000000000000D+00 0.000000000000000D+00 0.322390741482298D+03
 0.322390741482298D+03 0.000000000000000D+00 0.000000000000000D+00 -.322390741482298D+03
 0.151253004549590D+03 0.902785624321672D+02 0.225828600421373D+02 0.768245770491248D+02
 0.243378768834959D+03 -.182856803298997D+03 -.126969645248907D+03 0.983632237793141D+02
 0.154549477510466D+02 -.863108181553551D+01 0.646458819119617D+01 -.110710855926309D+02
 0.234694761829000D+03 0.101209322682365D+03 0.979221970155733D+02 -.164116715235808D+03
 0.000000000000000D+00 -.000000000000000D+00 0.000000000000000D+00 -.000000000000000D+00
 0.580298947221018D+03 0.000000000000000D+00 0.000000000000000D+00 0.580298947221018D+03
 0.632641386060226D+03 0.000000000000000D+00 0.000000000000000D+00 -.632641386060226D+03
 0.198430427126305D+03 0.142076172974230D+03 -.705104850341265D+02 0.768245770491248D+02
 0.307986136875789D+03 -.101184690566367D+03 -.273754991023728D+03 0.983632237793141D+02
 0.120046012369662D+02 -.456357705179803D+01 -.845741775906607D+00 -.110710855926309D+02
 0.258297866303733D+03 0.174234916230633D+03 -.333231772100833D+02 -.164116715235808D+03
 0.436221301738450D+03 -.210562821586697D+03 0.378434395043844D+03 -.523424388392081D+02
0.432947304399D-05 0.000000000000D+00 0.000000000000D+00 0.471565382831D-06 0.000000000000D+00  7 -2 2 23 -13 13 23 21 0 0.17777308D-01 0.13837971D+00 0.70612759D+05 0.70612759D+05 0.70612759D+05 0.11343380D+01  1  2  2  1  7  1       -2 0.387822833322D-03 0.100000000000D+01
-.229601231365D-06 0.000000000000D+00 -.166263164654D-07 0.471565382831D-06 0.000000000000D+00  7 -2 2 23 -13 13 23 21 2 0.17777308D-01 0.13837971D+00 0.70612759D+05 0.70612759D+05 0.70612759D+05 0.11343380D+01  1  2  3  1  7  1       -2 -.264641225713D-04 0.100000000000D+01
0.273697544949D-06 0.000000000000D+00 0.000000000000D+00 0.471565382831D-06 0.000000000000D+00  7 -2 2 23 -13 13 23 21 2 0.17777308D-01 0.13837971D+00 0.70612759D+05 0.70612759D+05 0.70612759D+05 0.11343380D+01  1  2 15  1  7  1       -2 0.315467183427D-04 0.100000000000D+01
  </mgrwgt>
  </event>
  <event>
  8     66 0.53686478E-06 0.14568616E+03 0.75467711E-02 0.93411736E-01
       -2 -1    0    0    0  501 0.00000000E+00 0.00000000E+00 0.45073445E+03 0.45073457E+03 0.32000000E+00 0.0000E+00 0.9000E+01
        2 -1    0    0  501    0 0.00000000E+00 0.00000000E+00 -.71999258E+03 0.71999265E+03 0.32000000E+00 0.0000E+00 0.9000E+01
       25  2    1    2    0    0 0.18062445E+03 0.44005872E+03 -.37387828E+03 0.67537246E+03 0.30011017E+03 0.0000E+00 0.0000E+00
       23  2    1    2    0    0 -.18062445E+03 -.44005872E+03 0.10462016E+03 0.49535476E+03 0.90299979E+02 0.0000E+00 0.0000E+00
       23  1    3    3    0    0 0.18858579E+03 0.19272480E+03 -.11870901E+03 0.30840644E+03 0.91188000E+02 0.0000E+00 0.9000E+01
      -13  1    4    4    0    0 -.23037044E+02 -.11651824E+02 -.40347515E+01 0.26129691E+02 0.10565837E+00 0.0000E+00 0.9000E+01
       13  1    4    4    0    0 -.15758741E+03 -.42840690E+03 0.10865491E+03 0.46922507E+03 0.10565837E+00 0.0000E+00 0.9000E+01
       23  1    3    3    0    0 -.79613423E+01 0.24733392E+03 -.25516927E+03 0.36696602E+03 0.91188000E+02 0.0000E+00 0.9000E+01
#aMCatNLO 1  0  0  1  2 0.79971710D+02 0.00000000D+00  -5  7  0 0.00000000D+00 0.00000000D+00 0.00000000D+00 0.00000000D+00 0.00000000D+00
  <mgrwgt>
 0.4158815744D-03    9    2    0
 0.569671458327156D+03 0.000000000000000D+00 0.000000000000000D+00 0.569671458327156D+03
 0.569671458327156D+03 0.000000000000000D+00 0.000000000000000D+00 -.569671458327156D+03
 0.288847581061415D+03 0.188585792623101D+03 0.192724802173180D+03 -.490940239647987D+02
 0.258952759252842D+02 -.230368592900897D+02 -.116512533161543D+02 0.202897152715809D+01
 0.507829133844012D+03 -.157587591046069D+03 -.428407471654273D+03 0.222539027048852D+03
 0.316770925823600D+03 -.796134228694213D+01 0.247333922797247D+03 -.175473974611212D+03
 0.000000000000000D+00 0.000000000000000D+00 -.000000000000000D+00 0.000000000000000D+00
 0.615720911563740D+03 0.000000000000000D+00 0.000000000000000D+00 0.615720911563740D+03
 0.606883708972726D+03 0.000000000000000D+00 0.000000000000000D+00 -.606883708972726D+03
 0.290505640424209D+03 0.174800185276275D+03 0.207636576288002D+03 -.490940239647987D+02
 0.264561393894893D+02 -.242825519501381D+02 -.103037981699426D+02 0.202897152715809D+01
 0.494506947544691D+03 -.181438000666900D+03 -.402608686597937D+03 0.222539027048852D+03
 0.330677391193163D+03 -.233672603775824D+02 0.263998373250492D+03 -.175473974611212D+03
 0.804585019849143D+02 0.542876277183456D+02 -.587224647706151D+02 0.883720259101430D+01
0.244605103569D-04 0.000000000000D+00 0.000000000000D+00 0.148092090430D-05 0.000000000000D+00  7 -2 2 23 -13 13 23 21 0 0.69343776D-01 0.11076810D+00 0.26556559D+06 0.26556559D+06 0.26556559D+06 0.10884912D+01  1  2  2  1  7  1       -2 0.231764014032D-03 0.100000000000D+01
-.134231166645D-05 0.000000000000D+00 -.939348003708D-07 0.148092090430D-05 0.000000000000D+00  7 -2 2 23 -13 13 23 21 2 0.69343776D-01 0.11076810D+00 0.26556559D+06 0.26556559D+06 0.26556559D+06 0.10884912D+01  1  2  3  1  7  1       -2 -.150689737168D-04 0.100000000000D+01
0.152160470830D-05 0.000000000000D+00 0.000000000000D+00 0.148092090430D-05 0.000000000000D+00  7 -2 2 23 -13 13 23 21 2 0.69343776D-01 0.11076810D+00 0.26556559D+06 0.26556559D+06 0.26556559D+06 0.10884912D+01  1  2 15  1  7  1       -2 0.170817418412D-04 0.100000000000D+01
0.328243427119D-04 0.000000000000D+00 0.000000000000D+00 0.148092090430D-05 0.000000000000D+00  7 -2 2 23 -13 13 23 21 2 0.77051077D-01 0.11076810D+00 0.31056084D+06 0.31056084D+06 0.31056084D+06 0.10834420D+01  1  2 12  1  7  1       -2 0.288378083578D-03 0.100000000000D+01
-.276728976665D-04 0.000000000000D+00 0.000000000000D+00 0.148092090430D-05 0.000000000000D+00  7 -2 2 23 -13 13 23 21 2 0.69343776D-01 0.11076810D+00 0.26556559D+06 0.26556559D+06 0.26556559D+06 0.10884912D+01  1  2  4  1  7  1       -2 -.310659720858D-03 0.100000000000D+01
-.102038007833D-03 0.000000000000D+00 -.239473629241D-04 0.148092090430D-05 0.000000000000D+00  7 -2 2 23 -13 13 23 21 2 0.79127043D-01 0.11076810D+00 0.26556559D+06 0.26556559D+06 0.26556559D+06 0.10884912D+01  1  2  5  1  7  1       -2 -.856947300086D-03 0.100000000000D+01
0.104494221885D-03 0.000000000000D+00 0.237403050761D-04 0.148092090430D-05 0.000000000000D+00  7 -2 2 23 -13 13 23 21 2 0.69343776D-01 0.11076810D+00 0.26556559D+06 0.26556559D+06 0.26556559D+06 0.10884912D+01  1  2  6  1  7  1       -2 0.117306637684D-02 0.100000000000D+01
0.557794663002D-06 0.000000000000D+00 0.000000000000D+00 0.148092090430D-05 0.000000000000D+00  7 21 2 23 -13 13 23 2 2 0.77051077D-01 0.11076810D+00 0.31056084D+06 0.31056084D+06 0.31056084D+06 0.10834420D+01  1  2 12  3  7  1       -2 0.472139568123D-04 0.100000000000D+01
-.196416820129D-05 0.000000000000D+00 -.491913373025D-06 0.148092090430D-05 0.000000000000D+00  7 21 2 23 -13 13 23 2 2 0.79127043D-01 0.11076810D+00 0.26556559D+06 0.26556559D+06 0.26556559D+06 0.10884912D+01  1  2  5  3  7  1       -2 -.158946604087D-03 0.100000000000D+01
  </mgrwgt>
  </event>
  <event>
  8     66 0.53686478E-06 0.30290316E+03 0.75467711E-02 0.90356794E-01
       -2 -1    0    0    0  501 0.00000000E+00 0.00000000E+00 0.42973083E+03 0.42973095E+03 0.32000000E+00 0.0000E+00 0.9000E+01
        2 -1    0    0  501    0 0.00000000E+00 0.00000000E+00 -.30413847E+03 0.30413864E+03 0.32000000E+00 0.0000E+00 0.9000E+01
       25  2    1    2    0    0 -.20571294E+03 -.13008172E+03 0.23571244E+03 0.45234983E+03 0.29970143E+03 0.0000E+00 0.0000E+00
       23  2    1    2    0    0 0.20571294E+03 0.13008172E+03 -.11012009E+03 0.28151976E+03 0.88813691E+02 0.0000E+00 0.0000E+00
       23  1    3    3    0    0 -.12369088E+03 -.16292111E+03 0.53497360E+02 0.23026059E+03 0.91188000E+02 0.0000E+00 0.9000E+01
      -11  1    4    4    0    0 0.19699910E+02 0.47371120E+02 -.43677921E+02 0.67378559E+02 0.51099893E-03 0.0000E+00 0.9000E+01
       11  1    4    4    0    0 0.18601303E+03 0.82710604E+02 -.66442164E+02 0.21414120E+03 0.51099893E-03 0.0000E+00 0.9000E+01
       23  1    3    3    0    0 -.82022063E+02 0.32839388E+02 0.18221508E+03 0.22208924E+03 0.91188000E+02 0.0000E+00 0.9000E+01
#aMCatNLO 1  0  0  2  1 0.63148276D+03 0.00000000D+00  -5  7  0 0.00000000D+00 0.00000000D+00 0.00000000D+00 0.00000000D+00 0.00000000D+00
  <mgrwgt>
 0.3784206225D-03    3    2    0
 0.361521483735760D+03 0.000000000000000D+00 0.000000000000000D+00 0.361521483735760D+03
 0.361521483735760D+03 0.000000000000000D+00 0.000000000000000D+00 -.361521483735760D+03
 0.224415967261418D+03 -.123690876430342D+03 -.162921112040662D+03 0.143022151153529D+02
 0.759743068852835D+02 0.196999100711787D+02 0.473711197094837D+02 -.560355768004262D+02
 0.228888664974923D+03 0.186013028913051D+03 0.827106041582725D+02 -.104633312039565D+03
 0.193764028349896D+03 -.820220625538873D+02 0.328393881729054D+02 0.146366673724638D+03
 0.000000000000000D+00 -.000000000000000D+00 0.000000000000000D+00 0.000000000000000D+00
 0.388327650889024D+04 0.000000000000000D+00 0.000000000000000D+00 0.388327650889024D+04
 0.509283043898023D+03 0.000000000000000D+00 0.000000000000000D+00 -.509283043898023D+03
 0.305236025034897D+03 0.295619205705864D+02 -.289439664058119D+03 0.143022151153529D+02
 0.877994915274450D+02 0.670872380663036D+02 0.825029294973977D+01 -.560355768004262D+02
 0.383187055463368D+03 0.363114819329896D+03 -.634965941553918D+02 -.104633312039565D+03
 0.183757429888881D+03 0.272123408741543D+02 -.573395764049670D+02 0.146366673724638D+03
 0.343257955087367D+04 -.486976318840940D+03 0.402025541668738D+03 0.337399346499222D+04
0.131681730232D-04 0.000000000000D+00 0.000000000000D+00 0.103106297183D-06 0.000000000000D+00  7 -2 2 23 -11 11 23 21 0 0.66112457D-01 0.46790557D-01 0.91750326D+05 0.91750326D+05 0.91750326D+05 0.11248035D+01  1  2  2  2  7  2        2 0.374009959749D-03 0.100000000000D+01
-.703727618790D-06 0.000000000000D+00 -.505692516688D-07 0.103106297183D-06 0.000000000000D+00  7 -2 2 23 -11 11 23 21 2 0.66112457D-01 0.46790557D-01 0.91750326D+05 0.91750326D+05 0.91750326D+05 0.11248035D+01  1  2  3  2  7  2        2 -.252880624090D-04 0.100000000000D+01
0.826469533179D-06 0.000000000000D+00 0.000000000000D+00 0.103106297183D-06 0.000000000000D+00  7 -2 2 23 -11 11 23 21 2 0.66112457D-01 0.46790557D-01 0.91750326D+05 0.91750326D+05 0.91750326D+05 0.11248035D+01  1  2 15  2  7  2        2 0.296987251547D-04 0.100000000000D+01
  </mgrwgt>
  </event>
  <event>
  8     66 0.53686478E-06 0.30680718E+03 0.75467711E-02 0.94203549E-01
       -2 -1    0    0    0  501 0.00000000E+00 0.00000000E+00 0.27677260E+03 0.27677278E+03 0.32000000E+00 0.0000E+00 0.9000E+01
        2 -1    0    0  501    0 0.00000000E+00 0.00000000E+00 -.39498911E+03 0.39498924E+03 0.32000000E+00 0.0000E+00 0.9000E+01
       25  2    1    2    0    0 0.23400854E+03 0.74600929E+02 -.10182410E+02 0.39300663E+03 0.30663534E+03 0.0000E+00 0.0000E+00
       23  2    1    2    0    0 -.23400854E+03 -.74600929E+02 -.10803411E+03 0.27875539E+03 0.75550686E+02 0.0000E+00 0.0000E+00
       23  1    3    3    0    0 -.16391824E+02 0.32519708E+02 0.58914323E+02 0.11450927E+03 0.91188000E+02 0.0000E+00 0.9000E+01
      -13  1    4    4    0    0 -.13292712E+03 -.40679343E+02 -.19912486E+02 0.14043128E+03 0.10565837E+00 0.0000E+00 0.9000E+01
       13  1    4    4    0    0 -.10108142E+03 -.33921586E+02 -.88121621E+02 0.13832411E+03 0.10565837E+00 0.0000E+00 0.9000E+01
       23  1    3    3    0    0 0.25040036E+03 0.42081221E+02 -.69096733E+02 0.27849736E+03 0.91188000E+02 0.0000E+00 0.9000E+01
#aMCatNLO 1  0  0  1  1 0.33541196D+03 0.00000000D+00  -5  7  0 0.00000000D+00 0.00000000D+00 0.00000000D+00 0.00000000D+00 0.00000000D+00
  <mgrwgt>
 0.5991078806D-03    5    2    0
 0.330639180735531D+03 0.000000000000000D+00 0.000000000000000D+00 0.330639180735531D+03
 0.330639180735531D+03 0.000000000000000D+00 0.000000000000000D+00 -.330639180735531D+03
 0.126856748290557D+03 -.163918232630309D+02 0.325197083732405D+02 0.803191131691997D+02
 0.139097909453246D+03 -.132927179549980D+03 -.406793560689704D+02 0.487681668351503D+01
 0.124763546671530D+03 -.101081361521382D+03 -.339215733896921D+02 -.647906458511616D+02
 0.270560157055729D+03 0.250400364334393D+03 0.420812210854220D+02 -.204052840015532D+02
 0.000000000000000D+00 0.000000000000000D+00 -.000000000000000D+00 0.000000000000000D+00
 0.692235743414575D+03 0.000000000000000D+00 0.000000000000000D+00 0.692235743414575D+03
 0.458221638257909D+03 0.000000000000000D+00 0.000000000000000D+00 -.458221638257909D+03
 0.160287486112718D+03 -.334916331425415D+02 0.990150363808122D+02 0.803191131691997D+02
 0.152776660758237D+03 -.150308687034023D+03 0.269113978377366D+02 0.487681668351503D+01
 0.136000556987429D+03 -.116610200556703D+03 0.264647848509216D+02 -.647906458511616D+02
 0.292413722096893D+03 0.216874542997091D+03 0.172451704865965D+03 -.204052840015532D+02
 0.408978955717207D+03 0.835359777361766D+02 -.324842923935436D+03 0.234014105156665D+03
0.117953581616D-04 0.000000000000D+00 0.000000000000D+00 0.343993356289D-10 0.000000000000D+00  7 -2 2 23 -13 13 23 21 0 0.42580424D-01 0.60767580D-01 0.94130644D+05 0.94130644D+05 0.94130644D+05 0.11238841D+01  1  2  2  1  7  1       -2 0.604609263502D-03 0.100000000000D+01
-.650838866607D-06 0.000000000000D+00 -.452972811296D-07 0.343993356289D-10 0.000000000000D+00  7 -2 2 23 -13 13 23 21 2 0.42580424D-01 0.60767580D-01 0.94130644D+05 0.94130644D+05 0.94130644D+05 0.11238841D+01  1  2  3  1  7  1       -2 -.421386101519D-04 0.100000000000D+01
0.723244202131D-06 0.000000000000D+00 0.000000000000D+00 0.343993356289D-10 0.000000000000D+00  7 -2 2 23 -13 13 23 21 2 0.42580424D-01 0.60767580D-01 0.94130644D+05 0.94130644D+05 0.94130644D+05 0.11238841D+01  1  2 15  1  7  1       -2 0.468264989108D-04 0.100000000000D+01
-.160814559407D-05 0.000000000000D+00 -.355135645696D-05 0.343993356289D-10 0.000000000000D+00  7 -2 2 23 -13 13 23 21 2 0.11514434D+00 0.60767580D-01 0.94130644D+05 0.94130644D+05 0.94130644D+05 0.11238841D+01  1  2  5  1  7  1       -2 -.121599947317D-04 0.100000000000D+01
0.279070648458D-07 0.000000000000D+00 -.394185713992D-06 0.343993356289D-10 0.000000000000D+00  7 21 2 23 -13 13 23 2 2 0.11514434D+00 0.60767580D-01 0.94130644D+05 0.94130644D+05 0.94130644D+05 0.11238841D+01  1  2  5  3  7  1       -2 0.197072304866D-05 0.100000000000D+01
  </mgrwgt>
  </event>
  <event>
  7     66 0.53686478E-06 0.51255016E+03 0.75467711E-02 0.87734790E-01
       -2 -1    0    0    0  501 0.00000000E+00 0.00000000E+00 0.20110490E+03 0.20110516E+03 0.32000000E+00 0.0000E+00 0.9000E+01
        2 -1    0    0  501    0 0.00000000E+00 0.00000000E+00 -.14490243E+04 0.14490243E+04 0.32000000E+00 0.0000E+00 0.9000E+01
       23  2    1    2    0    0 -.30392011E+03 -.38003118E+03 -.57830209E+03 0.76120575E+03 0.90607737E+02 0.0000E+00 0.0000E+00
       23  1    1    2    0    0 0.26677922E+03 0.29788951E+03 -.33169221E+03 0.52748866E+03 0.91188000E+02 0.0000E+00 0.9000E+01
      -11  1    3    3    0    0 -.39405564E+02 -.43860333E+02 -.31138114E+02 0.66679153E+02 0.51099893E-03 0.0000E+00 0.9000E+01
       11  1    3    3    0    0 -.26451455E+03 -.33617084E+03 -.54716398E+03 0.69452660E+03 0.51099893E-03 0.0000E+00 0.9000E+01
       23  1    1    2    0    0 0.37140895E+02 0.82141668E+02 -.33792508E+03 0.36143507E+03 0.91188000E+02 0.0000E+00 0.9000E+01
#aMCatNLO 1  0  0  1  1 0.68753106D+03 0.00000000D+00  -5  7  0 0.00000000D+00 0.00000000D+00 0.00000000D+00 0.00000000D+00 0.00000000D+00
  <mgrwgt>
 0.2980090077D-03    5    2    0
 0.539820461996290D+03 0.000000000000000D+00 0.000000000000000D+00 0.539820461996290D+03
 0.539820461996290D+03 0.000000000000000D+00 0.000000000000000D+00 -.539820461996290D+03
 0.422825252481534D+03 0.266779216712610D+03 0.297889508417501D+03 0.102745477258412D+03
 0.659213431715182D+02 -.394055637109822D+02 -.438603331847494D+02 0.294804377016279D+02
 0.429070701715402D+03 -.264514547945101D+03 -.336170843364866D+03 -.335094772758543D+02
 0.161823626624125D+03 0.371408949434729D+02 0.821416681321147D+02 -.987164376841857D+02
 0.000000000000000D+00 0.000000000000000D+00 -.000000000000000D+00 0.000000000000000D+00
 0.207252893834231D+04 0.000000000000000D+00 0.000000000000000D+00 0.207252893834231D+04
 0.722477985451578D+03 0.000000000000000D+00 0.000000000000000D+00 -.722477985451578D+03
 0.687268888649502D+03 0.259794818607358D+03 0.621267489161659D+03 0.102745477258412D+03
 0.507706335432486D+02 -.401397565968526D+02 -.986716593803446D+01 0.294804377016279D+02
 0.298294223262180D+03 -.269090922160233D+03 -.124284488876295D+03 -.335094772758543D+02
 0.243636367052345D+03 0.345898554355042D+02 0.200254924629483D+03 -.987164376841857D+02
 0.151503681128662D+04 0.148460047142236D+02 -.687370758976813D+03 0.135005095289074D+04
0.190223851952D-04 0.000000000000D+00 0.000000000000D+00 0.148717297189D-08 0.000000000000D+00  7 -2 2 23 -11 11 23 21 0 0.30939238D-01 0.22292684D+00 0.26270767D+06 0.26270767D+06 0.26270767D+06 0.10888429D+01  1  2  2  1  7  1       -2 0.310611531315D-03 0.100000000000D+01
-.105334638205D-05 0.000000000000D+00 -.730509678585D-07 0.148717297189D-08 0.000000000000D+00  7 -2 2 23 -11 11 23 21 2 0.30939238D-01 0.22292684D+00 0.26270767D+06 0.26270767D+06 0.26270767D+06 0.10888429D+01  1  2  3  1  7  1       -2 -.203917385853D-04 0.100000000000D+01
0.115161976714D-05 0.000000000000D+00 0.000000000000D+00 0.148717297189D-08 0.000000000000D+00  7 -2 2 23 -11 11 23 21 2 0.30939238D-01 0.22292684D+00 0.26270767D+06 0.26270767D+06 0.26270767D+06 0.10888429D+01  1  2 15  1  7  1       -2 0.222942136049D-04 0.100000000000D+01
-.791965438755D-05 0.000000000000D+00 -.741705218211D-05 0.148717297189D-08 0.000000000000D+00  7 -2 2 23 -11 11 23 21 2 0.14543143D+00 0.22292684D+00 0.26270767D+06 0.26270767D+06 0.26270767D+06 0.10888429D+01  1  2  5  1  7  1       -2 -.526937412235D-05 0.100000000000D+01
-.161192080509D-05 0.000000000000D+00 -.139316043953D-05 0.148717297189D-08 0.000000000000D+00  7 21 2 23 -11 11 23 2 2 0.14543143D+00 0.22292684D+00 0.26270767D+06 0.26270767D+06 0.26270767D+06 0.10888429D+01  1  2  5  3  7  1       -2 -.923562455242D-05 0.100000000000D+01
  </mgrwgt>
  </event>
  <event>
  9     66 0.53686478E-06 0.28225264E+03 0.75467711E-02 0.10003145E+00
       -2 -1    0    0    0  501 0.00000000E+00 0.00000000E+00 0.22795116E+03 0.22795138E+03 0.32000000E+00 0.0000E+00 0.9000E+01
        2 -1    0    0  502    0 0.00000000E+00 0.00000000E+00 -.10344193E+04 0.10344194E+04 0.32000000E+00 0.0000E+00 0.9000E+01
       25  2    1    2    0    0 -.14421463E+03 0.14767885E+03 0.97540686E+01 0.36383591E+03 0.29945706E+03 0.0000E+00 0.0000E+00
       23  2    1    2    0    0 0.19507085E+03 -.10893364E+03 -.79551285E+03 0.83132632E+03 0.91343257E+02 0.0000E+00 0.0000E+00
       23  1    3    3    0    0 -.81215420E+01 0.15775470E+03 0.60294952E+02 0.19210216E+03 0.91188000E+02 0.0000E+00 0.9000E+01
      -13  1    4    4    0    0 0.30095540E+02 -.17566859E+01 -.37056839E+02 0.47770786E+02 0.10565837E+00 0.0000E+00 0.9000E+01
       13  1    4    4    0    0 0.16497531E+03 -.10717695E+03 -.75845601E+03 0.78355554E+03 0.10565837E+00 0.0000E+00 0.9000E+01
       23  1    3    3    0    0 -.13609308E+03 -.10075858E+02 -.50540883E+02 0.17173375E+03 0.91188000E+02 0.0000E+00 0.9000E+01
       21  1    1    2  502  501 -.50856225E+02 -.38745206E+02 -.20709410E+02 0.67208547E+02 0.75000000E+00 0.0000E+00 0.9000E+01
#aMCatNLO 2  0  0  2  2 0.63933924D+02 0.00000000D+00  -5  7  0 0.00000000D+00 0.00000000D+00 0.00000000D+00 0.00000000D+00 0.00000000D+00
  <mgrwgt>
 0.1294784387D-03    1    2    0
 0.449140390810594D+03 0.000000000000000D+00 0.000000000000000D+00 0.449140390810594D+03
 0.449140390810594D+03 0.000000000000000D+00 0.000000000000000D+00 -.449140390810594D+03
 0.301989454894599D+03 -.253544739883983D+02 0.144625662590583D+03 0.247634706558963D+03
 0.295154990818157D+02 0.283826414819113D+02 -.306139238437573D+01 -.749788138255317D+01
 0.374354559742360D+03 0.143701832264748D+03 -.123384595554746D+03 -.322904570087575D+03
 0.192421267902413D+03 -.146729999758261D+03 -.181796746514608D+02 0.827677449111658D+02
 0.000000000000000D+00 -.000000000000000D+00 -.000000000000000D+00 0.000000000000000D+00
 0.501415900155389D+03 0.000000000000000D+00 0.000000000000000D+00 0.501415900155389D+03
 0.470258953447811D+03 0.000000000000000D+00 0.000000000000000D+00 -.470258953447811D+03
 0.307556019897102D+03 -.812154203760517D+01 0.157754704187655D+03 0.247634706558963D+03
 0.310650020414484D+02 0.300953597229234D+02 -.175654483466568D+01 -.749788138255317D+01
 0.378115331289604D+03 0.164975491021063D+03 -.107177095198388D+03 -.322904570087575D+03
 0.183816759748314D+03 -.136093083242687D+03 -.100758580869711D+02 0.827677449111658D+02
 0.711217406267318D+02 -.508562254636947D+02 -.387452060676295D+02 0.311569467075784D+02
0.446273431100D-05 0.000000000000D+00 0.000000000000D+00 0.127943096980D-05 0.210899566986D-08  7 -2 2 23 -13 13 23 21 2 0.35069285D-01 0.15914080D+00 0.10154937D+06 0.10154937D+06 0.10154937D+06 0.11211745D+01  1  2  1  2  7  2        2 0.129478438672D-03 0.100000000000D+01
  </mgrwgt>
  </event>
  <event>
  8     66 0.53686478E-06 0.29547739E+03 0.75467711E-02 0.95969512E-01
       -2 -1    0    0    0  501 0.00000000E+00 0.00000000E+00 0.57949294E+02 0.57950178E+02 0.32000000E+00 0.0000E+00 0.9000E+01
        2 -1    0    0  501    0 0.00000000E+00 0.00000000E+00 -.20969880E+04 0.20969880E+04 0.32000000E+00 0.0000E+00 0.9000E+01
       25  2    1    2    0    0 -.16679695E+03 0.13918527E+03 -.66645618E+03 0.76221276E+03 0.29935046E+03 0.0000E+00 0.0000E+00
       23  2    1    2    0    0 0.16679695E+03 -.13918527E+03 -.13725825E+04 0.13927254E+04 0.92236616E+02 0.0000E+00 0.0000E+00
       23  1    3    3    0    0 0.29181277E+02 -.19916019E+02 -.22865720E+03 0.24869170E+03 0.91188000E+02 0.0000E+00 0.9000E+01
      -11  1    4    4    0    0 0.66646543E+02 -.93164875E+02 -.48593822E+03 0.49925686E+03 0.51099893E-03 0.0000E+00 0.9000E+01
       11  1    4    4    0    0 0.10015041E+03 -.46020398E+02 -.88664427E+03 0.89346854E+03 0.51099893E-03 0.0000E+00 0.9000E+01
       23  1    3    3    0    0 -.19597822E+03 0.15910129E+03 -.43779898E+03 0.51352107E+03 0.91188000E+02 0.0000E+00 0.9000E+01
#aMCatNLO 1  0  0  2  2 0.25311573D+03 0.00000000D+00  -5  7  0 0.00000000D+00 0.00000000D+00 0.00000000D+00 0.00000000D+00 0.00000000D+00
  <mgrwgt>
 0.2659485832D-03    6    2    0
 0.348597117767298D+03 0.000000000000000D+00 0.000000000000000D+00 0.348597117767298D+03
 0.348597117767298D+03 0.000000000000000D+00 0.000000000000000D+00 -.348597117767298D+03
 0.999353660918360D+02 0.291812770261187D+02 -.199160189558394D+02 0.205823057985457D+02
 0.121947126903736D+03 0.666465428691134D+02 -.931648745822714D+02 -.418287727257313D+02
 0.168486069206137D+03 0.100150405047721D+03 -.460203980794126D+02 -.127434590460852D+03
 0.306825673332887D+03 -.195978224942953D+03 0.159101291617523D+03 0.148681057388037D+03
 0.000000000000000D+00 0.000000000000000D+00 -.000000000000000D+00 -.000000000000000D+00
 0.468668550224848D+03 0.000000000000000D+00 0.000000000000000D+00 0.468668550224848D+03
 0.534616538061047D+03 0.000000000000000D+00 0.000000000000000D+00 -.534616538061047D+03
 0.981871042325031D+02 0.261293936240343D+02 0.148013367781376D+02 0.205823057985457D+02
 0.939227426942260D+02 0.633212780924446D+02 -.553376102502105D+02 -.418287727257313D+02
 0.159418665635835D+03 0.950993524533794D+02 0.114389365822632D+02 -.127434590460852D+03
 0.390190691040188D+03 -.206715082150159D+03 0.281240718986508D+03 0.148681057388037D+03
 0.261565884683143D+03 0.221650579803009D+02 -.252143382096698D+03 -.659479878361981D+02
0.296523549569D-05 0.000000000000D+00 0.000000000000D+00 0.168747038740D-06 0.000000000000D+00  7 -2 2 23 -11 11 23 21 0 0.89153459D-02 0.32261360D+00 0.87306890D+05 0.87306890D+05 0.87306890D+05 0.11265920D+01  1  2  2  2  7  2        2 0.170434964633D-03 0.100000000000D+01
-.159260826278D-06 0.000000000000D+00 -.113872850679D-07 0.168747038740D-06 0.000000000000D+00  7 -2 2 23 -11 11 23 21 2 0.89153459D-02 0.32261360D+00 0.87306890D+05 0.87306890D+05 0.87306890D+05 0.11265920D+01  1  2  3  2  7  2        2 -.116182795612D-04 0.100000000000D+01
0.200017177732D-06 0.000000000000D+00 0.000000000000D+00 0.168747038740D-06 0.000000000000D+00  7 -2 2 23 -11 11 23 21 2 0.89153459D-02 0.32261360D+00 0.87306890D+05 0.87306890D+05 0.87306890D+05 0.11265920D+01  1  2 15  2  7  2        2 0.145915071662D-04 0.100000000000D+01
-.110177344757D-05 0.000000000000D+00 -.800397472124D-06 0.168747038740D-06 0.000000000000D+00  7 -2 2 23 -11 11 23 21 2 0.89153459D-02 0.54232434D+00 0.87306890D+05 0.87306890D+05 0.87306890D+05 0.11265920D+01  1  2  5  2  7  2        2 -.109540598973D-04 0.100000000000D+01
0.141880953058D-05 0.000000000000D+00 0.703366091654D-06 0.168747038740D-06 0.000000000000D+00  7 -2 2 23 -11 11 23 21 2 0.89153459D-02 0.32261360D+00 0.87306890D+05 0.87306890D+05 0.87306890D+05 0.11265920D+01  1  2  6  2  7  2        2 0.103503957348D-03 0.100000000000D+01
-.263917647171D-07 0.000000000000D+00 -.465245572618D-07 0.168747038740D-06 0.000000000000D+00  7 -2 21 23 -11 11 23 -2 2 0.89153459D-02 0.54232434D+00 0.87306890D+05 0.87306890D+05 0.87306890D+05 0.11265920D+01  1  2  5  4  7  2        2 -.950647092948D-08 0.100000000000D+01
  </mgrwgt>
  </event>
  <event>
  8     66 0.53686478E-06 0.58384008E+03 0.75467711E-02 0.88622843E-01
       -2 -1    0    0    0  501 0.00000000E+00 0.00000000E+00 0.85511073E+03 0.85511079E+03 0.32000000E+00 0.0000E+00 0.9000E+01
        2 -1    0    0  501    0 0.00000000E+00 0.00000000E+00 -.17921323E+04 0.17921323E+04 0.32000000E+00 0.0000E+00 0.9000E+01
       25  2    1    2    0    0 -.11708191E+03 -.54547425E+03 0.68272337E+03 0.93134784E+03 0.30007877E+03 0.0000E+00 0.0000E+00
       23  2    1    2    0    0 0.11708191E+03 0.54547425E+03 -.16197449E+04 0.17158952E+04 0.97327113E+02 0.0000E+00 0.0000E+00
       23  1    3    3    0    0 -.10411815E+03 -.16986204E+03 0.38615401E+03 0.44398634E+03 0.91188000E+02 0.0000E+00 0.9000E+01
      -11  1    4    4    0    0 -.81918031E+01 0.19640684E+02 -.30136013E+02 0.36892294E+02 0.51099893E-03 0.0000E+00 0.9000E+01
       11  1    4    4    0    0 0.12527372E+03 0.52583356E+03 -.15896089E+04 0.16790029E+04 0.51099893E-03 0.0000E+00 0.9000E+01
       23  1    3    3    0    0 -.12963762E+02 -.37561221E+03 0.29656936E+03 0.48736150E+03 0.91188000E+02 0.0000E+00 0.9000E+01
#aMCatNLO 1  0  0  2  2 0.50152304D+03 0.00000000D+00  -5  7  0 0.00000000D+00 0.00000000D+00 0.00000000D+00 0.00000000D+00 0.00000000D+00
  <mgrwgt>
 0.4577598179D-03    4    2    0
 0.123793038710001D+04 0.000000000000000D+00 0.000000000000000D+00 0.123793038710001D+04
 0.123793038710001D+04 0.000000000000000D+00 0.000000000000000D+00 -.123793038710001D+04
 0.620864636683203D+03 -.104118150629059D+03 -.169862036038053D+03 0.580916470038816D+03
 0.280406630119526D+02 -.819180312821362D+01 0.196406841272238D+02 -.182597007279174D+02
 0.119361766611975D+04 0.125273716218550D+03 0.525833561930046D+03 -.106420331424306D+04
 0.633337808385119D+03 -.129637624612779D+02 -.375612210019217D+03 0.501546544932165D+03
 0.000000000000000D+00 -.000000000000000D+00 -.000000000000000D+00 0.000000000000000D+00
 0.174162342290936D+04 0.000000000000000D+00 0.000000000000000D+00 0.174162342290936D+04
 0.139447239782459D+04 0.000000000000000D+00 0.000000000000000D+00 -.139447239782459D+04
 0.612025737976814D+03 0.194900951469114D+02 -.168571775902342D+03 0.580916470038816D+03
 0.269924141996382D+02 -.267424676343614D+01 0.196982780440318D+02 -.182597007279174D+02
 0.124434660197587D+04 0.369701357667936D+03 0.528384971343294D+03 -.106420331424306D+04
 0.642780912551475D+03 0.114978510216733D+03 -.374276710004049D+03 0.501546544932165D+03
 0.609950154030152D+03 -.501495716268144D+03 -.523476348093464D+01 0.347151025084769D+03
0.113608394314D-02 0.000000000000D+00 0.000000000000D+00 0.105925333983D-05 0.000000000000D+00  7 -2 2 23 -11 11 23 21 0 0.13155550D+00 0.27571266D+00 0.34086924D+06 0.34086924D+06 0.34086924D+06 0.10804719D+01  1  2  2  2  7  2        2 0.532321133549D-03 0.100000000000D+01
-.197689520015D-04 0.000000000000D+00 -.436286147944D-05 0.105925333983D-05 0.000000000000D+00  7 -2 2 23 -11 11 23 21 2 0.13155550D+00 0.27571266D+00 0.34086924D+06 0.34086924D+06 0.34086924D+06 0.10804719D+01  1  2  3  2  7  2        2 -.108136894306D-04 0.100000000000D+01
0.668370441888D-04 0.000000000000D+00 0.000000000000D+00 0.105925333983D-05 0.000000000000D+00  7 -2 2 23 -11 11 23 21 2 0.13155550D+00 0.27571266D+00 0.34086924D+06 0.34086924D+06 0.34086924D+06 0.10804719D+01  1  2 15  2  7  2        2 0.365601089155D-04 0.100000000000D+01
-.183376711042D-03 0.000000000000D+00 0.000000000000D+00 0.105925333983D-05 0.000000000000D+00  7 -2 2 23 -11 11 23 21 2 0.13155550D+00 0.27571266D+00 0.34086924D+06 0.34086924D+06 0.34086924D+06 0.10804719D+01  1  2  4  2  7  2        2 -.100307735173D-03 0.100000000000D+01
  </mgrwgt>
  </event>
  <event>
  9     66 0.53686478E-06 0.20411079E+03 0.75467711E-02 0.97383960E-01
       -2 -1    0    0    0  501 0.00000000E+00 0.00000000E+00 0.83946643E+02 0.83947253E+02 0.32000000E+00 0.0000E+00 0.9000E+01
        2 -1    0    0  502    0 0.00000000E+00 0.00000000E+00 -.21141989E+04 0.21141989E+04 0.32000000E+00 0.0000E+00 0.9000E+01
       25  2    1    2    0    0 0.11108645E+03 0.14404988E+03 -.77806906E+03 0.85347216E+03 0.29988783E+03 0.0000E+00 0.0000E+00
       23  2    1    2    0    0 0.15701519E+03 -.38840271E+02 -.33245199E+03 0.38090349E+03 0.91655919E+02 0.0000E+00 0.0000E+00
       23  1    3    3    0    0 0.14566288E+03 0.46127887E+02 -.61240805E+03 0.63773374E+03 0.91188000E+02 0.0000E+00 0.9000E+01
      -11  1    4    4    0    0 -.46504539E+01 -.22507767E+02 -.50442871E+02 0.55432027E+02 0.51099893E-03 0.0000E+00 0.9000E+01
       11  1    4    4    0    0 0.16166565E+03 -.16332504E+02 -.28200911E+03 0.32547146E+03 0.51099893E-03 0.0000E+00 0.9000E+01
       23  1    3    3    0    0 -.34576427E+02 0.97921993E+02 -.16566100E+03 0.21573842E+03 0.91188000E+02 0.0000E+00 0.9000E+01
       21  1    1    2  502  501 -.26810164E+03 -.10520961E+03 -.91973119E+03 0.96377050E+03 0.75000000E+00 0.0000E+00 0.9000E+01
#aMCatNLO 2  0  0  2  2 0.28800617D+03 0.00000000D+00  -5  7  0 0.00000000D+00 0.00000000D+00 0.00000000D+00 0.00000000D+00 0.00000000D+00
  <mgrwgt>
 0.1257785979D-04    1    2    0
 0.227749158053970D+03 0.000000000000000D+00 0.000000000000000D+00 0.227749158053970D+03
 0.227749158053970D+03 0.000000000000000D+00 0.000000000000000D+00 -.227749158053970D+03
 0.138761053487735D+03 0.546658814641711D+02 0.104184517105707D+02 -.885577545375087D+02
 0.351722524116669D+02 -.203397463732783D+02 -.286646275250046D+02 -.131193979795894D+01
 0.103079423900656D+03 0.895609688029515D+02 -.446281343704398D+02 0.247493458778583D+02
 0.178485586307882D+03 -.123887103893844D+03 0.628743101848737D+02 0.651203484576093D+02
 0.000000000000000D+00 -.000000000000000D+00 -.000000000000000D+00 -.000000000000000D+00
 0.365266847452772D+03 0.000000000000000D+00 0.000000000000000D+00 0.365266847452772D+03
 0.485891888826825D+03 0.000000000000000D+00 0.000000000000000D+00 -.485891888826825D+03
 0.198754075251027D+03 0.145662875350976D+03 0.461278868001921D+02 -.885577545375087D+02
 0.230205885076900D+02 -.465045383939252D+01 -.225077672880852D+02 -.131193979795894D+01
 0.164362593362058D+03 0.161665646601755D+03 -.163325039156871D+02 0.247493458778583D+02
 0.152774857983451D+03 -.345764269568996D+02 0.979219934617211D+02 0.651203484576093D+02
 0.312246621175370D+03 -.268101641156439D+03 -.105209609058141D+03 -.120625041374053D+03
0.330242906395D-06 0.000000000000D+00 0.000000000000D+00 0.160270398960D-06 0.224570664256D-10  7 -2 2 23 -11 11 23 21 2 0.12914903D-01 0.32526105D+00 0.15587233D+06 0.15587233D+06 0.15587233D+06 0.11062382D+01  1  2  1  2  7  2        2 0.125778597908D-04 0.100000000000D+01
  </mgrwgt>
  </event>
  <event>
  7     66 0.53686478E-06 0.25810680E+03 0.75467711E-02 0.95505380E-01
       -2 -1    0    0    0  501 0.00000000E+00 0.00000000E+00 0.34064493E+02 0.34065996E+02 0.32000000E+00 0.0000E+00 0.9000E+01
        2 -1    0    0  501    0 0.00000000E+00 0.00000000E+00 -.22935709E+04 0.22935710E+04 0.32000000E+00 0.0000E+00 0.9000E+01
       23  2    1    2    0    0 0.13985079E+03 -.33877410E+02 -.10493091E+04 0.10630611E+04 0.91341705E+02 0.0000E+00 0.0000E+00
       23  1    1    2    0    0 0.15617598E+02 0.12705057E+03 -.65113824E+03 0.66983730E+03 0.91188000E+02 0.0000E+00 0.9000E+01
      -11  1    3    3    0    0 0.28605325E+02 0.17586469E+02 -.45534891E+03 0.45658535E+03 0.51099893E-03 0.0000E+00 0.9000E+01
       11  1    3    3    0    0 0.11124546E+03 -.51463878E+02 -.59396023E+03 0.60647575E+03 0.51099893E-03 0.0000E+00 0.9000E+01
       23  1    1    2    0    0 -.15546839E+03 -.93173159E+02 -.55905907E+03 0.59473856E+03 0.91188000E+02 0.0000E+00 0.9000E+01
#aMCatNLO 1  0  0  1  2 0.31968642D+03 0.00000000D+00  -5  7  0 0.00000000D+00 0.00000000D+00 0.00000000D+00 0.00000000D+00 0.00000000D+00
  <mgrwgt>
 0.2390980612D-03    3    2    0
 0.279519420243590D+03 0.000000000000000D+00 0.000000000000000D+00 0.279519420243590D+03
 0.279519420243590D+03 0.000000000000000D+00 0.000000000000000D+00 -.279519420243590D+03
 0.157210910899567D+03 0.156175698769933D+02 0.127050548591024D+03 -.377740330501633D+01
 0.606418203869599D+02 0.286053341304921D+02 0.175864665450746D+02 -.504963506957303D+02
 0.124496572056919D+03 0.111245482890668D+03 -.514638832404069D+02 -.218015529759598D+02
 0.216689537143735D+03 -.155468386898153D+03 -.931731318956914D+02 0.760753069767065D+02
 0.000000000000000D+00 -.000000000000000D+00 -.000000000000000D+00 -.000000000000000D+00
 0.388274279599093D+03 0.000000000000000D+00 0.000000000000000D+00 0.388274279599093D+03
 0.707484670987032D+03 0.000000000000000D+00 0.000000000000000D+00 -.707484670987032D+03
 0.245002905945581D+03 0.787457793025911D+02 0.213297927894479D+03 -.377740330501633D+01
 0.876337889646221D+02 0.518774678261343D+02 0.493814526584440D+02 -.504963506957303D+02
 0.157240808723794D+03 0.155464690764851D+03 0.894953302348836D+01 -.218015529759598D+02
 0.154113051149013D+03 -.972702284338199D+02 -.136613146984718D+02 0.760753069767065D+02
 0.451768395803114D+03 -.188817709459757D+03 -.257967598877939D+03 -.319210391387939D+03
0.235837123373D-05 0.000000000000D+00 0.000000000000D+00 0.290775967687D-09 0.000000000000D+00  7 -2 2 23 -11 11 23 21 0 0.52408086D-02 0.35285718D+00 0.66619119D+05 0.66619119D+05 0.66619119D+05 0.11364918D+01  1  2  2  1  7  1       -2 0.236657753710D-03 0.100000000000D+01
-.130008766043D-06 0.000000000000D+00 -.905676651092D-08 0.290775967687D-09 0.000000000000D+00  7 -2 2 23 -11 11 23 21 2 0.52408086D-02 0.35285718D+00 0.66619119D+05 0.66619119D+05 0.66619119D+05 0.11364918D+01  1  2  3  1  7  1       -2 -.168505400296D-04 0.100000000000D+01
0.148836730313D-06 0.000000000000D+00 0.000000000000D+00 0.290775967687D-09 0.000000000000D+00  7 -2 2 23 -11 11 23 21 2 0.52408086D-02 0.35285718D+00 0.66619119D+05 0.66619119D+05 0.66619119D+05 0.11364918D+01  1  2 15  1  7  1       -2 0.192908475201D-04 0.100000000000D+01
  </mgrwgt>
  </event>
  <event>
  8     66 0.53686478E-06 0.20083858E+03 0.75467711E-02 0.97096832E-01
       -2 -1    0    0    0  501 0.00000000E+00 0.00000000E+00 0.34790033E+02 0.34791504E+02 0.32000000E+00 0.0000E+00 0.9000E+01
        2 -1    0    0  501    0 0.00000000E+00 0.00000000E+00 -.29863294E+04 0.29863294E+04 0.32000000E+00 0.0000E+00 0.9000E+01
       25  2    1    2    0    0 -.12895908E+03 -.28907811E+01 -.27333043E+04 0.27526353E+04 0.29901412E+03 0.0000E+00 0.0000E+00
       23  2    1    2    0    0 0.12895908E+03 0.28907811E+01 -.21823499E+03 0.26848563E+03 0.88426354E+02 0.0000E+00 0.0000E+00
       23  1    3    3    0    0 -.12750438E+03 -.39392424E+02 -.23925714E+04 0.23980246E+04 0.91188000E+02 0.0000E+00 0.9000E+01
      -11  1    4    4    0    0 0.27367004E+02 -.24351346E+02 -.11661518E+03 0.12223356E+03 0.51099893E-03 0.0000E+00 0.9000E+01
       11  1    4    4    0    0 0.10159208E+03 0.27242127E+02 -.10161981E+03 0.14625207E+03 0.51099893E-03 0.0000E+00 0.9000E+01
       23  1    3    3    0    0 -.14546997E+01 0.36501643E+02 -.34073296E+03 0.35461061E+03 0.91188000E+02 0.0000E+00 0.9000E+01
#aMCatNLO 1  0  0  1  2 0.30985753D+03 0.00000000D+00  -5  7  0 0.00000000D+00 0.00000000D+00 0.00000000D+00 0.00000000D+00 0.00000000D+00
  <mgrwgt>
 0.3487081611D-03    3    2    0
 0.322330180016595D+03 0.000000000000000D+00 0.000000000000000D+00 0.322330180016595D+03
 0.322330180016595D+03 0.000000000000000D+00 0.000000000000000D+00 -.322330180016595D+03
 0.283798747480564D+03 -.127504380222154D+03 -.393924236884293D+02 -.233275261670954D+03
 0.389166866721130D+02 0.273670042074140D+02 -.243513456834293D+02 0.131364967039517D+02
 0.220131935798930D+03 0.101592075710144D+03 0.272421267887401D+02 0.193377831820285D+03
 0.101812990081583D+03 -.145469969540413D+01 0.365016425831185D+02 0.267609331467173D+02
 0.000000000000000D+00 0.000000000000000D+00 0.000000000000000D+00 -.000000000000000D+00
 0.479227662029537D+03 0.000000000000000D+00 0.000000000000000D+00 0.479227662029537D+03
 0.555027896619206D+03 0.000000000000000D+00 0.000000000000000D+00 -.555027896619206D+03
 0.356565257308624D+03 -.185367754811752D+03 -.173334875728930D+03 -.233275261670954D+03
 0.487068814964668D+02 0.194493272144906D+02 -.426792271528152D+02 0.131364967039517D+02
 0.212854606842818D+03 0.624673555170067D+02 -.633239868407522D+02 0.193377831820285D+03
 0.971345127798922D+02 -.194316218766069D+02 -.511143398162857D+01 0.267609331467173D+02
 0.318994300220942D+03 0.122882693956861D+03 0.284449523704126D+03 -.758002345896693D+02
0.866514615123D-05 0.000000000000D+00 0.000000000000D+00 0.254893969182D-07 0.000000000000D+00  7 -2 2 23 -11 11 23 21 0 0.53524272D-02 0.45943540D+00 0.40336137D+05 0.40336137D+05 0.40336137D+05 0.11555914D+01  1  2  2  1  7  1       -2 0.339824904089D-03 0.100000000000D+01
-.350405027296D-06 0.000000000000D+00 -.332764428061D-07 0.254893969182D-07 0.000000000000D+00  7 -2 2 23 -11 11 23 21 2 0.53524272D-02 0.45943540D+00 0.40336137D+05 0.40336137D+05 0.40336137D+05 0.11555914D+01  1  2  3  1  7  1       -2 -.183509363038D-04 0.100000000000D+01
0.520027866622D-06 0.000000000000D+00 0.000000000000D+00 0.254893969182D-07 0.000000000000D+00  7 -2 2 23 -11 11 23 21 2 0.53524272D-02 0.45943540D+00 0.40336137D+05 0.40336137D+05 0.40336137D+05 0.11555914D+01  1  2 15  1  7  1       -2 0.272341933283D-04 0.100000000000D+01
  </mgrwgt>
  </event>
  <event>
  8     66 0.53686478E-06 0.19039189E+03 0.75467711E-02 0.90282043E-01
       -4 -1    0    0    0  501 0.00000000E+00 0.00000000E+00 0.18718289E+03 0.18718930E+03 0.15500000E+01 0.0000E+00 0.9000E+01
        4 -1    0    0  501    0 0.00000000E+00 0.00000000E+00 -.47652453E+03 0.47652705E+03 0.15500000E+01 0.0000E+00 0.9000E+01
       25  2    1    2    0    0 0.48244509E+02 0.24950482E+02 0.50286972E+02 0.30816769E+03 0.29914626E+03 0.0000E+00 0.0000E+00
       23  2    1    2    0    0 -.48244509E+02 -.24950482E+02 -.33962862E+03 0.35554867E+03 0.90095491E+02 0.0000E+00 0.0000E+00
       23  1    3    3    0    0 0.47484807E+02 -.88622207E+02 0.82711243E+02 0.15895000E+03 0.91188000E+02 0.0000E+00 0.9000E+01
      -13  1    4    4    0    0 0.23810480E+02 -.25863830E+01 -.40497232E+02 0.47049605E+02 0.10565837E+00 0.0000E+00 0.9000E+01
       13  1    4    4    0    0 -.72054990E+02 -.22364099E+02 -.29913138E+03 0.30849906E+03 0.10565837E+00 0.0000E+00 0.9000E+01
       23  1    3    3    0    0 0.75970260E+00 0.11357269E+03 -.32424271E+02 0.14921769E+03 0.91188000E+02 0.0000E+00 0.9000E+01
#aMCatNLO 1  0  0  2  1 0.68805265D+03 0.00000000D+00  -5  7  0 0.00000000D+00 0.00000000D+00 0.00000000D+00 0.00000000D+00 0.00000000D+00
  <mgrwgt>
 0.1494307469D-04    5    2    0
 0.298664030040526D+03 0.000000000000000D+00 0.000000000000000D+00 0.298664030040526D+03
 0.298664030040526D+03 0.000000000000000D+00 0.000000000000000D+00 -.298664030040526D+03
 0.216680802685486D+03 0.474848068639897D+02 -.886222061763455D+02 0.168898243324060D+03
 0.326619859196706D+02 0.238106117759798D+02 -.258635582482023D+01 -.222074504303792D+02
 0.197889316181870D+03 -.720551213904837D+02 -.223641265104774D+02 -.182942851146892D+03
 0.150095955294026D+03 0.759702750514165D+00 0.113572688511643D+03 0.362520582532117D+02
 0.000000000000000D+00 0.000000000000000D+00 0.000000000000000D+00 -.000000000000000D+00
 0.615187627124350D+03 0.000000000000000D+00 0.000000000000000D+00 0.615187627124350D+03
 0.119711899618873D+04 0.000000000000000D+00 0.000000000000000D+00 -.119711899618873D+04
 0.347280972924610D+03 -.159289038999161D+03 -.241638590188392D+03 0.168898243324060D+03
 0.295478453455238D+02 0.100167929596142D+01 -.194653782016503D+02 -.222074504303792D+02
 0.383901355309355D+03 -.285365845333442D+03 -.180217918475761D+03 -.182942851146892D+03
 0.150432415432629D+03 -.109427564709080D+03 0.320321186177403D+02 0.362520582532117D+02
 0.901144034300967D+03 0.553080769745722D+03 0.409289768248063D+03 -.581931369064384D+03
0.326346469744D-05 0.000000000000D+00 0.000000000000D+00 0.123196743461D-06 0.000000000000D+00  7 -4 4 23 -13 13 23 21 0 0.28798055D-01 0.73312154D-01 0.36249071D+05 0.36249071D+05 0.36249071D+05 0.11597875D+01  1  2  2  2  7  2        4 0.144461894572D-04 0.100000000000D+01
-.136618158551D-06 0.000000000000D+00 -.125325637281D-07 0.123196743461D-06 0.000000000000D+00  7 -4 4 23 -13 13 23 21 2 0.28798055D-01 0.73312154D-01 0.36249071D+05 0.36249071D+05 0.36249071D+05 0.11597875D+01  1  2  3  2  7  2        4 -.813466411838D-06 0.100000000000D+01
0.187645172912D-06 0.000000000000D+00 0.000000000000D+00 0.123196743461D-06 0.000000000000D+00  7 -4 4 23 -13 13 23 21 2 0.28798055D-01 0.73312154D-01 0.36249071D+05 0.36249071D+05 0.36249071D+05 0.11597875D+01  1  2 15  2  7  2        4 0.111729690347D-05 0.100000000000D+01
0.293166962902D-05 0.000000000000D+00 -.152990819400D-05 0.123196743461D-06 0.000000000000D+00  7 -4 4 23 -13 13 23 21 2 0.28798055D-01 0.41839226D+00 0.36249071D+05 0.36249071D+05 0.36249071D+05 0.11597875D+01  1  2  5  2  7  2        4 0.152632217520D-07 0.100000000000D+01
0.542729237635D-06 0.000000000000D+00 -.326395497191D-06 0.123196743461D-06 0.000000000000D+00  7 -4 21 23 -13 13 23 -4 2 0.28798055D-01 0.41839226D+00 0.36249071D+05 0.36249071D+05 0.36249071D+05 0.11597875D+01  1  2  5  4  7  2        4 0.177791520042D-06 0.100000000000D+01
  </mgrwgt>
  </event>
  <event>
  8     66 0.53686478E-06 0.97858082E+02 0.75467711E-02 0.10597727E+00
       -2 -1    0    0    0  501 0.00000000E+00 0.00000000E+00 0.39730263E+03 0.39730276E+03 0.32000000E+00 0.0000E+00 0.9000E+01
        2 -1    0    0  501    0 0.00000000E+00 0.00000000E+00 -.11029891E+03 0.11029938E+03 0.32000000E+00 0.0000E+00 0.9000E+01
       25  2    1    2    0    0 0.59936426E+02 -.26160198E+02 0.23175754E+03 0.38437434E+03 0.29959197E+03 0.0000E+00 0.0000E+00
       23  2    1    2    0    0 -.59936426E+02 0.26160198E+02 0.55246178E+02 0.12322780E+03 0.88635313E+02 0.0000E+00 0.0000E+00
       23  1    3    3    0    0 -.12558531E+02 0.30971236E+02 -.21810532E+02 0.99538358E+02 0.91188000E+02 0.0000E+00 0.9000E+01
      -13  1    4    4    0    0 -.13086413E+02 -.61891405E+01 -.22566545E+02 0.26810815E+02 0.10565837E+00 0.0000E+00 0.9000E+01
       13  1    4    4    0    0 -.46850013E+02 0.32349339E+02 0.77812723E+02 0.96416983E+02 0.10565837E+00 0.0000E+00 0.9000E+01
       23  1    3    3    0    0 0.72494957E+02 -.57131434E+02 0.25356807E+03 0.28483598E+03 0.91188000E+02 0.0000E+00 0.9000E+01
#aMCatNLO 1  0  0  1  2 0.10235716D+03 0.00000000D+00  -5  7  0 0.00000000D+00 0.00000000D+00 0.00000000D+00 0.00000000D+00 0.00000000D+00
  <mgrwgt>
 0.6212283069D-03    9    2    0
 0.209337525388744D+03 0.000000000000000D+00 0.000000000000000D+00 0.209337525388744D+03
 0.209337525388744D+03 0.000000000000000D+00 0.000000000000000D+00 -.209337525388744D+03
 0.135631606259468D+03 -.125584238164114D+02 0.309711889983063D+02 -.946770971027414D+02
 0.479748535257966D+02 -.130865104103816D+02 -.618909353834685D+01 -.457386591110213D+02
 0.635551019086773D+02 -.468501583501337D+02 0.323493976603772D+02 0.282458866421384D+02
 0.171513489083545D+03 0.724950925769267D+02 -.571314931203367D+02 0.112169869571624D+03
 0.000000000000000D+00 -.000000000000000D+00 -.000000000000000D+00 0.000000000000000D+00
 0.277447710937261D+03 0.000000000000000D+00 0.000000000000000D+00 0.277447710937261D+03
 0.257786250898473D+03 0.000000000000000D+00 0.000000000000000D+00 -.257786250898473D+03
 0.138506940712356D+03 0.194569037464983D+02 0.390716964348083D+02 -.946770971027414D+02
 0.459149917960920D+02 -.212156518098944D+01 -.341474677594080D+01 -.457386591110213D+02
 0.562628619762211D+02 -.328571923697232D+02 0.358898932170853D+02 0.282458866421384D+02
 0.190320758164332D+03 0.114751980844122D+03 -.464396694312231D+02 0.112169869571624D+03
 0.104228409186732D+03 -.992301270399079D+02 -.251071734447297D+02 0.196614600387885D+02
0.541785020061D-05 0.000000000000D+00 0.000000000000D+00 0.152452682728D-07 0.000000000000D+00  7 -2 2 23 -13 13 23 21 0 0.61123528D-01 0.16969109D-01 0.22242458D+05 0.22242458D+05 0.22242458D+05 0.11795873D+01  1  2  2  1  7  1       -2 0.571601961237D-03 0.100000000000D+01
-.258917892096D-06 0.000000000000D+00 -.208059713231D-07 0.152452682728D-07 0.000000000000D+00  7 -2 2 23 -13 13 23 21 2 0.61123528D-01 0.16969109D-01 0.22242458D+05 0.22242458D+05 0.22242458D+05 0.11795873D+01  1  2  3  1  7  1       -2 -.380092185193D-04 0.100000000000D+01
0.352229809169D-06 0.000000000000D+00 0.000000000000D+00 0.152452682728D-07 0.000000000000D+00  7 -2 2 23 -13 13 23 21 2 0.61123528D-01 0.16969109D-01 0.22242458D+05 0.22242458D+05 0.22242458D+05 0.11795873D+01  1  2 15  1  7  1       -2 0.517074338793D-04 0.100000000000D+01
0.559456886130D-06 0.000000000000D+00 0.000000000000D+00 0.152452682728D-07 0.000000000000D+00  7 -2 2 23 -13 13 23 21 2 0.86165177D-01 0.16969109D-01 0.42001420D+05 0.42001420D+05 0.42001420D+05 0.11540146D+01  1  2 12  1  7  1       -2 0.378098150207D-04 0.100000000000D+01
-.225516140617D-05 0.000000000000D+00 0.000000000000D+00 0.152452682728D-07 0.000000000000D+00  7 -2 2 23 -13 13 23 21 2 0.61123528D-01 0.16969109D-01 0.22242458D+05 0.22242458D+05 0.22242458D+05 0.11795873D+01  1  2  4  1  7  1       -2 -.331058321190D-03 0.100000000000D+01
-.252366388619D-05 0.000000000000D+00 -.198350106900D-05 0.152452682728D-07 0.000000000000D+00  7 -2 2 23 -13 13 23 21 2 0.96329194D-01 0.16969109D-01 0.22242458D+05 0.22242458D+05 0.22242458D+05 0.11795873D+01  1  2  5  1  7  1       -2 -.138229085280D-03 0.100000000000D+01
0.327056222769D-05 0.000000000000D+00 0.179461493612D-05 0.152452682728D-07 0.000000000000D+00  7 -2 2 23 -13 13 23 21 2 0.61123528D-01 0.16969109D-01 0.22242458D+05 0.22242458D+05 0.22242458D+05 0.11795873D+01  1  2  6  1  7  1       -2 0.480119443994D-03 0.100000000000D+01
0.238367251928D-07 0.000000000000D+00 0.000000000000D+00 0.152452682728D-07 0.000000000000D+00  7 21 2 23 -13 13 23 2 2 0.86165177D-01 0.16969109D-01 0.42001420D+05 0.42001420D+05 0.42001420D+05 0.11540146D+01  1  2 12  3  7  1       -2 0.162614570129D-04 0.100000000000D+01
-.522265848556D-07 0.000000000000D+00 -.103920140969D-06 0.152452682728D-07 0.000000000000D+00  7 21 2 23 -13 13 23 2 2 0.96329194D-01 0.16969109D-01 0.22242458D+05 0.22242458D+05 0.22242458D+05 0.11795873D+01  1  2  5  3  7  1       -2 -.289751792369D-04 0.100000000000D+01
  </mgrwgt>
  </event>
  <event>
  9     66 0.53686478E-06 0.27648274E+03 0.75467711E-02 0.97838360E-01
       21 -1    0    0  502  501 0.00000000E+00 0.00000000E+00 0.60288749E+02 0.60293414E+02 0.75000000E+00 0.0000E+00 0.9000E+01
        2 -1    0    0  501    0 0.00000000E+00 0.00000000E+00 -.29285564E+04 0.29285564E+04 0.32000000E+00 0.0000E+00 0.9000E+01
       25  2    1    2    0    0 0.21759184E+03 0.15687882E+03 -.16430079E+04 0.16915320E+04 0.29974717E+03 0.0000E+00 0.0000E+00
       23  2    1    2    0    0 -.42333170E+02 -.19422420E+03 -.43390301E+03 0.48592652E+03 0.91310573E+02 0.0000E+00 0.0000E+00
       23  1    3    3    0    0 0.17829856E+01 0.15325008E+02 -.17214191E+03 0.19541270E+03 0.91188000E+02 0.0000E+00 0.9000E+01
      -11  1    4    4    0    0 -.67257521E+02 -.13576611E+03 -.26202810E+03 0.30267926E+03 0.51099893E-03 0.0000E+00 0.9000E+01
       11  1    4    4    0    0 0.24924351E+02 -.58458087E+02 -.17187491E+03 0.18324725E+03 0.51099893E-03 0.0000E+00 0.9000E+01
       23  1    3    3    0    0 0.21580885E+03 0.14155381E+03 -.14708659E+04 0.14961193E+04 0.91188000E+02 0.0000E+00 0.9000E+01
        2  1    1    2  502    0 -.17525867E+03 0.37345376E+02 -.79135680E+03 0.81139138E+03 0.32000000E+00 0.0000E+00 0.9000E+01
#aMCatNLO 2  0  0  1  2 0.17919341D+03 0.00000000D+00  -5  7  0 0.00000000D+00 0.00000000D+00 0.00000000D+00 0.00000000D+00 0.00000000D+00
  <mgrwgt>
 0.2013965259D-04    1    2    0
 0.314506109087714D+03 0.000000000000000D+00 0.000000000000000D+00 0.314506109087714D+03
 0.314506109087714D+03 0.000000000000000D+00 0.000000000000000D+00 -.314506109087714D+03
 0.108486716792285D+03 -.272332556321281D+02 0.215079972868413D+02 0.474328179297180D+02
 0.193286774914641D+03 -.117648484501301D+03 -.125028441895041D+03 0.888059692180009D+02
 0.564266763436607D+02 0.843580605059729D+01 -.549445897773915D+02 0.969015137462325D+01
 0.270812050124843D+03 0.136445934082832D+03 0.158465034385591D+03 -.145928938522342D+03
 0.000000000000000D+00 -.000000000000000D+00 0.000000000000000D+00 -.000000000000000D+00
 0.392179352819724D+03 0.000000000000000D+00 0.000000000000000D+00 0.392179352819724D+03
 0.450217186526501D+03 0.000000000000000D+00 0.000000000000000D+00 -.450217186526501D+03
 0.103938243559902D+03 0.178298557303233D+01 0.153250081895625D+02 0.474328179297180D+02
 0.175620360494270D+03 -.672575210025545D+02 -.135766110351516D+03 0.888059692180009D+02
 0.642842929374727D+02 0.249243514407578D+02 -.584580874649974D+02 0.969015137462325D+01
 0.310195823793154D+03 0.215808851622049D+03 0.141553813859000D+03 -.145928938522342D+03
 0.188357818561426D+03 -.175258667633284D+03 0.373453757679503D+02 -.580378337067772D+02
0.629739462372D-07 0.000000000000D+00 0.000000000000D+00 0.342810497748D-06 0.310885032250D-11  7 21 2 23 -11 11 23 2 2 0.92755493D-02 0.45054735D+00 0.14457715D+06 0.14457715D+06 0.14457715D+06 0.11088161D+01  1  2  1  3  7  1       -2 0.201396525901D-04 0.100000000000D+01
  </mgrwgt>
  </event>
  <event>
  8     66 0.53686478E-06 0.33792151E+03 0.75467711E-02 0.91079966E-01
       -2 -1    0    0    0  501 0.00000000E+00 0.00000000E+00 0.53790529E+03 0.53790538E+03 0.32000000E+00 0.0000E+00 0.9000E+01
        2 -1    0    0  501    0 0.00000000E+00 0.00000000E+00 -.99843431E+03 0.99843436E+03 0.32000000E+00 0.0000E+00 0.9000E+01
       25  2    1    2    0    0 0.47967129E+03 0.45922640E+03 -.97061034E+01 0.72855343E+03 0.29953707E+03 0.0000E+00 0.0000E+00
       23  2    1    2    0    0 -.47967129E+03 -.45922640E+03 -.45082291E+03 0.80778631E+03 0.91126254E+02 0.0000E+00 0.0000E+00
       23  1    3    3    0    0 0.10355278E+03 0.19082783E+03 -.87459170E+02 0.25120270E+03 0.91188000E+02 0.0000E+00 0.9000E+01
      -13  1    4    4    0    0 -.70473632E+02 -.33808321E+02 -.72982624E+02 0.10693928E+03 0.10565837E+00 0.0000E+00 0.9000E+01
       13  1    4    4    0    0 -.40919766E+03 -.42541808E+03 -.37784029E+03 0.70084703E+03 0.10565837E+00 0.0000E+00 0.9000E+01
       23  1    3    3    0    0 0.37611851E+03 0.26839857E+03 0.77753066E+02 0.47735073E+03 0.91188000E+02 0.0000E+00 0.9000E+01
#aMCatNLO 1  0  0  1  2 0.91974310D+01 0.00000000D+00  -5  7  0 0.00000000D+00 0.00000000D+00 0.00000000D+00 0.00000000D+00 0.00000000D+00
  <mgrwgt>
 0.4850273204D-03   11    2    0
 0.732845964207306D+03 0.000000000000000D+00 0.000000000000000D+00 0.732845964207306D+03
 0.732845964207306D+03 0.000000000000000D+00 0.000000000000000D+00 -.732845964207306D+03
 0.235830732017793D+03 0.103552777384197D+03 0.190827826164624D+03 -.127454257422475D+02
 0.891615845567137D+02 -.704731769129296D+02 -.338077950289466D+02 -.428993297353659D+02
 0.615909626962584D+03 -.409198114641792D+03 -.425418605219978D+03 -.175842491711989D+03
 0.524789984877521D+03 0.376118514170525D+03 0.268398574084300D+03 0.231487247189602D+03
 0.000000000000000D+00 -.000000000000000D+00 0.000000000000000D+00 0.000000000000000D+00
 0.743878228195761D+03 0.000000000000000D+00 0.000000000000000D+00 0.743878228195761D+03
 0.734779842903985D+03 0.000000000000000D+00 0.000000000000000D+00 -.734779842903985D+03
 0.234850958337726D+03 0.103941171355514D+03 0.189403031411962D+03 -.127454257422475D+02
 0.892517140381073D+02 -.703259550196693D+02 -.343478677295676D+02 -.428993297353659D+02
 0.617822012146504D+03 -.408180072213815D+03 -.429153219082415D+03 -.175842491711989D+03
 0.523796101220038D+03 0.376983779428539D+03 0.265224412046983D+03 0.231487247189602D+03
 0.129372853573703D+02 -.241892355056883D+01 0.887364335303782D+01 0.909838529177670D+01
0.435903811034D-04 0.000000000000D+00 0.000000000000D+00 0.212037023514D-05 0.000000000000D+00  7 -2 2 23 -13 13 23 21 0 0.82754671D-01 0.15360529D+00 0.47258703D+06 0.47258703D+06 0.47258703D+06 0.10702454D+01  1  2  2  1  7  1       -2 0.177155191871D-03 0.100000000000D+01
-.240964748764D-05 0.000000000000D+00 -.167398541048D-06 0.212037023514D-05 0.000000000000D+00  7 -2 2 23 -13 13 23 21 2 0.82754671D-01 0.15360529D+00 0.47258703D+06 0.47258703D+06 0.47258703D+06 0.10702454D+01  1  2  3  1  7  1       -2 -.112171744974D-04 0.100000000000D+01
0.268533448264D-05 0.000000000000D+00 0.000000000000D+00 0.212037023514D-05 0.000000000000D+00  7 -2 2 23 -13 13 23 21 2 0.82754671D-01 0.15360529D+00 0.47258703D+06 0.47258703D+06 0.47258703D+06 0.10702454D+01  1  2 15  1  7  1       -2 0.125005278283D-04 0.100000000000D+01
0.478737864977D-04 0.000000000000D+00 0.000000000000D+00 0.212037023514D-05 0.000000000000D+00  7 -2 2 23 -13 13 23 21 2 0.84108668D-01 0.15360529D+00 0.47893721D+06 0.47893721D+06 0.47893721D+06 0.10698339D+01  1  2 12  1  7  1       -2 0.214447742875D-03 0.100000000000D+01
-.486478436784D-04 0.000000000000D+00 0.000000000000D+00 0.212037023514D-05 0.000000000000D+00  7 -2 2 23 -13 13 23 21 2 0.82754671D-01 0.15360529D+00 0.47258703D+06 0.47258703D+06 0.47258703D+06 0.10702454D+01  1  2  4  1  7  1       -2 -.226461071282D-03 0.100000000000D+01
-.333937748087D-02 0.000000000000D+00 -.312010082959D-03 0.212037023514D-05 0.000000000000D+00  7 -2 2 23 -13 13 23 21 2 0.84145225D-01 0.15360529D+00 0.47258703D+06 0.47258703D+06 0.47258703D+06 0.10702454D+01  1  2  5  1  7  1       -2 -.149632942954D-01 0.100000000000D+01
0.334415572936D-02 0.000000000000D+00 0.311966768598D-03 0.212037023514D-05 0.000000000000D+00  7 -2 2 23 -13 13 23 21 2 0.82754671D-01 0.15360529D+00 0.47258703D+06 0.47258703D+06 0.47258703D+06 0.10702454D+01  1  2  6  1  7  1       -2 0.155674133063D-01 0.100000000000D+01
0.826227375439D-07 0.000000000000D+00 0.000000000000D+00 0.212037023514D-05 0.153026524764D-06  7 -2 2 23 -13 13 23 21 2 0.84000460D-01 0.15401063D+00 0.47893721D+06 0.47893721D+06 0.47893721D+06 0.10698339D+01  1  2 11  1  7  1       -2 0.369789957600D-06 0.100000000000D+01
0.333609858088D-05 0.000000000000D+00 0.000000000000D+00 0.212037023514D-05 0.000000000000D+00  7 21 2 23 -13 13 23 2 2 0.84108668D-01 0.15360529D+00 0.47893721D+06 0.47893721D+06 0.47893721D+06 0.10698339D+01  1  2 12  3  7  1       -2 0.139928411756D-03 0.100000000000D+01
-.101459019132D-04 0.000000000000D+00 -.950940980013D-06 0.212037023514D-05 0.000000000000D+00  7 21 2 23 -13 13 23 2 2 0.84145225D-01 0.15360529D+00 0.47258703D+06 0.47258703D+06 0.47258703D+06 0.10702454D+01  1  2  5  3  7  1       -2 -.425825314564D-03 0.100000000000D+01
0.243464335127D-09 0.000000000000D+00 0.000000000000D+00 0.212037023514D-05 0.419826857626D-09  7 21 2 23 -13 13 23 2 2 0.84000460D-01 0.15401063D+00 0.47893721D+06 0.47893721D+06 0.47893721D+06 0.10698339D+01  1  2 11  3  7  1       -2 0.102055107878D-07 0.100000000000D+01
  </mgrwgt>
  </event>
  <event>
  8     66 0.53686478E-06 0.40982584E+03 0.75467711E-02 0.91262092E-01
       -2 -1    0    0    0  501 0.00000000E+00 0.00000000E+00 0.16796983E+03 0.16797013E+03 0.32000000E+00 0.0000E+00 0.9000E+01
        2 -1    0    0  501    0 0.00000000E+00 0.00000000E+00 -.10632009E+04 0.10632009E+04 0.32000000E+00 0.0000E+00 0.9000E+01
       25  2    1    2    0    0 0.35380661E+03 0.79989372E+01 -.61375707E+03 0.76944549E+03 0.30017582E+03 0.0000E+00 0.0000E+00
       23  2    1    2    0    0 -.35380661E+03 -.79989372E+01 -.28147397E+03 0.46172556E+03 0.93379857E+02 0.0000E+00 0.0000E+00
       23  1    3    3    0    0 0.27157185E+02 -.61839518E+02 -.10904284E+03 0.15737608E+03 0.91188000E+02 0.0000E+00 0.9000E+01
      -13  1    4    4    0    0 -.23940670E+03 -.36116535E+02 -.22718442E+03 0.33201316E+03 0.10565837E+00 0.0000E+00 0.9000E+01
       13  1    4    4    0    0 -.11439991E+03 0.28117598E+02 -.54289557E+02 0.12971240E+03 0.10565837E+00 0.0000E+00 0.9000E+01
       23  1    3    3    0    0 0.32664942E+03 0.69838455E+02 -.50471423E+03 0.61206941E+03 0.91188000E+02 0.0000E+00 0.9000E+01
#aMCatNLO 1  0  0  1  2 0.43459565D+03 0.00000000D+00  -5  7  0 0.00000000D+00 0.00000000D+00 0.00000000D+00 0.00000000D+00 0.00000000D+00
  <mgrwgt>
 0.2287891656D-03    5    2    0
 0.422594231463827D+03 0.000000000000000D+00 0.000000000000000D+00 0.422594231463827D+03
 0.422594231463827D+03 0.000000000000000D+00 0.000000000000000D+00 -.422594231463827D+03
 0.113747813844329D+03 0.271571852298423D+02 -.618395175706640D+02 0.785335389396213D+01
 0.243002103421235D+03 -.239406856639866D+03 -.361166172402193D+02 0.207356991704352D+02
 0.131445633385659D+03 -.114399752332537D+03 0.281176800000287D+02 0.583099243167678D+02
 0.356992912276431D+03 0.326649423742561D+03 0.698384548108546D+02 -.868989773811651D+02
 0.000000000000000D+00 0.000000000000000D+00 -.000000000000000D+00 0.000000000000000D+00
 0.722203768424330D+03 0.000000000000000D+00 0.000000000000000D+00 0.722203768424330D+03
 0.666344288190996D+03 0.000000000000000D+00 0.000000000000000D+00 -.666344288190996D+03
 0.105025079404867D+03 -.233437076806563D+02 -.459174488003720D+02 0.785335389396213D+01
 0.385066865299684D+03 -.384388454948088D+03 0.959360382025736D+01 0.207356991704352D+02
 0.208254272714591D+03 -.192815082151915D+03 0.528406938335068D+02 0.583099243167678D+02
 0.252031030703515D+03 0.186064123308076D+03 0.114162598258716D+03 -.868989773811651D+02
 0.438170808492671D+03 0.414483121472583D+03 -.130679447112108D+03 0.558594802333340D+02
0.578730959632D-05 0.000000000000D+00 0.000000000000D+00 0.165435824339D-06 0.000000000000D+00  7 -2 2 23 -13 13 23 21 0 0.25841539D-01 0.16356939D+00 0.16795722D+06 0.16795722D+06 0.16795722D+06 0.11036974D+01  1  2  2  1  7  1       -2 0.217665705134D-03 0.100000000000D+01
-.321149239175D-06 0.000000000000D+00 -.222247926835D-07 0.165435824339D-06 0.000000000000D+00  7 -2 2 23 -13 13 23 21 2 0.25841539D-01 0.16356939D+00 0.16795722D+06 0.16795722D+06 0.16795722D+06 0.11036974D+01  1  2  3  1  7  1       -2 -.147136422830D-04 0.100000000000D+01
0.374472584599D-06 0.000000000000D+00 0.000000000000D+00 0.165435824339D-06 0.000000000000D+00  7 -2 2 23 -13 13 23 21 2 0.25841539D-01 0.16356939D+00 0.16795722D+06 0.16795722D+06 0.16795722D+06 0.11036974D+01  1  2 15  1  7  1       -2 0.171566828828D-04 0.100000000000D+01
0.970040313153D-07 0.000000000000D+00 -.177023510679D-05 0.165435824339D-06 0.000000000000D+00  7 -2 2 23 -13 13 23 21 2 0.69248090D-01 0.16356939D+00 0.16795722D+06 0.16795722D+06 0.16795722D+06 0.11036974D+01  1  2  5  1  7  1       -2 0.677802982386D-06 0.100000000000D+01
0.114488585767D-06 0.000000000000D+00 -.194373875029D-06 0.165435824339D-06 0.000000000000D+00  7 21 2 23 -13 13 23 2 2 0.69248090D-01 0.16356939D+00 0.16795722D+06 0.16795722D+06 0.16795722D+06 0.11036974D+01  1  2  5  3  7  1       -2 0.800261687642D-05 0.100000000000D+01
  </mgrwgt>
  </event>
  <event>
  8     66 0.53686478E-06 0.45084814E+03 0.75467711E-02 0.87577302E-01
       -2 -1    0    0    0  501 0.00000000E+00 0.00000000E+00 0.51899248E+03 0.51899258E+03 0.32000000E+00 0.0000E+00 0.9000E+01
        2 -1    0    0  501    0 0.00000000E+00 0.00000000E+00 -.12762742E+04 0.12762743E+04 0.32000000E+00 0.0000E+00 0.9000E+01
       25  2    1    2    0    0 -.94465730E+02 -.74173246E+03 -.64926771E+03 0.10343000E+04 0.29855836E+03 0.0000E+00 0.0000E+00
       23  2    1    2    0    0 0.94465730E+02 0.74173246E+03 -.10801402E+03 0.76096684E+03 0.91173948E+02 0.0000E+00 0.0000E+00
       23  1    3    3    0    0 -.75489590E+01 -.41455597E+03 -.21407136E+03 0.47545287E+03 0.91188000E+02 0.0000E+00 0.9000E+01
      -11  1    4    4    0    0 0.96112558E+02 0.72780669E+03 -.11827330E+03 0.74359180E+03 0.51099893E-03 0.0000E+00 0.9000E+01
       11  1    4    4    0    0 -.16468286E+01 0.13925773E+02 0.10259276E+02 0.17375038E+02 0.51099893E-03 0.0000E+00 0.9000E+01
       23  1    3    3    0    0 -.86916771E+02 -.32717649E+03 -.43519635E+03 0.55884711E+03 0.91188000E+02 0.0000E+00 0.9000E+01
#aMCatNLO 1  0  0  1  2 0.39389782D+03 0.00000000D+00  -5  7  0 0.00000000D+00 0.00000000D+00 0.00000000D+00 0.00000000D+00 0.00000000D+00
  <mgrwgt>
 0.4320864347D-03    9    2    0
 0.813865369536461D+03 0.000000000000000D+00 0.000000000000000D+00 0.813865369536461D+03
 0.813865369536461D+03 0.000000000000000D+00 0.000000000000000D+00 -.813865369536461D+03
 0.424795346564690D+03 -.754895903630729D+01 -.414555968272368D+03 -.149062908277704D+02
 0.765101657616388D+03 0.961125582792832D+02 0.727806685832454D+03 0.215500233609931D+03
 0.239363857980367D+02 -.164682856599001D+01 0.139257726753175D+02 0.193987467673062D+02
 0.413897349093807D+03 -.869167706769859D+02 -.327176490235403D+03 -.219992689549467D+03
 0.000000000000000D+00 0.000000000000000D+00 -.000000000000000D+00 0.000000000000000D+00
 0.113320795621577D+04 0.000000000000000D+00 0.000000000000000D+00 0.113320795621577D+04
 0.968465621113976D+03 0.000000000000000D+00 0.000000000000000D+00 -.968465621113976D+03
 0.340004722997267D+03 -.290865318748963D+02 -.325913694823793D+03 -.149062908277704D+02
 0.952837859832733D+03 0.477335779916076D+02 0.926920245747608D+03 0.215500233609931D+03
 0.279960170301714D+02 -.310929954776712D+01 0.199448702611431D+02 0.193987467673062D+02
 0.353874167985043D+03 -.108538022597048D+03 -.238189818461288D+03 -.219992689549467D+03
 0.426960809484535D+03 0.930002760281033D+02 -.382761602723670D+03 0.164742335101797D+03
0.119058442985D-03 0.000000000000D+00 0.000000000000D+00 0.740522199278D-06 0.000000000000D+00  7 -2 2 23 -11 11 23 21 0 0.79845007D-01 0.19634989D+00 0.58009036D+06 0.58009036D+06 0.58009036D+06 0.10639797D+01  1  2  2  1  7  1       -2 0.354828429441D-03 0.100000000000D+01
-.657898032067D-05 0.000000000000D+00 -.457215769870D-06 0.740522199278D-06 0.000000000000D+00  7 -2 2 23 -11 11 23 21 2 0.79845007D-01 0.19634989D+00 0.58009036D+06 0.58009036D+06 0.58009036D+06 0.10639797D+01  1  2  3  1  7  1       -2 -.221964494371D-04 0.100000000000D+01
0.745925942129D-05 0.000000000000D+00 0.000000000000D+00 0.740522199278D-06 0.000000000000D+00  7 -2 2 23 -11 11 23 21 2 0.79845007D-01 0.19634989D+00 0.58009036D+06 0.58009036D+06 0.58009036D+06 0.10639797D+01  1  2 15  1  7  1       -2 0.251663732848D-04 0.100000000000D+01
0.373035499047D-04 0.000000000000D+00 0.000000000000D+00 0.740522199278D-06 0.000000000000D+00  7 -2 2 23 -11 11 23 21 2 0.11637049D+00 0.19634989D+00 0.95951078D+06 0.95951078D+06 0.95951078D+06 0.10490609D+01  1  2 12  1  7  1       -2 0.481801606834D-04 0.100000000000D+01
-.614011415974D-04 0.000000000000D+00 0.000000000000D+00 0.740522199278D-06 0.000000000000D+00  7 -2 2 23 -11 11 23 21 2 0.79845007D-01 0.19634989D+00 0.58009036D+06 0.58009036D+06 0.58009036D+06 0.10639797D+01  1  2  4  1  7  1       -2 -.207157837297D-03 0.100000000000D+01
-.862669950199D-04 0.000000000000D+00 -.421177535126D-04 0.740522199278D-06 0.000000000000D+00  7 -2 2 23 -11 11 23 21 2 0.12723443D+00 0.19634989D+00 0.58009036D+06 0.58009036D+06 0.58009036D+06 0.10639797D+01  1  2  5  1  7  1       -2 -.934694732883D-04 0.100000000000D+01
0.991269422863D-04 0.000000000000D+00 0.379258109296D-04 0.740522199278D-06 0.000000000000D+00  7 -2 2 23 -11 11 23 21 2 0.79845007D-01 0.19634989D+00 0.58009036D+06 0.58009036D+06 0.58009036D+06 0.10639797D+01  1  2  6  1  7  1       -2 0.334438781555D-03 0.100000000000D+01
0.169949821632D-05 0.000000000000D+00 0.000000000000D+00 0.740522199278D-06 0.000000000000D+00  7 21 2 23 -11 11 23 2 2 0.11637049D+00 0.19634989D+00 0.95951078D+06 0.95951078D+06 0.95951078D+06 0.10490609D+01  1  2 12  3  7  1       -2 0.189653521132D-04 0.100000000000D+01
-.285432550974D-05 0.000000000000D+00 -.224759098720D-05 0.740522199278D-06 0.000000000000D+00  7 21 2 23 -11 11 23 2 2 0.12723443D+00 0.19634989D+00 0.58009036D+06 0.58009036D+06 0.58009036D+06 0.10639797D+01  1  2  5  3  7  1       -2 -.266689023882D-04 0.100000000000D+01
  </mgrwgt>
  </event>
  <event>
  8     66 0.53686478E-06 0.10059015E+04 0.75467711E-02 0.81009777E-01
       -2 -1    0    0    0  501 0.00000000E+00 0.00000000E+00 0.93957708E+03 0.93957714E+03 0.32000000E+00 0.0000E+00 0.9000E+01
        2 -1    0    0  501    0 0.00000000E+00 0.00000000E+00 -.15058545E+04 0.15058546E+04 0.32000000E+00 0.0000E+00 0.9000E+01
       25  2    1    2    0    0 -.71148036E+03 0.68524244E+03 0.35413611E+03 0.10920969E+04 0.30249265E+03 0.0000E+00 0.0000E+00
       23  2    1    2    0    0 0.71148036E+03 -.68524244E+03 -.92041355E+03 0.13533348E+04 0.92695058E+02 0.0000E+00 0.0000E+00
       23  1    3    3    0    0 -.29880528E+03 0.17094451E+03 0.47775250E+02 0.35931093E+03 0.91188000E+02 0.0000E+00 0.9000E+01
      -13  1    4    4    0    0 0.60776516E+02 -.86772781E+02 -.12757326E+03 0.16582596E+03 0.10565837E+00 0.0000E+00 0.9000E+01
       13  1    4    4    0    0 0.65070385E+03 -.59846966E+03 -.79284029E+03 0.11875088E+04 0.10565837E+00 0.0000E+00 0.9000E+01
       23  1    3    3    0    0 -.41267508E+03 0.51429793E+03 0.30636086E+03 0.73278600E+03 0.91188000E+02 0.0000E+00 0.9000E+01
#aMCatNLO 1  0  0  1  1 0.16132795D+04 0.00000000D+00  -5  7  0 0.00000000D+00 0.00000000D+00 0.00000000D+00 0.00000000D+00 0.00000000D+00
  <mgrwgt>
 0.8290508460D-03    3    2    0
 0.118948161429603D+04 0.000000000000000D+00 0.000000000000000D+00 0.118948161429603D+04
 0.118948161429603D+04 0.000000000000000D+00 0.000000000000000D+00 -.118948161429603D+04
 0.380722313942967D+03 -.298805277538736D+03 0.170944509170741D+03 0.134638812715576D+03
 0.140091043590761D+03 0.607757490411045D+02 -.867721161826218D+02 -.916646533623000D+02
 0.103196503198074D+04 0.650704612322536D+03 -.598470327239084D+03 -.532323775673726D+03
 0.826184839077596D+03 -.412675083824905D+03 0.514297934250964D+03 0.489349616320450D+03
 0.000000000000000D+00 -.000000000000000D+00 0.000000000000000D+00 -.000000000000000D+00
 0.165689873969347D+04 0.000000000000000D+00 0.000000000000000D+00 0.165689873969347D+04
 0.439878775357322D+04 0.000000000000000D+00 0.000000000000000D+00 -.439878775357322D+04
 0.282461335732598D+03 -.230023899580597D+03 -.207497125791894D+02 0.134638812715576D+03
 0.238571503237944D+03 0.100048327254934D+03 -.196225089360844D+03 -.916646533623000D+02
 0.177790846637696D+04 0.942127615889719D+03 -.141066844724240D+04 -.532323775673726D+03
 0.575452012569443D+03 -.267305827359740D+03 0.109152714546067D+03 0.489349616320450D+03
 0.318129317534974D+04 -.544846216204317D+03 0.151849053463637D+04 -.274188901387975D+04
0.169368126130D-02 0.000000000000D+00 0.000000000000D+00 0.252558004234D-06 0.000000000000D+00  7 -2 2 23 -13 13 23 21 0 0.14455033D+00 0.23166993D+00 0.10118378D+07 0.10118378D+07 0.10118378D+07 0.10475239D+01  1  2  2  1  7  1       -2 0.824232756321D-03 0.100000000000D+01
-.908785436191D-04 0.000000000000D+00 -.650418199991D-05 0.252558004234D-06 0.000000000000D+00  7 -2 2 23 -13 13 23 21 2 0.14455033D+00 0.23166993D+00 0.10118378D+07 0.10118378D+07 0.10118378D+07 0.10475239D+01  1  2  3  1  7  1       -2 -.485296809776D-04 0.100000000000D+01
0.999010832731D-04 0.000000000000D+00 0.000000000000D+00 0.252558004234D-06 0.000000000000D+00  7 -2 2 23 -13 13 23 21 2 0.14455033D+00 0.23166993D+00 0.10118378D+07 0.10118378D+07 0.10118378D+07 0.10475239D+01  1  2 15  1  7  1       -2 0.533477706341D-04 0.100000000000D+01
  </mgrwgt>
  </event>
  <event>
  8     66 0.53686478E-06 0.29276438E+03 0.75467711E-02 0.96397697E-01
       -2 -1    0    0    0  501 0.00000000E+00 0.00000000E+00 0.17227077E+03 0.17227107E+03 0.32000000E+00 0.0000E+00 0.9000E+01
        2 -1    0    0  501    0 0.00000000E+00 0.00000000E+00 -.13457301E+04 0.13457302E+04 0.32000000E+00 0.0000E+00 0.9000E+01
       25  2    1    2    0    0 -.13531151E+01 -.25438933E+03 -.11834027E+04 0.12471369E+04 0.30032104E+03 0.0000E+00 0.0000E+00
       23  2    1    2    0    0 0.13531151E+01 0.25438933E+03 0.99433645E+01 0.27086432E+03 0.92481606E+02 0.0000E+00 0.0000E+00
       23  1    3    3    0    0 -.26806549E+02 -.15279009E+03 -.27805145E+03 0.33119671E+03 0.91188000E+02 0.0000E+00 0.9000E+01
      -13  1    4    4    0    0 -.80276333E+00 0.26036300E+03 0.17549307E+02 0.26095503E+03 0.10565837E+00 0.0000E+00 0.9000E+01
       13  1    4    4    0    0 0.21558784E+01 -.59736714E+01 -.76059428E+01 0.99092932E+01 0.10565837E+00 0.0000E+00 0.9000E+01
       23  1    3    3    0    0 0.25453434E+02 -.10159924E+03 -.90535128E+03 0.91594021E+03 0.91188000E+02 0.0000E+00 0.9000E+01
#aMCatNLO 1  0  0  1  2 0.23167580D+03 0.00000000D+00  -5  7  0 0.00000000D+00 0.00000000D+00 0.00000000D+00 0.00000000D+00 0.00000000D+00
  <mgrwgt>
 0.3814216632D-03    4    2    0
 0.481487511640942D+03 0.000000000000000D+00 0.000000000000000D+00 0.481487511640942D+03
 0.481487511640942D+03 0.000000000000000D+00 0.000000000000000D+00 -.481487511640942D+03
 0.183260144659350D+03 -.268065490344625D+02 -.152790085523924D+03 -.347221538937435D+02
 0.432746416505383D+03 -.802767177739659D+00 0.260363348641150D+03 0.345658419899582D+03
 0.635168977239674D+01 0.215588229467581D+01 -.597401902442880D+01 0.850364159362726D-01
 0.340616772344755D+03 0.254534339175263D+02 -.101599244092797D+03 -.311021302421775D+03
 0.000000000000000D+00 0.000000000000000D+00 -.000000000000000D+00 -.000000000000000D+00
 0.545313320068238D+03 0.000000000000000D+00 0.000000000000000D+00 0.545313320068238D+03
 0.763125560388919D+03 0.000000000000000D+00 0.000000000000000D+00 -.763125560388919D+03
 0.188450264559793D+03 -.702201032911555D+02 -.145126703233466D+03 -.347221538937435D+02
 0.456172953969062D+03 -.104623236991826D+03 0.278689789850179D+03 0.345658419899582D+03
 0.577230902099993D+01 0.739871695104742D+00 -.572406412583441D+01 0.850364159362726D-01
 0.340056172577562D+03 -.540450979840285D+02 -.875661235173754D+02 -.311021302421775D+03
 0.317987180329740D+03 0.228148566571905D+03 -.402728989735032D+02 -.217812240320680D+03
0.166455616004D-04 0.000000000000D+00 0.000000000000D+00 0.115126156528D-05 0.000000000000D+00  7 -2 2 23 -13 13 23 21 0 0.26503221D-01 0.20703543D+00 0.85710985D+05 0.85710985D+05 0.85710985D+05 0.11272589D+01  1  2  2  1  7  1       -2 0.419708090534D-03 0.100000000000D+01
-.646452371861D-06 0.000000000000D+00 -.639233394224D-07 0.115126156528D-05 0.000000000000D+00  7 -2 2 23 -13 13 23 21 2 0.26503221D-01 0.20703543D+00 0.85710985D+05 0.85710985D+05 0.85710985D+05 0.11272589D+01  1  2  3  1  7  1       -2 -.207125134606D-04 0.100000000000D+01
0.988283919074D-06 0.000000000000D+00 0.000000000000D+00 0.115126156528D-05 0.000000000000D+00  7 -2 2 23 -13 13 23 21 2 0.26503221D-01 0.20703543D+00 0.85710985D+05 0.85710985D+05 0.85710985D+05 0.11272589D+01  1  2 15  1  7  1       -2 0.316648911316D-04 0.100000000000D+01
-.153677835228D-05 0.000000000000D+00 0.000000000000D+00 0.115126156528D-05 0.000000000000D+00  7 -2 2 23 -13 13 23 21 2 0.26503221D-01 0.20703543D+00 0.85710985D+05 0.85710985D+05 0.85710985D+05 0.11272589D+01  1  2  4  1  7  1       -2 -.492388050429D-04 0.100000000000D+01
  </mgrwgt>
  </event>
  <event>
  8     66 0.53686478E-06 0.26358095E+03 0.75467711E-02 0.94577325E-01
       -2 -1    0    0    0  501 0.00000000E+00 0.00000000E+00 0.56744564E+02 0.56745467E+02 0.32000000E+00 0.0000E+00 0.9000E+01
        2 -1    0    0  501    0 0.00000000E+00 0.00000000E+00 -.18884498E+04 0.18884498E+04 0.32000000E+00 0.0000E+00 0.9000E+01
       25  2    1    2    0    0 0.87227856E+02 -.14182090E+03 -.16301253E+04 0.16656697E+04 0.29904013E+03 0.0000E+00 0.0000E+00
       23  2    1    2    0    0 -.87227856E+02 0.14182090E+03 -.20157988E+03 0.27952559E+03 0.98884997E+02 0.0000E+00 0.0000E+00
       23  1    3    3    0    0 -.51957730E+02 -.12972306E+03 -.10003176E+04 0.10141392E+04 0.91188000E+02 0.0000E+00 0.9000E+01
      -13  1    4    4    0    0 -.10600987E+03 0.13846126E+03 -.17789103E+03 0.24910810E+03 0.10565837E+00 0.0000E+00 0.9000E+01
       13  1    4    4    0    0 0.18782018E+02 0.33596414E+01 -.23688845E+02 0.30417494E+02 0.10565837E+00 0.0000E+00 0.9000E+01
       23  1    3    3    0    0 0.13918559E+03 -.12097848E+02 -.62980771E+03 0.65153049E+03 0.91188000E+02 0.0000E+00 0.9000E+01
#aMCatNLO 1  0  0  1  2 0.37385902D+03 0.00000000D+00  -5  7  0 0.00000000D+00 0.00000000D+00 0.00000000D+00 0.00000000D+00 0.00000000D+00
  <mgrwgt>
 0.2558969631D-03    5    2    0
 0.327353270432483D+03 0.000000000000000D+00 0.000000000000000D+00 0.327353270432483D+03
 0.327353270432483D+03 0.000000000000000D+00 0.000000000000000D+00 -.327353270432483D+03
 0.214465152627992D+03 -.519577242918866D+02 -.129723064090932D+03 -.134730738426746D+03
 0.242429424008303D+03 -.106009994160328D+03 0.138461419295894D+03 0.168411229226829D+03
 0.240975254326778D+02 0.187821289991886D+02 0.335949935641318D+01 0.147185640030083D+02
 0.173714438795994D+03 0.139185589453026D+03 -.120978545613754D+02 -.483990548030911D+02
 0.000000000000000D+00 0.000000000000000D+00 0.000000000000000D+00 0.000000000000000D+00
 0.144481219968442D+04 0.000000000000000D+00 0.000000000000000D+00 0.144481219968442D+04
 0.409687774683997D+03 0.000000000000000D+00 0.000000000000000D+00 -.409687774683997D+03
 0.325173044244312D+03 -.777190956258159D+02 -.270609733116165D+03 -.134730738426746D+03
 0.212282717947049D+03 -.127717146112972D+03 0.197469186976754D+02 0.168411229226829D+03
 0.239333870109283D+02 0.164892183450898D+02 -.918022689655178D+01 0.147185640030083D+02
 0.192541363874077D+03 0.121701186402100D+03 -.107718513640777D+03 -.483990548030911D+02
 0.110056946129206D+04 0.672458369915980D+02 0.367761554955818D+03 0.103512442500043D+04
0.426496319702D-05 0.000000000000D+00 0.000000000000D+00 0.581152609987D-08 0.000000000000D+00  7 -2 2 23 -13 13 23 21 0 0.87300045D-02 0.29053081D+00 0.69474920D+05 0.69474920D+05 0.69474920D+05 0.11349377D+01  1  2  2  1  7  1       -2 0.328822515889D-03 0.100000000000D+01
-.223416709457D-06 0.000000000000D+00 -.163785816672D-07 0.581152609987D-08 0.000000000000D+00  7 -2 2 23 -13 13 23 21 2 0.87300045D-02 0.29053081D+00 0.69474920D+05 0.69474920D+05 0.69474920D+05 0.11349377D+01  1  2  3  1  7  1       -2 -.221873769203D-04 0.100000000000D+01
0.266688938582D-06 0.000000000000D+00 0.000000000000D+00 0.581152609987D-08 0.000000000000D+00  7 -2 2 23 -13 13 23 21 2 0.87300045D-02 0.29053081D+00 0.69474920D+05 0.69474920D+05 0.69474920D+05 0.11349377D+01  1  2 15  1  7  1       -2 0.264847155577D-04 0.100000000000D+01
-.387217643914D-05 0.000000000000D+00 -.190625724873D-05 0.581152609987D-08 0.000000000000D+00  7 -2 2 23 -13 13 23 21 2 0.48492580D-01 0.29053081D+00 0.69474920D+05 0.69474920D+05 0.69474920D+05 0.11349377D+01  1  2  5  1  7  1       -2 -.216845643363D-04 0.100000000000D+01
-.905753010411D-06 0.000000000000D+00 -.400132573854D-06 0.581152609987D-08 0.000000000000D+00  7 21 2 23 -13 13 23 2 2 0.48492580D-01 0.29053081D+00 0.69474920D+05 0.69474920D+05 0.69474920D+05 0.11349377D+01  1  2  5  3  7  1       -2 -.555383271377D-04 0.100000000000D+01
  </mgrwgt>
  </event>
  <event>
  8     66 0.53686478E-06 0.40743413E+03 0.75467711E-02 0.88043612E-01
       -2 -1    0    0    0  501 0.00000000E+00 0.00000000E+00 0.21064060E+03 0.21064084E+03 0.32000000E+00 0.0000E+00 0.9000E+01
        2 -1    0    0  501    0 0.00000000E+00 0.00000000E+00 -.13523182E+04 0.13523182E+04 0.32000000E+00 0.0000E+00 0.9000E+01
       25  2    1    2    0    0 -.22038206E+03 -.27718907E+03 -.11017499E+04 0.11951939E+04 0.29871994E+03 0.0000E+00 0.0000E+00
       23  2    1    2    0    0 0.22038206E+03 0.27718907E+03 -.39927739E+02 0.36776521E+03 0.90857027E+02 0.0000E+00 0.0000E+00
       23  1    3    3    0    0 -.12553076E+03 -.39021167E+01 -.45764321E+03 0.48324503E+03 0.91188000E+02 0.0000E+00 0.9000E+01
      -11  1    4    4    0    0 0.67250881E+02 0.11554584E+03 0.24614647E+02 0.13593896E+03 0.51099893E-03 0.0000E+00 0.9000E+01
       11  1    4    4    0    0 0.15313117E+03 0.16164323E+03 -.64542385E+02 0.23182625E+03 0.51099893E-03 0.0000E+00 0.9000E+01
       23  1    3    3    0    0 -.94851297E+02 -.27328695E+03 -.64410665E+03 0.71194884E+03 0.91188000E+02 0.0000E+00 0.9000E+01
#aMCatNLO 1  0  0  2  2 0.75186615D+03 0.00000000D+00  -5  7  0 0.00000000D+00 0.00000000D+00 0.00000000D+00 0.00000000D+00 0.00000000D+00
  <mgrwgt>
 0.2083717223D-03    5    2    0
 0.533716534288011D+03 0.000000000000000D+00 0.000000000000000D+00 0.533716534288011D+03
 0.533716534288011D+03 0.000000000000000D+00 0.000000000000000D+00 -.533716534288011D+03
 0.218103796748775D+03 -.125530758200357D+03 -.390211671198371D+01 -.153234516487118D+03
 0.225371536509430D+03 0.672508814728456D+02 0.115545836190839D+03 0.181435410404657D+03
 0.270413531298432D+03 0.153131173611042D+03 0.161643229436419D+03 0.153446368334863D+03
 0.353544204019385D+03 -.948512968835306D+02 -.273286948915274D+03 -.181647262252402D+03
 0.000000000000000D+00 0.000000000000000D+00 -.000000000000000D+00 -.000000000000000D+00
 0.806135629925932D+03 0.000000000000000D+00 0.000000000000000D+00 0.806135629925932D+03
 0.157464281430475D+04 0.000000000000000D+00 0.000000000000000D+00 -.157464281430475D+04
 0.312239562995243D+03 -.216320680979168D+03 0.137487596870149D+03 -.153234516487118D+03
 0.318555707683589D+03 -.258644778321368D+02 0.260557017820585D+03 0.181435410404657D+03
 0.368286511436590D+03 0.437915797548556D+02 0.331920870228959D+03 0.153446368334863D+03
 0.306565973354355D+03 -.207856109573552D+03 -.973013592086873D+02 -.181647262252402D+03
 0.107513068876091D+04 0.406249688630001D+03 -.632664125711005D+03 -.768507184378822D+03
0.118921744224D-04 0.000000000000D+00 0.000000000000D+00 0.274409435055D-06 0.000000000000D+00  7 -2 2 23 -11 11 23 21 0 0.32406268D-01 0.20804898D+00 0.16600257D+06 0.16600257D+06 0.16600257D+06 0.11040945D+01  1  2  2  2  7  2        2 0.205118640661D-03 0.100000000000D+01
-.602123051028D-06 0.000000000000D+00 -.456690810635D-07 0.274409435055D-06 0.000000000000D+00  7 -2 2 23 -11 11 23 21 2 0.32406268D-01 0.20804898D+00 0.16600257D+06 0.16600257D+06 0.16600257D+06 0.11040945D+01  1  2  3  2  7  2        2 -.126602299389D-04 0.100000000000D+01
0.755739863443D-06 0.000000000000D+00 0.000000000000D+00 0.274409435055D-06 0.000000000000D+00  7 -2 2 23 -11 11 23 21 2 0.32406268D-01 0.20804898D+00 0.16600257D+06 0.16600257D+06 0.16600257D+06 0.11040945D+01  1  2 15  2  7  2        2 0.158901746559D-04 0.100000000000D+01
0.852615368424D-07 0.000000000000D+00 -.340614133998D-05 0.274409435055D-06 0.000000000000D+00  7 -2 2 23 -11 11 23 21 2 0.32406268D-01 0.66203292D+00 0.16600257D+06 0.16600257D+06 0.16600257D+06 0.11040945D+01  1  2  5  2  7  2        2 0.225353064535D-07 0.100000000000D+01
0.160808989745D-06 0.000000000000D+00 -.453591978617D-06 0.274409435055D-06 0.000000000000D+00  7 -2 21 23 -11 11 23 -2 2 0.32406268D-01 0.66203292D+00 0.16600257D+06 0.16600257D+06 0.16600257D+06 0.11040945D+01  1  2  5  4  7  2        2 0.601566442387D-09 0.100000000000D+01
  </mgrwgt>
  </event>
  <event>
  8     66 0.53686478E-06 0.20139884E+03 0.75467711E-02 0.10608114E+00
       -2 -1    0    0    0  501 0.00000000E+00 0.00000000E+00 0.10119438E+03 0.10119489E+03 0.32000000E+00 0.0000E+00 0.9000E+01
        2 -1    0    0  501    0 0.00000000E+00 0.00000000E+00 -.15301857E+04 0.15301858E+04 0.32000000E+00 0.0000E+00 0.9000E+01
       25  2    1    2    0    0 0.50873518E+02 -.59817450E+02 -.14710263E+04 0.15030835E+04 0.29862245E+03 0.0000E+00 0.0000E+00
       23  2    1    2    0    0 -.50873518E+02 0.59817450E+02 0.42034934E+02 0.12829718E+03 0.92341693E+02 0.0000E+00 0.0000E+00
       23  1    3    3    0    0 0.77124062E+01 -.13063365E+03 -.51471191E+03 0.53885827E+03 0.91188000E+02 0.0000E+00 0.9000E+01
      -11  1    4    4    0    0 -.10290468E+02 -.24439419E+02 0.20811795E+01 0.26599065E+02 0.51099893E-03 0.0000E+00 0.9000E+01
       11  1    4    4    0    0 -.40583050E+02 0.84256869E+02 0.39953754E+02 0.10169811E+03 0.51099893E-03 0.0000E+00 0.9000E+01
       23  1    3    3    0    0 0.43161111E+02 0.70816203E+02 -.95631438E+03 0.96422522E+03 0.91188000E+02 0.0000E+00 0.9000E+01
#aMCatNLO 1  0  0  1  2 0.47183383D+01 0.00000000D+00  -5  7  0 0.00000000D+00 0.00000000D+00 0.00000000D+00 0.00000000D+00 0.00000000D+00
  <mgrwgt>
 0.2865090069D-03    6    2    0
 0.393505579874168D+03 0.000000000000000D+00 0.000000000000000D+00 0.393505579874168D+03
 0.393505579874168D+03 0.000000000000000D+00 0.000000000000000D+00 -.393505579874168D+03
 0.182416840176370D+03 0.771240618380169D+01 -.130633653152134D+03 -.885212951267400D+02
 0.589155395287502D+02 -.102904677200123D+02 -.244394189514765D+02 0.526104730389428D+02
 0.283352916087645D+03 -.405830498416768D+02 0.842568692388018D+02 0.267474617687353D+03
 0.262325863955571D+03 0.431611113778874D+02 0.708162028648083D+02 -.231563795599556D+03
 0.000000000000000D+00 -.000000000000000D+00 0.000000000000000D+00 -.000000000000000D+00
 0.394152420028248D+03 0.000000000000000D+00 0.000000000000000D+00 0.394152420028248D+03
 0.402212174725671D+03 0.000000000000000D+00 0.000000000000000D+00 -.402212174725671D+03
 0.182699202708436D+03 0.875645774930129D+01 -.130962025347303D+03 -.885212951267400D+02
 0.589017067430294D+02 -.995356858120423D+01 -.245453795317933D+02 0.526104730389428D+02
 0.282974354759003D+03 -.389636335349025D+02 0.837475349251334D+02 0.267474617687353D+03
 0.262450039248405D+03 0.446617112938692D+02 0.703442383519772D+02 -.231563795599556D+03
 0.933929129504438D+01 -.450096692706385D+01 0.141563160198548D+01 -.805975469742282D+01
0.517118994516D-05 0.000000000000D+00 0.000000000000D+00 0.856524700232D-07 0.000000000000D+00  7 -2 2 23 -11 11 23 21 0 0.15568408D-01 0.23541323D+00 0.40561492D+05 0.40561492D+05 0.40561492D+05 0.11553738D+01  1  2  2  1  7  1       -2 0.253496669718D-03 0.100000000000D+01
-.130577074033D-06 0.000000000000D+00 -.198587309950D-07 0.856524700232D-07 0.000000000000D+00  7 -2 2 23 -11 11 23 21 2 0.15568408D-01 0.23541323D+00 0.40561492D+05 0.40561492D+05 0.40561492D+05 0.11553738D+01  1  2  3  1  7  1       -2 -.854463979483D-05 0.100000000000D+01
0.323628587615D-06 0.000000000000D+00 0.000000000000D+00 0.856524700232D-07 0.000000000000D+00  7 -2 2 23 -11 11 23 21 2 0.15568408D-01 0.23541323D+00 0.40561492D+05 0.40561492D+05 0.40561492D+05 0.11553738D+01  1  2 15  1  7  1       -2 0.211774519298D-04 0.100000000000D+01
-.260716550646D-05 0.000000000000D+00 0.000000000000D+00 0.856524700232D-07 0.000000000000D+00  7 -2 2 23 -11 11 23 21 2 0.15568408D-01 0.23541323D+00 0.40561492D+05 0.40561492D+05 0.40561492D+05 0.11553738D+01  1  2  4  1  7  1       -2 -.170606443000D-03 0.100000000000D+01
0.252139524070D-05 0.000000000000D+00 0.000000000000D+00 0.856524700232D-07 0.273583153246D-07  7 -2 2 23 -11 11 23 21 2 0.15593999D-01 0.24062192D+00 0.41395739D+05 0.41395739D+05 0.41395739D+05 0.11545800D+01  1  2 11  1  7  1       -2 0.157655209068D-03 0.100000000000D+01
0.388231989658D-07 0.000000000000D+00 0.000000000000D+00 0.856524700232D-07 0.848554134288D-11  7 21 2 23 -11 11 23 2 2 0.15593999D-01 0.24062192D+00 0.41395739D+05 0.41395739D+05 0.41395739D+05 0.11545800D+01  1  2 11  3  7  1       -2 0.333307590127D-04 0.100000000000D+01
  </mgrwgt>
  </event>
  <event>
  9     66 0.53686478E-06 0.26287329E+03 0.75467711E-02 0.10051262E+00
       -2 -1    0    0    0  502 0.00000000E+00 0.00000000E+00 0.42651720E+02 0.42652920E+02 0.32000000E+00 0.0000E+00 0.9000E+01
        2 -1    0    0  501    0 0.00000000E+00 0.00000000E+00 -.31328110E+04 0.31328110E+04 0.32000000E+00 0.0000E+00 0.9000E+01
       25  2    1    2    0    0 0.99624990E+02 -.21609768E+03 -.19866370E+04 0.20233782E+04 0.30118047E+03 0.0000E+00 0.0000E+00
       23  2    1    2    0    0 -.71048784E+02 0.14088563E+03 -.35471727E+03 0.39897018E+03 0.91957428E+02 0.0000E+00 0.0000E+00
       23  1    3    3    0    0 -.49455733E+02 -.47751534E+02 -.33310864E+03 0.35214016E+03 0.91188000E+02 0.0000E+00 0.9000E+01
      -13  1    4    4    0    0 -.13708225E+02 -.87057270E+01 -.10611534E+02 0.19398993E+02 0.10565837E+00 0.0000E+00 0.9000E+01
       13  1    4    4    0    0 -.57340559E+02 0.14959135E+03 -.34410574E+03 0.37957118E+03 0.10565837E+00 0.0000E+00 0.9000E+01
       23  1    3    3    0    0 0.14908072E+03 -.16834615E+03 -.16535283E+04 0.16712381E+04 0.91188000E+02 0.0000E+00 0.9000E+01
       21  1    1    2  501  502 -.28576207E+02 0.75212056E+02 -.74880500E+03 0.75311549E+03 0.75000000E+00 0.0000E+00 0.9000E+01
#aMCatNLO 2  0  0  1  2 0.80457771D+02 0.00000000D+00  -5  7  0 0.00000000D+00 0.00000000D+00 0.00000000D+00 0.00000000D+00 0.00000000D+00
  <mgrwgt>
 0.1986349111D-04    1    2    0
 0.307960495936776D+03 0.000000000000000D+00 0.000000000000000D+00 0.307960495936776D+03
 0.307960495936776D+03 0.000000000000000D+00 0.000000000000000D+00 -.307960495936776D+03
 0.115116398694594D+03 -.548326702393007D+02 -.335995278468026D+02 0.283016590911710D+02
 0.355282165982598D+02 -.153524272065682D+02 -.437827299924189D+01 0.317393742702026D+02
 0.205659508292181D+03 -.663226425675528D+02 0.173232089564247D+03 0.888131948476290D+02
 0.259616868288516D+03 0.136507740013422D+03 -.135254288718203D+03 -.148854228209003D+03
 0.000000000000000D+00 -.000000000000000D+00 0.000000000000000D+00 -.000000000000000D+00
 0.327104580391194D+03 0.000000000000000D+00 0.000000000000000D+00 0.327104580391194D+03
 0.408495469147581D+03 0.000000000000000D+00 0.000000000000000D+00 -.408495469147581D+03
 0.117653362199936D+03 -.494557306002234D+02 -.477515350165270D+02 0.283016590911710D+02
 0.356524197783451D+02 -.137081673001384D+02 -.870593511684699D+01 0.317393742702026D+02
 0.183175777987179D+03 -.573406173430014D+02 0.149591562813177D+03 0.888131948476290D+02
 0.284672302729612D+03 0.149080722034458D+03 -.168346148335407D+03 -.148854228209003D+03
 0.114446186843703D+03 -.285762067910948D+02 0.752120556556035D+02 -.813908887563876D+02
0.691680842022D-06 0.000000000000D+00 0.000000000000D+00 0.595782777999D-07 0.649012877327D-10  7 -2 2 23 -13 13 23 21 2 0.65618729D-02 0.48196926D+00 0.94173439D+05 0.94173439D+05 0.94173439D+05 0.11238678D+01  1  2  1  1  7  1       -2 0.198634911127D-04 0.100000000000D+01
  </mgrwgt>
  </event>
  <event>
  8     66 0.53686478E-06 0.15856967E+03 0.75467711E-02 0.89061858E-01
       -2 -1    0    0    0  501 0.00000000E+00 0.00000000E+00 0.16933528E+03 0.16933559E+03 0.32000000E+00 0.0000E+00 0.9000E+01
        2 -1    0    0  501    0 0.00000000E+00 0.00000000E+00 -.88679722E+03 0.88679728E+03 0.32000000E+00 0.0000E+00 0.9000E+01
       25  2    1    2    0    0 -.10271872E+02 -.49021531E+02 -.84102926E+03 0.89392550E+03 0.29877077E+03 0.0000E+00 0.0000E+00
       23  2    1    2    0    0 0.10271872E+02 0.49021531E+02 0.12356732E+03 0.16220736E+03 0.92378151E+02 0.0000E+00 0.0000E+00
       23  1    3    3    0    0 0.72771373E+02 -.74813377E+02 -.21831506E+03 0.25859124E+03 0.91188000E+02 0.0000E+00 0.9000E+01
      -11  1    4    4    0    0 0.13690617E+02 0.27146550E+02 -.58062991E+01 0.30952888E+02 0.51099893E-03 0.0000E+00 0.9000E+01
       11  1    4    4    0    0 -.34187449E+01 0.21874981E+02 0.12937362E+03 0.13125447E+03 0.51099893E-03 0.0000E+00 0.9000E+01
       23  1    3    3    0    0 -.83043245E+02 0.25791847E+02 -.62271420E+03 0.63533426E+03 0.91188000E+02 0.0000E+00 0.9000E+01
#aMCatNLO 1  0  0  2  2 0.78933251D+03 0.00000000D+00  -5  7  0 0.00000000D+00 0.00000000D+00 0.00000000D+00 0.00000000D+00 0.00000000D+00
  <mgrwgt>
 0.4580904133D-03    3    2    0
 0.387512902383673D+03 0.000000000000000D+00 0.000000000000000D+00 0.387512902383673D+03
 0.387512902383673D+03 0.000000000000000D+00 0.000000000000000D+00 -.387512902383673D+03
 0.150283982585077D+03 0.727713727283526D+02 -.748133774286543D+02 -.581146276472672D+02
 0.368046628915158D+02 0.136906168407606D+02 0.271465497798040D+02 0.207416261688958D+02
 0.298625941647298D+03 -.341874486791062D+01 0.218749811060366D+02 0.297804047000497D+03
 0.289311217643456D+03 -.830432447012025D+02 0.257918465428137D+02 -.260431045522126D+03
 0.000000000000000D+00 0.000000000000000D+00 -.000000000000000D+00 0.000000000000000D+00
 0.160785627770744D+04 0.000000000000000D+00 0.000000000000000D+00 0.160785627770744D+04
 0.700783646052135D+03 0.000000000000000D+00 0.000000000000000D+00 -.700783646052135D+03
 0.112955394704193D+03 0.225911282920598D+02 0.235796697324466D+02 -.581146276472672D+02
 0.708269992062595D+02 -.682676611602924D+01 0.673768804919781D+02 0.207416261688958D+02
 0.447665270507434D+03 -.145681182320152D+03 0.300822102124199D+03 0.297804047000497D+03
 0.474766969568000D+03 -.228696340364688D+03 0.311387344766665D+03 -.260431045522126D+03
 0.120242528977368D+04 0.358613160508809D+03 -.703165997115289D+03 0.907072631655301D+03
0.864738097609D-05 0.000000000000D+00 0.000000000000D+00 0.116957543282D-06 0.000000000000D+00  7 -2 2 23 -11 11 23 21 0 0.26051610D-01 0.13643037D+00 0.25144339D+05 0.25144339D+05 0.25144339D+05 0.11745181D+01  1  2  2  2  7  2        2 0.423092147727D-03 0.100000000000D+01
-.140339614716D-07 0.000000000000D+00 -.332082198559D-07 0.116957543282D-06 0.000000000000D+00  7 -2 2 23 -11 11 23 21 2 0.26051610D-01 0.13643037D+00 0.25144339D+05 0.25144339D+05 0.25144339D+05 0.11745181D+01  1  2  3  2  7  2        2 -.947218246561D-06 0.100000000000D+01
0.532567375070D-06 0.000000000000D+00 0.000000000000D+00 0.116957543282D-06 0.000000000000D+00  7 -2 2 23 -11 11 23 21 2 0.26051610D-01 0.13643037D+00 0.25144339D+05 0.25144339D+05 0.25144339D+05 0.11745181D+01  1  2 15  2  7  2        2 0.359454838329D-04 0.100000000000D+01
  </mgrwgt>
  </event>
  <event>
  8     66 0.53686478E-06 0.16407986E+03 0.75467711E-02 0.10816014E+00
       -2 -1    0    0    0  501 0.00000000E+00 0.00000000E+00 0.22845802E+02 0.22848043E+02 0.32000000E+00 0.0000E+00 0.9000E+01
        2 -1    0    0  501    0 0.00000000E+00 0.00000000E+00 -.32825448E+04 0.32825449E+04 0.32000000E+00 0.0000E+00 0.9000E+01
       25  2    1    2    0    0 0.22721812E+02 -.40199351E+02 -.31185932E+04 0.31330887E+04 0.29747054E+03 0.0000E+00 0.0000E+00
       23  2    1    2    0    0 -.22721812E+02 0.40199351E+02 -.14110581E+03 0.17230421E+03 0.87439257E+02 0.0000E+00 0.0000E+00
       23  1    3    3    0    0 0.22769921E+02 0.65891624E+02 -.61695408E+03 0.62754104E+03 0.91188000E+02 0.0000E+00 0.9000E+01
      -13  1    4    4    0    0 0.17124075E+02 0.35026751E+00 0.31650931E+01 0.17417968E+02 0.10565837E+00 0.0000E+00 0.9000E+01
       13  1    4    4    0    0 -.39845887E+02 0.39849084E+02 -.14427090E+03 0.15488625E+03 0.10565837E+00 0.0000E+00 0.9000E+01
       23  1    3    3    0    0 -.48109418E-01 -.10609098E+03 -.25016392E+04 0.25055476E+04 0.91188000E+02 0.0000E+00 0.9000E+01
#aMCatNLO 1  0  0  2  2 0.21028840D+02 0.00000000D+00  -5  7  0 0.00000000D+00 0.00000000D+00 0.00000000D+00 0.00000000D+00 0.00000000D+00
  <mgrwgt>
 0.4359504472D-03    3    2    0
 0.273854155428097D+03 0.000000000000000D+00 0.000000000000000D+00 0.273854155428097D+03
 0.273854155428097D+03 0.000000000000000D+00 0.000000000000000D+00 -.273854155428097D+03
 0.115362670800884D+03 0.227699210380975D+02 0.658916239152899D+02 0.115377235206017D+02
 0.123953784247084D+03 0.171241549906668D+02 0.350212814059194D+00 0.122764739628336D+03
 0.760991382817781D+02 -.398459668503669D+02 0.398491392608953D+02 0.511412150144521D+02
 0.232292717526449D+03 -.481091783974179D-01 -.106090975990244D+03 -.185443678163390D+03
 0.000000000000000D+00 -.000000000000000D+00 -.000000000000000D+00 0.000000000000000D+00
 0.556808385827116D+03 0.000000000000000D+00 0.000000000000000D+00 0.556808385827116D+03
 0.274446916405976D+03 0.000000000000000D+00 0.000000000000000D+00 -.274446916405976D+03
 0.116635027553307D+03 0.271861742351674D+02 0.664550312224579D+02 0.115377235206017D+02
 0.124698996296167D+03 0.218574503846493D+02 0.954067052698407D+00 0.122764739628336D+03
 0.748312704139407D+02 -.369728913644201D+02 0.402156743417874D+02 0.511412150144521D+02
 0.231946561029382D+03 0.878903969278469D+01 -.104963569107899D+03 -.185443678163390D+03
 0.283143446940295D+03 -.208597729481813D+02 -.266120350904459D+01 0.282361469421140D+03
0.883767153193D-05 0.000000000000D+00 0.000000000000D+00 0.167158226390D-08 0.000000000000D+00  7 -2 2 23 -13 13 23 21 0 0.35149123D-02 0.50500707D+00 0.26922201D+05 0.26922201D+05 0.26922201D+05 0.11717229D+01  1  2  2  2  7  2        2 0.423853208679D-03 0.100000000000D+01
-.334343468989D-06 0.000000000000D+00 -.339389856950D-07 0.167158226390D-08 0.000000000000D+00  7 -2 2 23 -13 13 23 21 2 0.35149123D-02 0.50500707D+00 0.26922201D+05 0.26922201D+05 0.26922201D+05 0.11717229D+01  1  2  3  2  7  2        2 -.220150827140D-04 0.100000000000D+01
0.518064453943D-06 0.000000000000D+00 0.000000000000D+00 0.167158226390D-08 0.000000000000D+00  7 -2 2 23 -13 13 23 21 2 0.35149123D-02 0.50500707D+00 0.26922201D+05 0.26922201D+05 0.26922201D+05 0.11717229D+01  1  2 15  2  7  2        2 0.341123211983D-04 0.100000000000D+01
  </mgrwgt>
  </event>
  <event>
  8     66 0.53686478E-06 0.23911307E+03 0.75467711E-02 0.10239878E+00
       -2 -1    0    0    0  502 0.00000000E+00 0.00000000E+00 0.29728189E+03 0.29728206E+03 0.32000000E+00 0.0000E+00 0.9000E+01
        2 -1    0    0  501    0 0.00000000E+00 0.00000000E+00 -.32198638E+03 0.32198654E+03 0.32000000E+00 0.0000E+00 0.9000E+01
       23  2    1    2    0    0 -.68101518E+02 -.19985343E+03 -.53797733E+01 0.23051611E+03 0.92355425E+02 0.0000E+00 0.0000E+00
       23  1    1    2    0    0 0.11466203E+02 0.45234975E+02 -.89561807E+02 0.13606706E+03 0.91188000E+02 0.0000E+00 0.9000E+01
      -13  1    3    3    0    0 -.44148477E+02 -.15415375E+03 -.43754349E+02 0.16621348E+03 0.10565837E+00 0.0000E+00 0.9000E+01
       13  1    3    3    0    0 -.23953041E+02 -.45699680E+02 0.38374576E+02 0.64302630E+02 0.10565837E+00 0.0000E+00 0.9000E+01
       23  1    1    2    0    0 0.82820316E+02 0.10995381E+03 0.99922833E+02 0.19299966E+03 0.91188000E+02 0.0000E+00 0.9000E+01
       21  1    1    2  501  502 -.26185001E+02 0.44664649E+02 -.29685746E+02 0.59685771E+02 0.75000000E+00 0.0000E+00 0.9000E+01
#aMCatNLO 2  0  0  1  1 0.51774368D+02 0.00000000D+00  -5  7  0 0.00000000D+00 0.00000000D+00 0.00000000D+00 0.00000000D+00 0.00000000D+00
  <mgrwgt>
 0.1552927037D-03    1    2    0
 0.278580126245593D+03 0.000000000000000D+00 0.000000000000000D+00 0.278580126245593D+03
 0.278580126245593D+03 0.000000000000000D+00 0.000000000000000D+00 -.278580126245593D+03
 0.140546783975397D+03 0.496131355502848D+01 0.563306030812012D+02 -.907766251088011D+02
 0.157044654252438D+03 -.517375907790199D+02 -.141208938539818D+03 -.452358354195925D+02
 0.617012350010654D+02 -.268996152505063D+02 -.406734260491150D+02 0.378037764444056D+02
 0.197867579262285D+03 0.736758924744977D+02 0.125551761507732D+03 0.982086840839880D+02
 0.000000000000000D+00 -.000000000000000D+00 0.000000000000000D+00 -.000000000000000D+00
 0.294645117848058D+03 0.000000000000000D+00 0.000000000000000D+00 0.294645117848058D+03
 0.324863132776607D+03 0.000000000000000D+00 0.000000000000000D+00 -.324863132776607D+03
 0.136869735809333D+03 0.114662082730389D+02 0.452349824606136D+02 -.907766251088011D+02
 0.166609712013545D+03 -.441485056761634D+02 -.154153899651257D+03 -.452358354195925D+02
 0.639634314661832D+02 -.239530155823335D+02 -.456995415292430D+02 0.378037764444056D+02
 0.192117780655965D+03 0.828203144065518D+02 0.109953809357680D+03 0.982086840839880D+02
 0.599475906796389D+02 -.261850014210939D+02 0.446646493622066D+02 -.302180149285485D+02
0.215563338260D-05 0.000000000000D+00 0.000000000000D+00 0.262457790552D-09 0.678324227295D-12  7 -2 2 23 -13 13 23 21 2 0.45735346D-01 0.49536007D-01 0.70563571D+05 0.70563571D+05 0.70563571D+05 0.11343637D+01  1  2  1  1  7  1       -2 0.155292703712D-03 0.100000000000D+01
  </mgrwgt>
  </event>
  <event>
  9     66 0.53686478E-06 0.31299024E+03 0.75467711E-02 0.99965662E-01
       21 -1    0    0  502  501 0.00000000E+00 0.00000000E+00 0.30625969E+03 0.30626061E+03 0.75000000E+00 0.0000E+00 0.9000E+01
        2 -1    0    0  501    0 0.00000000E+00 0.00000000E+00 -.59656134E+03 0.59656142E+03 0.32000000E+00 0.0000E+00 0.9000E+01
       25  2    1    2    0    0 -.20046270E+03 0.16550886E+03 -.42026076E+03 0.57673402E+03 0.29736264E+03 0.0000E+00 0.0000E+00
       23  2    1    2    0    0 0.19438040E+03 -.15244034E+03 0.14928895E+03 0.30197317E+03 0.88762635E+02 0.0000E+00 0.0000E+00
       23  1    3    3    0    0 -.59070677E+02 0.16611754E+03 -.33181951E+03 0.38665724E+03 0.91188000E+02 0.0000E+00 0.9000E+01
      -11  1    4    4    0    0 0.74530418E+02 -.13053476E+02 0.64964545E+02 0.99727471E+02 0.51099893E-03 0.0000E+00 0.9000E+01
       11  1    4    4    0    0 0.11984999E+03 -.13938686E+03 0.84324407E+02 0.20224570E+03 0.51099893E-03 0.0000E+00 0.9000E+01
       23  1    3    3    0    0 -.14139203E+03 -.60868043E+00 -.88441250E+02 0.19007678E+03 0.91188000E+02 0.0000E+00 0.9000E+01
        2  1    1    2  502    0 0.60822983E+01 -.13068520E+02 -.19329837E+02 0.24114841E+02 0.32000000E+00 0.0000E+00 0.9000E+01
#aMCatNLO 2  0  0  1  1 0.14414596D+02 0.00000000D+00  -5  7  0 0.00000000D+00 0.00000000D+00 0.00000000D+00 0.00000000D+00 0.00000000D+00
  <mgrwgt>
 0.2304783546D-04    1    2    0
 0.417879414574651D+03 0.000000000000000D+00 0.000000000000000D+00 0.417879414574651D+03
 0.417879414574651D+03 0.000000000000000D+00 0.000000000000000D+00 -.417879414574651D+03
 0.295916189146312D+03 -.569064312526496D+02 0.161467406829996D+03 -.223474996965118D+03
 0.126661793414222D+03 0.754493555455613D+02 -.150279202225263D+02 0.100621897579264D+03
 0.243030432351158D+03 0.121607293516456D+03 -.143162640016214D+03 0.154207378928446D+03
 0.170150414237611D+03 -.140150217809367D+03 -.327684659125578D+01 -.313542795425914D+02
 0.000000000000000D+00 0.000000000000000D+00 -.000000000000000D+00 -.000000000000000D+00
 0.421230891185576D+03 0.000000000000000D+00 0.000000000000000D+00 0.421230891185576D+03
 0.433733585609581D+03 0.000000000000000D+00 0.000000000000000D+00 -.433733585609581D+03
 0.298899159105978D+03 -.590706772312684D+02 0.166117539089466D+03 -.223474996965118D+03
 0.125896555380703D+03 0.745304176056577D+02 -.130534760045342D+02 0.100621897579264D+03
 0.239942977546241D+03 0.119849986373623D+03 -.139386862810012D+03 0.154207378928446D+03
 0.171144434405569D+03 -.141392025045629D+03 -.608680427874704D+00 -.313542795425914D+02
 0.190813503566657D+02 0.608229829761685D+01 -.130685198470447D+02 -.125026944240045D+02
0.632606964815D-07 0.000000000000D+00 0.000000000000D+00 0.619095992452D-08 0.299373299714D-12  7 21 2 23 -11 11 23 2 2 0.47116803D-01 0.91778454D-01 0.10260768D+06 0.10260768D+06 0.10260768D+06 0.11208058D+01  1  2  1  3  7  1       -2 0.230478354607D-04 0.100000000000D+01
  </mgrwgt>
  </event>
  <event>
  8     66 0.53686478E-06 0.21574842E+03 0.75467711E-02 0.98843933E-01
       -2 -1    0    0    0  501 0.00000000E+00 0.00000000E+00 0.13004437E+03 0.13004476E+03 0.32000000E+00 0.0000E+00 0.9000E+01
        2 -1    0    0  501    0 0.00000000E+00 0.00000000E+00 -.92813841E+03 0.92813846E+03 0.32000000E+00 0.0000E+00 0.9000E+01
       25  2    1    2    0    0 -.14791835E+03 0.21678186E+03 -.35756209E+03 0.53687167E+03 0.30250014E+03 0.0000E+00 0.0000E+00
       23  2    1    2    0    0 0.14791835E+03 -.21678186E+03 -.44053195E+03 0.52131155E+03 0.93931467E+02 0.0000E+00 0.0000E+00
       23  1    3    3    0    0 -.20179085E+03 0.10712726E+03 -.24659559E+03 0.34831083E+03 0.91188000E+02 0.0000E+00 0.9000E+01
      -13  1    4    4    0    0 0.16085512E+03 -.19182374E+03 -.40285895E+03 0.47430588E+03 0.10565837E+00 0.0000E+00 0.9000E+01
       13  1    4    4    0    0 -.12936766E+02 -.24958120E+02 -.37672999E+02 0.47005677E+02 0.10565837E+00 0.0000E+00 0.9000E+01
       23  1    3    3    0    0 0.53872497E+02 0.10965460E+03 -.11096650E+03 0.18856085E+03 0.91188000E+02 0.0000E+00 0.9000E+01
#aMCatNLO 1  0  0  1  2 0.23553701D+02 0.00000000D+00  -5  7  0 0.00000000D+00 0.00000000D+00 0.00000000D+00 0.00000000D+00 0.00000000D+00
  <mgrwgt>
 0.2189417002D-03    9    2    0
 0.347418206152541D+03 0.000000000000000D+00 0.000000000000000D+00 0.347418206152541D+03
 0.347418206152541D+03 0.000000000000000D+00 0.000000000000000D+00 -.347418206152541D+03
 0.247209563222403D+03 -.201790851260726D+03 0.107127260067794D+03 0.245258904517221D+02
 0.259605557628624D+03 0.160855336961823D+03 -.191823951129607D+03 -.687326552345621D+02
 0.283143169000869D+02 -.129369826173873D+02 -.249579082941593D+02 -.338198696867693D+01
 0.159706974553969D+03 0.538724969162905D+02 0.109654599355972D+03 0.475887517515170D+02
 0.000000000000000D+00 0.000000000000000D+00 -.000000000000000D+00 0.000000000000000D+00
 0.405755422585033D+03 0.000000000000000D+00 0.000000000000000D+00 0.405755422585033D+03
 0.350003372898040D+03 0.000000000000000D+00 0.000000000000000D+00 -.350003372898040D+03
 0.255059951369397D+03 -.208887779011973D+03 0.111824433490871D+03 0.245258904517221D+02
 0.251618815719139D+03 0.153631879561120D+03 -.187043032778092D+03 -.687326552345621D+02
 0.282293352291904D+02 -.137359286061345D+02 -.244291178095502D+02 -.338198696867693D+01
 0.160327409363632D+03 0.493505005884345D+02 0.112647528369055D+03 0.475887517515170D+02
 0.605232838017143D+02 0.196413274685533D+02 -.129998112722836D+02 0.557520496869928D+02
0.309499132933D-05 0.000000000000D+00 0.000000000000D+00 0.429633050077D-08 0.000000000000D+00  7 -2 2 23 -13 13 23 21 0 0.20006860D-01 0.14279056D+00 0.11454675D+06 0.11454675D+06 0.11454675D+06 0.11169137D+01  1  2  2  1  7  1       -2 0.218284742228D-03 0.100000000000D+01
-.171800892934D-06 0.000000000000D+00 -.118855816346D-07 0.429633050077D-08 0.000000000000D+00  7 -2 2 23 -13 13 23 21 2 0.20006860D-01 0.14279056D+00 0.11454675D+06 0.11454675D+06 0.11454675D+06 0.11169137D+01  1  2  3  1  7  1       -2 -.151157122798D-04 0.100000000000D+01
0.199668524250D-06 0.000000000000D+00 0.000000000000D+00 0.429633050077D-08 0.000000000000D+00  7 -2 2 23 -13 13 23 21 2 0.20006860D-01 0.14279056D+00 0.11454675D+06 0.11454675D+06 0.11454675D+06 0.11169137D+01  1  2 15  1  7  1       -2 0.175676151174D-04 0.100000000000D+01
0.300028250429D-04 0.000000000000D+00 0.000000000000D+00 0.429633050077D-08 0.000000000000D+00  7 -2 2 23 -13 13 23 21 2 0.23432878D-01 0.14279056D+00 0.12271321D+06 0.12271321D+06 0.12271321D+06 0.11144997D+01  1  2 12  1  7  1       -2 0.201568882759D-02 0.100000000000D+01
-.301308104659D-04 0.000000000000D+00 0.000000000000D+00 0.429633050077D-08 0.000000000000D+00  7 -2 2 23 -13 13 23 21 2 0.20006860D-01 0.14279056D+00 0.11454675D+06 0.11454675D+06 0.11454675D+06 0.11169137D+01  1  2  4  1  7  1       -2 -.265102616163D-02 0.100000000000D+01
-.371885510818D-04 0.000000000000D+00 -.267333797903D-05 0.429633050077D-08 0.000000000000D+00  7 -2 2 23 -13 13 23 21 2 0.23487106D-01 0.14279056D+00 0.11454675D+06 0.11454675D+06 0.11454675D+06 0.11169137D+01  1  2  5  1  7  1       -2 -.250168567118D-02 0.100000000000D+01
0.371722353239D-04 0.000000000000D+00 0.263932270545D-05 0.429633050077D-08 0.000000000000D+00  7 -2 2 23 -13 13 23 21 2 0.20006860D-01 0.14279056D+00 0.11454675D+06 0.11454675D+06 0.11454675D+06 0.11169137D+01  1  2  6  1  7  1       -2 0.327055816973D-02 0.100000000000D+01
0.713887667049D-06 0.000000000000D+00 0.000000000000D+00 0.429633050077D-08 0.000000000000D+00  7 21 2 23 -13 13 23 2 2 0.23432878D-01 0.14279056D+00 0.12271321D+06 0.12271321D+06 0.12271321D+06 0.11144997D+01  1  2 12  3  7  1       -2 0.593991650966D-03 0.100000000000D+01
-.874299096325D-06 0.000000000000D+00 -.643532185619D-07 0.429633050077D-08 0.000000000000D+00  7 21 2 23 -13 13 23 2 2 0.23487106D-01 0.14279056D+00 0.11454675D+06 0.11454675D+06 0.11454675D+06 0.11169137D+01  1  2  5  3  7  1       -2 -.729321760303D-03 0.100000000000D+01
  </mgrwgt>
  </event>
  <event>
  8     66 0.53686478E-06 0.21597895E+03 0.75467711E-02 0.93442588E-01
       -2 -1    0    0    0  501 0.00000000E+00 0.00000000E+00 0.34353044E+02 0.34354535E+02 0.32000000E+00 0.0000E+00 0.9000E+01
        2 -1    0    0  501    0 0.00000000E+00 0.00000000E+00 -.18982016E+04 0.18982016E+04 0.32000000E+00 0.0000E+00 0.9000E+01
       25  2    1    2    0    0 0.70700855E+02 -.64552158E+02 -.78099312E+03 0.84162166E+03 0.29868241E+03 0.0000E+00 0.0000E+00
       23  2    1    2    0    0 -.70700855E+02 0.64552158E+02 -.10828555E+04 0.10909345E+04 0.91632887E+02 0.0000E+00 0.0000E+00
       23  1    3    3    0    0 -.14056331E+02 -.13990021E+03 -.44263652E+03 0.47329905E+03 0.91188000E+02 0.0000E+00 0.9000E+01
      -13  1    4    4    0    0 -.65086220E+02 0.12225733E+02 -.83126665E+03 0.83390043E+03 0.10565837E+00 0.0000E+00 0.9000E+01
       13  1    4    4    0    0 -.56146355E+01 0.52326425E+02 -.25158881E+03 0.25703408E+03 0.10565837E+00 0.0000E+00 0.9000E+01
       23  1    3    3    0    0 0.84757186E+02 0.75348054E+02 -.33835660E+03 0.36832261E+03 0.91188000E+02 0.0000E+00 0.9000E+01
#aMCatNLO 1  0  0  1  1 0.46560022D+03 0.00000000D+00  -5  7  0 0.00000000D+00 0.00000000D+00 0.00000000D+00 0.00000000D+00 0.00000000D+00
  <mgrwgt>
 0.3254539772D-03    3    2    0
 0.255363407680159D+03 0.000000000000000D+00 0.000000000000000D+00 0.255363407680159D+03
 0.255363407680159D+03 0.000000000000000D+00 0.000000000000000D+00 -.255363407680159D+03
 0.175572444629866D+03 -.140563291858022D+02 -.139900211296985D+03 0.523524828273394D+02
 0.121795698140191D+03 -.650862992864597D+02 0.122256820053461D+02 -.102217896819266D+03
 0.544504659850196D+02 -.561455736344815D+01 0.523264775976379D+02 -.139738947263180D+02
 0.158908206605242D+03 0.847571858357101D+02 0.753480516940005D+02 0.638393087182443D+02
 0.000000000000000D+00 0.000000000000000D+00 -.000000000000000D+00 -.000000000000000D+00
 0.530519243114030D+03 0.000000000000000D+00 0.000000000000000D+00 0.530519243114030D+03
 0.638555313774100D+03 0.000000000000000D+00 0.000000000000000D+00 -.638555313774100D+03
 0.208016814898448D+03 -.154504743516885D+03 -.913413691001502D+02 0.523524828273394D+02
 0.224531527976460D+03 -.191891491401531D+03 0.560674964037612D+02 -.102217896819266D+03
 0.941062581990338D+02 -.600075202308826D+02 0.711323809115174D+02 -.139738947263180D+02
 0.164449912922522D+03 -.336380351477980D+02 0.116282190252838D+03 0.638393087182443D+02
 0.477970042891667D+03 0.440041790297096D+03 -.152140698467966D+03 -.108036070660069D+03
0.198652718439D-05 0.000000000000D+00 0.000000000000D+00 0.237077240895D-06 0.000000000000D+00  7 -2 2 23 -13 13 23 21 0 0.52852004D-02 0.29203113D+00 0.46646908D+05 0.46646908D+05 0.46646908D+05 0.11499566D+01  1  2  2  1  7  1       -2 0.322338605541D-03 0.100000000000D+01
-.106597596196D-06 0.000000000000D+00 -.762878745268D-08 0.237077240895D-06 0.000000000000D+00  7 -2 2 23 -13 13 23 21 2 0.52852004D-02 0.29203113D+00 0.46646908D+05 0.46646908D+05 0.46646908D+05 0.11499566D+01  1  2  3  1  7  1       -2 -.228732626693D-04 0.100000000000D+01
0.121116344046D-06 0.000000000000D+00 0.000000000000D+00 0.237077240895D-06 0.000000000000D+00  7 -2 2 23 -13 13 23 21 2 0.52852004D-02 0.29203113D+00 0.46646908D+05 0.46646908D+05 0.46646908D+05 0.11499566D+01  1  2 15  1  7  1       -2 0.259886343572D-04 0.100000000000D+01
  </mgrwgt>
  </event>
  <event>
  8     66 0.53686478E-06 0.13835954E+03 0.75467711E-02 0.10212638E+00
       -2 -1    0    0    0  501 0.00000000E+00 0.00000000E+00 0.19966522E+02 0.19969086E+02 0.32000000E+00 0.0000E+00 0.9000E+01
        2 -1    0    0  501    0 0.00000000E+00 0.00000000E+00 -.43109113E+04 0.43109113E+04 0.32000000E+00 0.0000E+00 0.9000E+01
       25  2    1    2    0    0 0.18223975E+03 0.75107599E+02 -.30722122E+04 0.30930848E+04 0.29972125E+03 0.0000E+00 0.0000E+00
       23  2    1    2    0    0 -.18223975E+03 -.75107599E+02 -.12187326E+04 0.12377957E+04 0.89311585E+02 0.0000E+00 0.0000E+00
       23  1    3    3    0    0 0.17061401E+03 0.75154602E+02 -.11433661E+04 0.11620493E+04 0.91188000E+02 0.0000E+00 0.9000E+01
      -11  1    4    4    0    0 -.57876382E+02 -.23950423E+01 -.58671932E+03 0.58957186E+03 0.51099893E-03 0.0000E+00 0.9000E+01
       11  1    4    4    0    0 -.12436336E+03 -.72712556E+02 -.63201326E+03 0.64822382E+03 0.51099893E-03 0.0000E+00 0.9000E+01
       23  1    3    3    0    0 0.11625732E+02 -.47003446E-01 -.19288461E+04 0.19310354E+04 0.91188000E+02 0.0000E+00 0.9000E+01
#aMCatNLO 1  0  0  2  1 0.39877566D+02 0.00000000D+00  -5  7  0 0.00000000D+00 0.00000000D+00 0.00000000D+00 0.00000000D+00 0.00000000D+00
  <mgrwgt>
 0.1688395559D-03    9    2    0
 0.293393051767880D+03 0.000000000000000D+00 0.000000000000000D+00 0.293393051767880D+03
 0.293393051767880D+03 0.000000000000000D+00 0.000000000000000D+00 -.293393051767880D+03
 0.215710406385796D+03 0.170614013597551D+03 0.751546020073458D+02 0.588079266798059D+02
 0.609847229579849D+02 -.578763824841787D+02 -.239504230493419D+01 -.190715640985421D+02
 0.162658665644235D+03 -.124363363395497D+03 -.727125562576499D+02 0.755280048498625D+02
 0.147432308547744D+03 0.116257322821250D+02 -.470034447616285D-01 -.115264367431126D+03
 0.000000000000000D+00 -.000000000000000D+00 -.000000000000000D+00 -.000000000000000D+00
 0.299435795170662D+03 0.000000000000000D+00 0.000000000000000D+00 0.299435795170662D+03
 0.368157416722018D+03 0.000000000000000D+00 0.000000000000000D+00 -.368157416722018D+03
 0.226916139355228D+03 0.178996654589926D+03 0.876213921432339D+02 0.588079266798059D+02
 0.587956169904239D+02 -.556079338396193D+02 0.978628738771929D+00 -.190715640985421D+02
 0.154217237213949D+03 -.118362239065396D+03 -.637875936270434D+02 0.755280048498625D+02
 0.148210574526252D+03 0.172247370743279D+02 0.827992094311480D+01 -.115264367431126D+03
 0.794536438068264D+02 -.222512187592393D+02 -.330923481980772D+02 -.687216215513556D+02
0.110837210643D-04 0.000000000000D+00 0.000000000000D+00 0.893249559281D-07 0.000000000000D+00  7 -2 2 23 -11 11 23 21 0 0.30719707D-02 0.66321733D+00 0.62863457D+05 0.62863457D+05 0.62863457D+05 0.11386511D+01  1  2  2  2  7  2        2 0.103325749438D-03 0.100000000000D+01
-.597272144249D-06 0.000000000000D+00 -.425644072976D-07 0.893249559281D-07 0.000000000000D+00  7 -2 2 23 -11 11 23 21 2 0.30719707D-02 0.66321733D+00 0.62863457D+05 0.62863457D+05 0.62863457D+05 0.11386511D+01  1  2  3  2  7  2        2 -.721899202106D-05 0.100000000000D+01
0.697072050362D-06 0.000000000000D+00 0.000000000000D+00 0.893249559281D-07 0.000000000000D+00  7 -2 2 23 -11 11 23 21 2 0.30719707D-02 0.66321733D+00 0.62863457D+05 0.62863457D+05 0.62863457D+05 0.11386511D+01  1  2 15  2  7  2        2 0.842523398775D-05 0.100000000000D+01
0.167341058933D-04 0.000000000000D+00 0.000000000000D+00 0.893249559281D-07 0.000000000000D+00  7 -2 2 23 -11 11 23 21 2 0.30719707D-02 0.83784956D+00 0.73517675D+05 0.73517675D+05 0.73517675D+05 0.11328539D+01  1  2 12  2  7  2        2 0.778640137279D-05 0.100000000000D+01
-.201287288927D-04 0.000000000000D+00 0.000000000000D+00 0.893249559281D-07 0.000000000000D+00  7 -2 2 23 -11 11 23 21 2 0.30719707D-02 0.66321733D+00 0.62863457D+05 0.62863457D+05 0.62863457D+05 0.11386511D+01  1  2  4  2  7  2        2 -.243287979642D-03 0.100000000000D+01
-.213573265708D-04 0.000000000000D+00 -.265987846403D-05 0.893249559281D-07 0.000000000000D+00  7 -2 2 23 -11 11 23 21 2 0.30719707D-02 0.83351573D+00 0.62863457D+05 0.62863457D+05 0.62863457D+05 0.11386511D+01  1  2  5  2  7  2        2 -.114267354579D-04 0.100000000000D+01
0.257505173415D-04 0.000000000000D+00 0.321325599880D-05 0.893249559281D-07 0.000000000000D+00  7 -2 2 23 -11 11 23 21 2 0.30719707D-02 0.66321733D+00 0.62863457D+05 0.62863457D+05 0.62863457D+05 0.11386511D+01  1  2  6  2  7  2        2 0.311236311649D-03 0.100000000000D+01
0.538775629765D-06 0.000000000000D+00 0.000000000000D+00 0.893249559281D-07 0.000000000000D+00  7 -2 21 23 -11 11 23 -2 2 0.30719707D-02 0.83784956D+00 0.73517675D+05 0.73517675D+05 0.73517675D+05 0.11328539D+01  1  2 12  4  7  2        2 0.105083164038D-08 0.100000000000D+01
-.637774307084D-06 0.000000000000D+00 -.842145097027D-07 0.893249559281D-07 0.000000000000D+00  7 -2 21 23 -11 11 23 -2 2 0.30719707D-02 0.83351573D+00 0.62863457D+05 0.62863457D+05 0.62863457D+05 0.11386511D+01  1  2  5  4  7  2        2 -.148430711544D-08 0.100000000000D+01
  </mgrwgt>
  </event>
  <event>
  8     66 0.53686478E-06 0.25509016E+03 0.75467711E-02 0.96815584E-01
       -2 -1    0    0    0  501 0.00000000E+00 0.00000000E+00 0.10877498E+03 0.10877545E+03 0.32000000E+00 0.0000E+00 0.9000E+01
        2 -1    0    0  501    0 0.00000000E+00 0.00000000E+00 -.20810153E+04 0.20810154E+04 0.32000000E+00 0.0000E+00 0.9000E+01
       25  2    1    2    0    0 0.29617419E+03 0.11527240E+03 -.17179601E+04 0.17726582E+04 0.29987244E+03 0.0000E+00 0.0000E+00
       23  2    1    2    0    0 -.29617419E+03 -.11527240E+03 -.25428028E+03 0.41713260E+03 0.91292214E+02 0.0000E+00 0.0000E+00
       23  1    3    3    0    0 0.31524915E+03 0.85990519E+02 -.13228033E+04 0.13656135E+04 0.91188000E+02 0.0000E+00 0.9000E+01
      -11  1    4    4    0    0 -.19634359E+03 -.39914466E+02 -.19159903E+03 0.27722583E+03 0.51099893E-03 0.0000E+00 0.9000E+01
       11  1    4    4    0    0 -.99830594E+02 -.75357930E+02 -.62681252E+02 0.13990677E+03 0.51099893E-03 0.0000E+00 0.9000E+01
       23  1    3    3    0    0 -.19074964E+02 0.29281877E+02 -.39515672E+03 0.40704468E+03 0.91188000E+02 0.0000E+00 0.9000E+01
#aMCatNLO 1  0  0  2  1 0.60920042D+02 0.00000000D+00  -5  7  0 0.00000000D+00 0.00000000D+00 0.00000000D+00 0.00000000D+00 0.00000000D+00
  <mgrwgt>
 0.3216406853D-03    9    2    0
 0.475776157352253D+03 0.000000000000000D+00 0.000000000000000D+00 0.475776157352253D+03
 0.475776157352253D+03 0.000000000000000D+00 0.000000000000000D+00 -.475776157352253D+03
 0.400946792868025D+03 0.315249150003041D+03 0.859905186366594D+02 -.213697645036424D+03
 0.240856154302061D+03 -.196343592832737D+03 -.399144656050761D+02 0.133670176382661D+03
 0.192048364244926D+03 -.998305935623742D+02 -.753579298372336D+02 0.145731291110669D+03
 0.117701003289495D+03 -.190749636079298D+02 0.292818768056504D+02 -.657038224569059D+02
 0.000000000000000D+00 0.000000000000000D+00 0.000000000000000D+00 -.000000000000000D+00
 0.498842158526072D+03 0.000000000000000D+00 0.000000000000000D+00 0.498842158526072D+03
 0.518747999488625D+03 0.000000000000000D+00 0.000000000000000D+00 -.518747999488625D+03
 0.383990251908036D+03 0.298152992462163D+03 0.676119206068041D+02 -.213697645036424D+03
 0.251781890910465D+03 -.207073392996501D+03 -.514491442999232D+02 0.133670176382661D+03
 0.200327163728747D+03 -.108376646887373D+03 -.845450514712211D+02 0.145731291110669D+03
 0.117401117724459D+03 -.241955563048838D+02 0.237771711648120D+02 -.657038224569059D+02
 0.640897337429903D+02 0.414926037265943D+02 0.446051039995283D+02 -.199058409625533D+02
0.697825890447D-05 0.000000000000D+00 0.000000000000D+00 0.110031063413D-05 0.000000000000D+00  7 -2 2 23 -11 11 23 21 0 0.16734651D-01 0.32015624D+00 0.14529294D+06 0.14529294D+06 0.14529294D+06 0.11086463D+01  1  2  2  2  7  2        2 0.149765014584D-03 0.100000000000D+01
-.364514390853D-06 0.000000000000D+00 -.267983516109D-07 0.110031063413D-05 0.000000000000D+00  7 -2 2 23 -11 11 23 21 2 0.16734651D-01 0.32015624D+00 0.14529294D+06 0.14529294D+06 0.14529294D+06 0.11086463D+01  1  2  3  2  7  2        2 -.961532499049D-05 0.100000000000D+01
0.424101551577D-06 0.000000000000D+00 0.000000000000D+00 0.110031063413D-05 0.000000000000D+00  7 -2 2 23 -11 11 23 21 2 0.16734651D-01 0.32015624D+00 0.14529294D+06 0.14529294D+06 0.14529294D+06 0.11086463D+01  1  2 15  2  7  2        2 0.111871419887D-04 0.100000000000D+01
0.111261256335D-04 0.000000000000D+00 0.000000000000D+00 0.110031063413D-05 0.000000000000D+00  7 -2 2 23 -11 11 23 21 2 0.16734651D-01 0.35628346D+00 0.17142437D+06 0.17142437D+06 0.17142437D+06 0.11030052D+01  1  2 12  2  7  2        2 0.214238172905D-03 0.100000000000D+01
-.103659084256D-04 0.000000000000D+00 0.000000000000D+00 0.110031063413D-05 0.000000000000D+00  7 -2 2 23 -11 11 23 21 2 0.16734651D-01 0.32015624D+00 0.14529294D+06 0.14529294D+06 0.14529294D+06 0.11086463D+01  1  2  4  2  7  2        2 -.273436607263D-03 0.100000000000D+01
-.317818662332D-04 0.000000000000D+00 -.669355468777D-05 0.110031063413D-05 0.000000000000D+00  7 -2 2 23 -11 11 23 21 2 0.16734651D-01 0.35617272D+00 0.14529294D+06 0.14529294D+06 0.14529294D+06 0.11086463D+01  1  2  5  2  7  2        2 -.622853111622D-03 0.100000000000D+01
0.323493016677D-04 0.000000000000D+00 0.665569793564D-05 0.110031063413D-05 0.000000000000D+00  7 -2 2 23 -11 11 23 21 2 0.16734651D-01 0.32015624D+00 0.14529294D+06 0.14529294D+06 0.14529294D+06 0.11086463D+01  1  2  6  2  7  2        2 0.853324468266D-03 0.100000000000D+01
0.191411494946D-06 0.000000000000D+00 0.000000000000D+00 0.110031063413D-05 0.000000000000D+00  7 -2 21 23 -11 11 23 -2 2 0.16734651D-01 0.35628346D+00 0.17142437D+06 0.17142437D+06 0.17142437D+06 0.11030052D+01  1  2 12  4  7  2        2 0.539569079473D-06 0.100000000000D+01
-.520535580065D-06 0.000000000000D+00 -.114867839347D-06 0.110031063413D-05 0.000000000000D+00  7 -2 21 23 -11 11 23 -2 2 0.16734651D-01 0.35617272D+00 0.14529294D+06 0.14529294D+06 0.14529294D+06 0.11086463D+01  1  2  5  4  7  2        2 -.150863763753D-05 0.100000000000D+01
  </mgrwgt>
  </event>
  <event>
  8     66 0.53686478E-06 0.19990271E+03 0.75467711E-02 0.89428575E-01
       -2 -1    0    0    0  501 0.00000000E+00 0.00000000E+00 0.12237499E+03 0.12237541E+03 0.32000000E+00 0.0000E+00 0.9000E+01
        2 -1    0    0  501    0 0.00000000E+00 0.00000000E+00 -.58572846E+03 0.58572855E+03 0.32000000E+00 0.0000E+00 0.9000E+01
       25  2    1    2    0    0 -.10166168E+03 -.36749377E+02 -.46927640E+03 0.56687755E+03 0.29907225E+03 0.0000E+00 0.0000E+00
       23  2    1    2    0    0 0.10166168E+03 0.36749377E+02 0.59229211E+01 0.14122641E+03 0.90687390E+02 0.0000E+00 0.0000E+00
       23  1    3    3    0    0 -.30920545E+02 0.55946138E+02 -.37545534E+03 0.39162229E+03 0.91188000E+02 0.0000E+00 0.9000E+01
      -13  1    4    4    0    0 0.10436753E+03 0.80470760E+00 0.10468660E+02 0.10489438E+03 0.10565837E+00 0.0000E+00 0.9000E+01
       13  1    4    4    0    0 -.27058452E+01 0.35944669E+02 -.45457389E+01 0.36332021E+02 0.10565837E+00 0.0000E+00 0.9000E+01
       23  1    3    3    0    0 -.70741135E+02 -.92695515E+02 -.93821052E+02 0.17525526E+03 0.91188000E+02 0.0000E+00 0.9000E+01
#aMCatNLO 1  0  0  2  1 0.76741064D+03 0.00000000D+00  -5  7  0 0.00000000D+00 0.00000000D+00 0.00000000D+00 0.00000000D+00 0.00000000D+00
  <mgrwgt>
 0.3210099645D-03    3    2    0
 0.267728768609809D+03 0.000000000000000D+00 0.000000000000000D+00 0.267728768609809D+03
 0.267728768609809D+03 0.000000000000000D+00 0.000000000000000D+00 -.267728768609809D+03
 0.192995239005335D+03 -.309205460259618D+02 0.559461381379326D+02 -.157625697129733D+03
 0.147774358757067D+03 0.104367669862107D+03 0.804661772293301D+00 0.104613589523774D+03
 0.441127194693400D+02 -.270598876865122D+01 0.359447154513004D+02 0.254280765078618D+02
 0.150575219987876D+03 -.707411350674940D+02 -.926955153615263D+02 0.275840310980968D+02
 0.000000000000000D+00 -.000000000000000D+00 0.000000000000000D+00 0.000000000000000D+00
 0.180381215957203D+04 0.000000000000000D+00 0.000000000000000D+00 0.180381215957203D+04
 0.578083785184538D+03 0.000000000000000D+00 0.000000000000000D+00 -.578083785184538D+03
 0.255729986221840D+03 0.163225642791780D+03 -.747937407046765D+02 -.157625697129733D+03
 0.381672125734200D+03 0.333438850549334D+03 -.153454036746360D+03 0.104613589523774D+03
 0.450987483192812D+02 0.358923905875102D+02 0.995220191665167D+01 0.254280765078618D+02
 0.253252237555757D+03 0.103979512255960D+03 -.210354050929355D+03 0.275840310980968D+02
 0.144614284692549D+04 -.636536396184583D+03 0.428649626463739D+03 0.122572837438750D+04
0.231003537709D-05 0.000000000000D+00 0.000000000000D+00 0.905016307905D-07 0.000000000000D+00  7 -2 2 23 -13 13 23 21 0 0.18826960D-01 0.90112110D-01 0.39961093D+05 0.39961093D+05 0.39961093D+05 0.11559564D+01  1  2  2  2  7  2        2 0.316512387125D-03 0.100000000000D+01
-.115017868407D-06 0.000000000000D+00 -.887114409431D-08 0.905016307905D-07 0.000000000000D+00  7 -2 2 23 -13 13 23 21 2 0.18826960D-01 0.90112110D-01 0.39961093D+05 0.39961093D+05 0.39961093D+05 0.11559564D+01  1  2  3  2  7  2        2 -.210581548529D-04 0.100000000000D+01
0.139583257455D-06 0.000000000000D+00 0.000000000000D+00 0.905016307905D-07 0.000000000000D+00  7 -2 2 23 -13 13 23 21 2 0.18826960D-01 0.90112110D-01 0.39961093D+05 0.39961093D+05 0.39961093D+05 0.11559564D+01  1  2 15  2  7  2        2 0.255557322621D-04 0.100000000000D+01
  </mgrwgt>
  </event>
  <event>
  8     66 0.53686478E-06 0.12742532E+03 0.75467711E-02 0.94518095E-01
       -2 -1    0    0    0  501 0.00000000E+00 0.00000000E+00 0.44341300E+02 0.44342454E+02 0.32000000E+00 0.0000E+00 0.9000E+01
        2 -1    0    0  501    0 0.00000000E+00 0.00000000E+00 -.14361842E+04 0.14361843E+04 0.32000000E+00 0.0000E+00 0.9000E+01
       25  2    1    2    0    0 0.11545265E+02 0.28362778E+02 -.50745221E+03 0.59092987E+03 0.30125177E+03 0.0000E+00 0.0000E+00
       23  2    1    2    0    0 -.11545265E+02 -.28362778E+02 -.88439073E+03 0.88959686E+03 0.91092616E+02 0.0000E+00 0.0000E+00
       23  1    3    3    0    0 -.18668804E+02 0.19420293E+02 -.48180893E+03 0.49110158E+03 0.91188000E+02 0.0000E+00 0.9000E+01
      -11  1    4    4    0    0 -.31884179E+02 -.28769805E+02 -.83602182E+03 0.83712412E+03 0.51099893E-03 0.0000E+00 0.9000E+01
       11  1    4    4    0    0 0.20338914E+02 0.40702718E+00 -.48368913E+02 0.52472744E+02 0.51099893E-03 0.0000E+00 0.9000E+01
       23  1    3    3    0    0 0.30214069E+02 0.89424848E+01 -.25643283E+02 0.99828289E+02 0.91188000E+02 0.0000E+00 0.9000E+01
#aMCatNLO 1  0  0  2  1 0.46616267D+03 0.00000000D+00  -5  7  0 0.00000000D+00 0.00000000D+00 0.00000000D+00 0.00000000D+00 0.00000000D+00
  <mgrwgt>
 0.3500161404D-03    3    2    0
 0.252355219746416D+03 0.000000000000000D+00 0.000000000000000D+00 0.252355219746416D+03
 0.252355219746416D+03 0.000000000000000D+00 0.000000000000000D+00 -.252355219746416D+03
 0.111918961146438D+03 -.186688037811731D+02 0.194202931229053D+02 -.590332999289246D+02
 0.150132742185890D+03 -.318841789061848D+02 -.287698051500044D+02 -.143859437380257D+03
 0.205372604784763D+02 0.203389141701164D+02 0.407027179458820D+00 0.281814960862742D+01
 0.222121475682027D+03 0.302140685172416D+02 0.894248484764034D+01 0.200074587700554D+03
 0.000000000000000D+00 0.000000000000000D+00 0.000000000000000D+00 0.000000000000000D+00
 0.176214891110683D+04 0.000000000000000D+00 0.000000000000000D+00 0.176214891110683D+04
 0.381821452596697D+03 0.000000000000000D+00 0.000000000000000D+00 -.381821452596697D+03
 0.145310227966836D+03 -.685008743078830D+02 -.679890485764512D+02 -.590332999289246D+02
 0.242042327586020D+03 -.107858821609293D+03 -.162035259190550D+03 -.143859437380257D+03
 0.183264792904339D+02 0.128099839278988D+02 -.127993041894109D+02 0.281814960862742D+01
 0.281372825884395D+03 -.673260420430952D+02 -.162150483259948D+03 0.200074587700554D+03
 0.145691850297584D+04 0.230875754032372D+03 0.404974095216361D+03 0.138032745851013D+04
0.171486965648D-05 0.000000000000D+00 0.000000000000D+00 0.604581545429D-07 0.000000000000D+00  7 -2 2 23 -11 11 23 21 0 0.68218300D-02 0.22095151D+00 0.16237213D+05 0.16237213D+05 0.16237213D+05 0.11929115D+01  1  2  2  2  7  2        2 0.333304159799D-03 0.100000000000D+01
-.411861230737D-07 0.000000000000D+00 -.658555101644D-08 0.604581545429D-07 0.000000000000D+00  7 -2 2 23 -11 11 23 21 2 0.68218300D-02 0.22095151D+00 0.16237213D+05 0.16237213D+05 0.16237213D+05 0.11929115D+01  1  2  3  2  7  2        2 -.113913969785D-04 0.100000000000D+01
0.101609062430D-06 0.000000000000D+00 0.000000000000D+00 0.604581545429D-07 0.000000000000D+00  7 -2 2 23 -11 11 23 21 2 0.68218300D-02 0.22095151D+00 0.16237213D+05 0.16237213D+05 0.16237213D+05 0.11929115D+01  1  2 15  2  7  2        2 0.281033775547D-04 0.100000000000D+01
  </mgrwgt>
  </event>
  <event>
  9     66 -.53686478E-06 0.12747097E+04 0.75467711E-02 0.84315775E-01
       21 -1    0    0  502  501 0.00000000E+00 0.00000000E+00 0.49043504E+03 0.49043561E+03 0.75000000E+00 0.0000E+00 0.9000E+01
        2 -1    0    0  501    0 0.00000000E+00 0.00000000E+00 -.39589932E+04 0.39589932E+04 0.32000000E+00 0.0000E+00 0.9000E+01
       25  2    1    2    0    0 0.10471056E+04 0.59018078E+03 -.15197674E+04 0.19607031E+04 0.29986728E+03 0.0000E+00 0.0000E+00
       23  2    1    2    0    0 -.12315576E+04 -.46866634E+03 -.17420610E+04 0.21861937E+04 0.91017956E+02 0.0000E+00 0.0000E+00
       23  1    3    3    0    0 0.36757015E+03 0.87692782E+02 -.48396024E+03 0.62075004E+03 0.91188000E+02 0.0000E+00 0.9000E+01
      -11  1    4    4    0    0 -.67110999E+02 -.46260129E+02 -.12489744E+03 0.14914173E+03 0.51099893E-03 0.0000E+00 0.9000E+01
       11  1    4    4    0    0 -.11644466E+04 -.42240622E+03 -.16171636E+04 0.20370520E+04 0.51099893E-03 0.0000E+00 0.9000E+01
       23  1    3    3    0    0 0.67953544E+03 0.50248800E+03 -.10358072E+04 0.13399531E+04 0.91188000E+02 0.0000E+00 0.9000E+01
        2  1    1    2  502    0 0.18445196E+03 -.12151444E+03 -.20672968E+03 0.30253190E+03 0.32000000E+00 0.0000E+00 0.9000E+01
#aMCatNLO 2  0  0  1  2 0.22088070D+03 0.00000000D+00  -5  7  0 0.00000000D+00 0.00000000D+00 0.00000000D+00 0.00000000D+00 0.00000000D+00
  <mgrwgt>
 -.4385638791D-05    2    2    0
 0.127558229334287D+04 0.000000000000000D+00 0.000000000000000D+00 0.127558229334287D+04
 0.127558229334287D+04 0.000000000000000D+00 0.000000000000000D+00 -.127558229334287D+04
 0.412648488410727D+03 0.396488679976127D+03 0.686416500164830D+02 0.696951773517621D+01
 0.800904350137755D+02 -.612467367261444D+02 -.501234249281310D+02 -.122864679451885D+02
 0.117949208410314D+04 -.107718258282248D+04 -.479894531896587D+03 -.240935257197590D+02
 0.878933579158103D+03 0.741940639572501D+03 0.461376306808235D+03 0.294104759297713D+02
 0.000000000000000D+00 0.000000000000000D+00 -.000000000000000D+00 0.000000000000000D+00
 0.141894326634695D+04 0.000000000000000D+00 0.000000000000000D+00 0.141894326634695D+04
 0.136836334091776D+04 0.000000000000000D+00 0.000000000000000D+00 -.136836334091776D+04
 0.388795146928270D+03 0.367570152175535D+03 0.876927818190787D+02 0.696951773517621D+01
 0.824308378727999D+02 -.671109993404082D+02 -.462601286787595D+02 -.122864679451885D+02
 0.123892828401772D+04 -.116444655693769D+04 -.422406215618844D+03 -.240935257197590D+02
 0.850554428458884D+03 0.679535443718761D+03 0.502487998923905D+03 0.294104759297713D+02
 0.226597909987030D+03 0.184451960383807D+03 -.121514436445380D+03 0.505799254291882D+02
-.249323241237D-04 0.000000000000D+00 0.000000000000D+00 0.107320406509D-04 0.000000000000D+00  7 21 2 23 -11 11 23 2 2 0.77688881D-01 0.56777785D+00 0.19319098D+07 0.19319098D+07 0.19319098D+07 0.10293412D+01  1  2 13  3  7  1       -2 -.232210656122D-04 0.100000000000D+01
0.307996536514D-04 0.000000000000D+00 0.000000000000D+00 0.107320406509D-04 0.233131442172D-10  7 21 2 23 -11 11 23 2 2 0.75451583D-01 0.60907587D+00 0.19319098D+07 0.19319098D+07 0.19319098D+07 0.10293412D+01  1  2  1  3  7  1       -2 0.188354268213D-04 0.100000000000D+01
  </mgrwgt>
  </event>
  <event>
  8     66 0.53686478E-06 0.45926288E+03 0.75467711E-02 0.87669189E-01
       -2 -1    0    0    0  501 0.00000000E+00 0.00000000E+00 0.14173583E+04 0.14173583E+04 0.32000000E+00 0.0000E+00 0.9000E+01
        2 -1    0    0  501    0 0.00000000E+00 0.00000000E+00 -.77451759E+03 0.77451766E+03 0.32000000E+00 0.0000E+00 0.9000E+01
       25  2    1    2    0    0 -.61951243E+03 0.48705528E+03 -.35673222E+03 0.91541635E+03 0.29951746E+03 0.0000E+00 0.0000E+00
       23  2    1    2    0    0 0.61951243E+03 -.48705528E+03 0.99957290E+03 0.12764596E+04 0.95836603E+02 0.0000E+00 0.0000E+00
       23  1    3    3    0    0 -.69842852E+02 0.11605748E+03 -.12982595E+03 0.20860823E+03 0.91188000E+02 0.0000E+00 0.9000E+01
      -13  1    4    4    0    0 0.32913203E+03 -.29644340E+03 0.49986200E+03 0.66788368E+03 0.10565837E+00 0.0000E+00 0.9000E+01
       13  1    4    4    0    0 0.29038040E+03 -.19061189E+03 0.49971090E+03 0.60857593E+03 0.10565837E+00 0.0000E+00 0.9000E+01
       23  1    3    3    0    0 -.54966958E+03 0.37099780E+03 -.22690628E+03 0.70680812E+03 0.91188000E+02 0.0000E+00 0.9000E+01
#aMCatNLO 1  0  0  1  2 0.29400187D+03 0.00000000D+00  -5  7  0 0.00000000D+00 0.00000000D+00 0.00000000D+00 0.00000000D+00 0.00000000D+00
  <mgrwgt>
 0.1853202915D-03    9    2    0
 0.104774472972018D+04 0.000000000000000D+00 0.000000000000000D+00 0.104774472972018D+04
 0.104774472972018D+04 0.000000000000000D+00 0.000000000000000D+00 -.104774472972018D+04
 0.258030768279790D+03 -.698428524798196D+02 0.116057483385322D+03 -.199793049285521D+03
 0.545260063332658D+03 0.329132075633523D+03 -.296443524074102D+03 0.317965171817969D+03
 0.483270526497977D+03 0.290380353900492D+03 -.190611758148046D+03 0.336001204619816D+03
 0.808928101329943D+03 -.549669577054196D+03 0.370997798836826D+03 -.454173327152265D+03
 0.000000000000000D+00 0.000000000000000D+00 0.000000000000000D+00 0.000000000000000D+00
 0.135524979498334D+04 0.000000000000000D+00 0.000000000000000D+00 0.135524979498334D+04
 0.113070576777353D+04 0.000000000000000D+00 0.000000000000000D+00 -.113070576777353D+04
 0.251382984387274D+03 -.876737238548344D+02 0.852889740709312D+02 -.199793049285521D+03
 0.563432330689701D+03 0.290324816566078D+03 -.363408367629407D+03 0.317965171817969D+03
 0.490714709669114D+03 0.256288212931912D+03 -.249440310879861D+03 0.336001204619816D+03
 0.810483485729692D+03 -.606353401471753D+03 0.273185597577230D+03 -.454173327152265D+03
 0.369942052281092D+03 0.147414095828597D+03 0.254374106861108D+03 0.224544027209803D+03
0.338861956753D-03 0.000000000000D+00 0.000000000000D+00 0.271038688004D-06 0.000000000000D+00  7 -2 2 23 -13 13 23 21 0 0.21805513D+00 0.11915656D+00 0.65852219D+06 0.65852219D+06 0.65852219D+06 0.10601590D+01  1  2  2  1  7  1       -2 0.138062076851D-03 0.100000000000D+01
-.173312309466D-04 0.000000000000D+00 -.130131913833D-05 0.271038688004D-06 0.000000000000D+00  7 -2 2 23 -13 13 23 21 2 0.21805513D+00 0.11915656D+00 0.65852219D+06 0.65852219D+06 0.65852219D+06 0.10601590D+01  1  2  3  1  7  1       -2 -.793638947297D-05 0.100000000000D+01
0.213836899209D-04 0.000000000000D+00 0.000000000000D+00 0.271038688004D-06 0.000000000000D+00  7 -2 2 23 -13 13 23 21 2 0.21805513D+00 0.11915656D+00 0.65852219D+06 0.65852219D+06 0.65852219D+06 0.10601590D+01  1  2 15  1  7  1       -2 0.979210836809D-05 0.100000000000D+01
0.288610568634D-03 0.000000000000D+00 0.000000000000D+00 0.271038688004D-06 0.000000000000D+00  7 -2 2 23 -13 13 23 21 2 0.28878147D+00 0.11915656D+00 0.94149929D+06 0.94149929D+06 0.94149929D+06 0.10496111D+01  1  2 12  1  7  1       -2 0.436420327453D-04 0.100000000000D+01
-.333961694895D-03 0.000000000000D+00 0.000000000000D+00 0.271038688004D-06 0.000000000000D+00  7 -2 2 23 -13 13 23 21 2 0.21805513D+00 0.11915656D+00 0.65852219D+06 0.65852219D+06 0.65852219D+06 0.10601590D+01  1  2  4  1  7  1       -2 -.152929130533D-03 0.100000000000D+01
-.484902598797D-03 0.000000000000D+00 -.141423294545D-03 0.271038688004D-06 0.000000000000D+00  7 -2 2 23 -13 13 23 21 2 0.29144832D+00 0.11915656D+00 0.65852219D+06 0.65852219D+06 0.65852219D+06 0.10601590D+01  1  2  5  1  7  1       -2 -.737261619532D-04 0.100000000000D+01
0.510065138043D-03 0.000000000000D+00 0.135673544929D-03 0.271038688004D-06 0.000000000000D+00  7 -2 2 23 -13 13 23 21 2 0.21805513D+00 0.11915656D+00 0.65852219D+06 0.65852219D+06 0.65852219D+06 0.10601590D+01  1  2  6  1  7  1       -2 0.233571152826D-03 0.100000000000D+01
0.106377227704D-04 0.000000000000D+00 0.000000000000D+00 0.271038688004D-06 0.000000000000D+00  7 21 2 23 -13 13 23 2 2 0.28878147D+00 0.11915656D+00 0.94149929D+06 0.94149929D+06 0.94149929D+06 0.10496111D+01  1  2 12  3  7  1       -2 0.111817739734D-04 0.100000000000D+01
-.152857117505D-04 0.000000000000D+00 -.533583585533D-05 0.271038688004D-06 0.000000000000D+00  7 21 2 23 -13 13 23 2 2 0.29144832D+00 0.11915656D+00 0.65852219D+06 0.65852219D+06 0.65852219D+06 0.10601590D+01  1  2  5  3  7  1       -2 -.163371712844D-04 0.100000000000D+01
  </mgrwgt>
  </event>
  <event>
  8     66 0.53686478E-06 0.27380297E+03 0.75467711E-02 0.94733104E-01
       -2 -1    0    0    0  501 0.00000000E+00 0.00000000E+00 0.80153940E+02 0.80154579E+02 0.32000000E+00 0.0000E+00 0.9000E+01
        2 -1    0    0  501    0 0.00000000E+00 0.00000000E+00 -.21923208E+04 0.21923208E+04 0.32000000E+00 0.0000E+00 0.9000E+01
       25  2    1    2    0    0 -.14221954E+03 0.12063352E+03 -.34671311E+03 0.49481459E+03 0.29975433E+03 0.0000E+00 0.0000E+00
       23  2    1    2    0    0 0.14221954E+03 -.12063352E+03 -.17654537E+04 0.17776608E+04 0.92044374E+02 0.0000E+00 0.0000E+00
       23  1    3    3    0    0 0.39378968E+02 -.74798641E+01 -.16836984E+03 0.19562797E+03 0.91188000E+02 0.0000E+00 0.9000E+01
      -13  1    4    4    0    0 0.84382057E+00 -.49510539E+02 -.38897542E+03 0.39211464E+03 0.10565837E+00 0.0000E+00 0.9000E+01
       13  1    4    4    0    0 0.14137572E+03 -.71122977E+02 -.13764783E+04 0.13855462E+04 0.10565837E+00 0.0000E+00 0.9000E+01
       23  1    3    3    0    0 -.18159851E+03 0.12811338E+03 -.17834327E+03 0.29918662E+03 0.91188000E+02 0.0000E+00 0.9000E+01
#aMCatNLO 1  0  0  2  1 0.37401758D+03 0.00000000D+00  -5  7  0 0.00000000D+00 0.00000000D+00 0.00000000D+00 0.00000000D+00 0.00000000D+00
  <mgrwgt>
 0.3316027964D-03    3    2    0
 0.419194349725990D+03 0.000000000000000D+00 0.000000000000000D+00 0.419194349725990D+03
 0.419194349725990D+03 0.000000000000000D+00 0.000000000000000D+00 -.419194349725990D+03
 0.106077971882906D+03 0.393789678416154D+02 -.747986405778116D+01 0.364778467044968D+02
 0.828847835100991D+02 0.843635670178351D+00 -.495105106614765D+02 -.664671719754332D+02
 0.287775700086884D+03 0.141375907379891D+03 -.711230057823117D+02 -.240352292315879D+03
 0.361650243972091D+03 -.181598510891684D+03 0.128113380501569D+03 0.270341617586816D+03
 0.000000000000000D+00 0.000000000000000D+00 -.000000000000000D+00 0.000000000000000D+00
 0.788126857602103D+03 0.000000000000000D+00 0.000000000000000D+00 0.788126857602103D+03
 0.565279663704669D+03 0.000000000000000D+00 0.000000000000000D+00 -.565279663704669D+03
 0.104527556609833D+03 0.170875739058723D+02 0.314346984180932D+02 0.364778467044968D+02
 0.714058828400448D+02 -.154871513173909D+02 -.210015070370349D+02 -.664671719754332D+02
 0.256232455324596D+03 0.837957470520844D+02 0.293959098542027D+02 -.240352292315879D+03
 0.485867198880638D+03 -.271303398133974D+03 0.284713118007619D+03 0.270341617586816D+03
 0.435373427651659D+03 0.185907228493408D+03 -.324542219242880D+03 0.222847193897434D+03
0.104297993718D-04 0.000000000000D+00 0.000000000000D+00 0.832429485452D-06 0.000000000000D+00  7 -2 2 23 -13 13 23 21 0 0.12331426D-01 0.33728017D+00 0.74968064D+05 0.74968064D+05 0.74968064D+05 0.11321368D+01  1  2  2  2  7  2        2 0.323592929509D-03 0.100000000000D+01
-.451626759510D-06 0.000000000000D+00 -.400531758170D-07 0.832429485452D-06 0.000000000000D+00  7 -2 2 23 -13 13 23 21 2 0.12331426D-01 0.33728017D+00 0.74968064D+05 0.74968064D+05 0.74968064D+05 0.11321368D+01  1  2  3  2  7  2        2 -.179597619802D-04 0.100000000000D+01
0.653047593725D-06 0.000000000000D+00 0.000000000000D+00 0.832429485452D-06 0.000000000000D+00  7 -2 2 23 -13 13 23 21 2 0.12331426D-01 0.33728017D+00 0.74968064D+05 0.74968064D+05 0.74968064D+05 0.11321368D+01  1  2 15  2  7  2        2 0.259696288984D-04 0.100000000000D+01
  </mgrwgt>
  </event>
  <event>
  8     66 0.53686478E-06 0.11079248E+03 0.75467711E-02 0.10255487E+00
       -2 -1    0    0    0  501 0.00000000E+00 0.00000000E+00 0.80971894E+02 0.80972526E+02 0.32000000E+00 0.0000E+00 0.9000E+01
        2 -1    0    0  501    0 0.00000000E+00 0.00000000E+00 -.93239458E+03 0.93239464E+03 0.32000000E+00 0.0000E+00 0.9000E+01
       25  2    1    2    0    0 -.13330833E+03 -.12351231E+03 -.55579736E+03 0.65741397E+03 0.30042641E+03 0.0000E+00 0.0000E+00
       23  2    1    2    0    0 0.13330833E+03 0.12351231E+03 -.29562533E+03 0.35595320E+03 0.79258680E+02 0.0000E+00 0.0000E+00
       23  1    3    3    0    0 0.87485080E+01 0.38197356E+02 -.27315524E+03 0.29062796E+03 0.91188000E+02 0.0000E+00 0.9000E+01
      -11  1    4    4    0    0 0.94647903E+02 0.11399879E+03 -.17703398E+03 0.23085706E+03 0.51099893E-03 0.0000E+00 0.9000E+01
       11  1    4    4    0    0 0.38660422E+02 0.95135221E+01 -.11859135E+03 0.12509614E+03 0.51099893E-03 0.0000E+00 0.9000E+01
       23  1    3    3    0    0 -.14205683E+03 -.16170967E+03 -.28264212E+03 0.36678601E+03 0.91188000E+02 0.0000E+00 0.9000E+01
#aMCatNLO 1  0  0  2  1 0.40970481D+01 0.00000000D+00  -5  7  0 0.00000000D+00 0.00000000D+00 0.00000000D+00 0.00000000D+00 0.00000000D+00
  <mgrwgt>
 0.1239626765D-02   11    2    0
 0.274769181978383D+03 0.000000000000000D+00 0.000000000000000D+00 0.274769181978383D+03
 0.274769181978383D+03 0.000000000000000D+00 0.000000000000000D+00 -.274769181978383D+03
 0.112716902119540D+03 0.874850802382969D+01 0.381973560922521D+02 -.534254085089172D+02
 0.151422023106135D+03 0.946479028401124D+02 0.113998789335951D+03 0.312198590557534D+02
 0.469429500836643D+02 0.386604222813765D+02 0.951352207295427D+01 -.248697649637157D+02
 0.238456488647425D+03 -.142056833145319D+03 -.161709667501157D+03 0.470753144168795D+02
 0.000000000000000D+00 -.000000000000000D+00 0.000000000000000D+00 -.000000000000000D+00
 0.276019387570502D+03 0.000000000000000D+00 0.000000000000000D+00 0.276019387570502D+03
 0.278154054846622D+03 0.000000000000000D+00 0.000000000000000D+00 -.278154054846622D+03
 0.112500373850284D+03 0.914712732357752D+01 0.374584911580185D+02 -.534254085089172D+02
 0.151013280121924D+03 0.951831928096436D+02 0.113006597065321D+03 0.312198590557534D+02
 0.470186868076518D+02 0.388267280043255D+02 0.920526437663311D+01 -.248697649637157D+02
 0.239021295604865D+03 -.141211729859240D+03 -.163276117455497D+03 0.470753144168795D+02
 0.461980603239852D+01 -.194531827830677D+01 0.360576485552472D+01 -.213466727611920D+01
0.327752456457D-05 0.000000000000D+00 0.000000000000D+00 0.183989962527D-08 0.000000000000D+00  7 -2 2 23 -11 11 23 21 0 0.12457267D-01 0.14344537D+00 0.67859551D+05 0.67859551D+05 0.67859551D+05 0.11358079D+01  1  2  2  2  7  2        2 0.492990175275D-03 0.100000000000D+01
-.181454962371D-06 0.000000000000D+00 -.125865573200D-07 0.183989962527D-08 0.000000000000D+00  7 -2 2 23 -11 11 23 21 2 0.12457267D-01 0.14344537D+00 0.67859551D+05 0.67859551D+05 0.67859551D+05 0.11358079D+01  1  2  3  2  7  2        2 -.352104001021D-04 0.100000000000D+01
0.207844871462D-06 0.000000000000D+00 0.000000000000D+00 0.183989962527D-08 0.000000000000D+00  7 -2 2 23 -11 11 23 21 2 0.12457267D-01 0.14344537D+00 0.67859551D+05 0.67859551D+05 0.67859551D+05 0.11358079D+01  1  2 15  2  7  2        2 0.403312259292D-04 0.100000000000D+01
0.262946434228D-06 0.000000000000D+00 0.000000000000D+00 0.183989962527D-08 0.000000000000D+00  7 -2 2 23 -11 11 23 21 2 0.12457267D-01 0.14553604D+00 0.68931462D+05 0.68931462D+05 0.68931462D+05 0.11352280D+01  1  2 12  2  7  2        2 0.499895176608D-04 0.100000000000D+01
-.484803353846D-04 0.000000000000D+00 0.000000000000D+00 0.183989962527D-08 0.000000000000D+00  7 -2 2 23 -11 11 23 21 2 0.12457267D-01 0.14344537D+00 0.67859551D+05 0.67859551D+05 0.67859551D+05 0.11358079D+01  1  2  4  2  7  2        2 -.940735917977D-02 0.100000000000D+01
-.250414728547D-03 0.000000000000D+00 -.265482440900D-04 0.183989962527D-08 0.000000000000D+00  7 -2 2 23 -11 11 23 21 2 0.12457267D-01 0.14563034D+00 0.67859551D+05 0.67859551D+05 0.67859551D+05 0.11358079D+01  1  2  5  2  7  2        2 -.476134380937D-01 0.100000000000D+01
0.250790439784D-03 0.000000000000D+00 0.265452108479D-04 0.183989962527D-08 0.000000000000D+00  7 -2 2 23 -11 11 23 21 2 0.12457267D-01 0.14344537D+00 0.67859551D+05 0.67859551D+05 0.67859551D+05 0.11358079D+01  1  2  6  2  7  2        2 0.486645920904D-01 0.100000000000D+01
0.482267141265D-04 0.000000000000D+00 0.000000000000D+00 0.183989962527D-08 0.753405193301D-09  7 -2 2 23 -11 11 23 21 2 0.12513948D-01 0.14521247D+00 0.68931462D+05 0.68931462D+05 0.68931462D+05 0.11352280D+01  1  2 11  2  7  2        2 0.913100707927D-02 0.100000000000D+01
0.182104951569D-07 0.000000000000D+00 0.000000000000D+00 0.183989962527D-08 0.000000000000D+00  7 -2 21 23 -11 11 23 -2 2 0.12457267D-01 0.14553604D+00 0.68931462D+05 0.68931462D+05 0.68931462D+05 0.11352280D+01  1  2 12  4  7  2        2 0.281285653235D-05 0.100000000000D+01
-.691736079576D-06 0.000000000000D+00 -.735725271642D-07 0.183989962527D-08 0.000000000000D+00  7 -2 21 23 -11 11 23 -2 2 0.12457267D-01 0.14563034D+00 0.67859551D+05 0.67859551D+05 0.67859551D+05 0.11358079D+01  1  2  5  4  7  2        2 -.106836738607D-03 0.100000000000D+01
0.134411964093D-06 0.000000000000D+00 0.000000000000D+00 0.183989962527D-08 0.171305574439D-11  7 -2 21 23 -11 11 23 -2 2 0.12513948D-01 0.14521247D+00 0.68931462D+05 0.68931462D+05 0.68931462D+05 0.11352280D+01  1  2 11  4  7  2        2 0.207482321189D-04 0.100000000000D+01
  </mgrwgt>
  </event>
  <event>
  8     66 0.53686478E-06 0.40703920E+03 0.75467711E-02 0.86407915E-01
       -2 -1    0    0    0  501 0.00000000E+00 0.00000000E+00 0.47959231E+03 0.47959242E+03 0.32000000E+00 0.0000E+00 0.9000E+01
        2 -1    0    0  501    0 0.00000000E+00 0.00000000E+00 -.39846550E+03 0.39846563E+03 0.32000000E+00 0.0000E+00 0.9000E+01
       25  2    1    2    0    0 0.15707111E+03 0.33094092E+03 -.20515296E+02 0.47745899E+03 0.30553721E+03 0.0000E+00 0.0000E+00
       23  2    1    2    0    0 -.15707111E+03 -.33094092E+03 0.10164211E+03 0.40059906E+03 0.12631414E+03 0.0000E+00 0.0000E+00
       23  1    3    3    0    0 0.15303682E+03 0.24477730E+03 -.11129630E+03 0.32254970E+03 0.91188000E+02 0.0000E+00 0.9000E+01
      -11  1    4    4    0    0 -.81196104E+02 -.51251641E+02 0.94140649E+01 0.96478819E+02 0.51099893E-03 0.0000E+00 0.9000E+01
       11  1    4    4    0    0 -.75875008E+02 -.27968928E+03 0.92228048E+02 0.30412024E+03 0.51099893E-03 0.0000E+00 0.9000E+01
       23  1    3    3    0    0 0.40342965E+01 0.86163620E+02 0.90781006E+02 0.15490929E+03 0.91188000E+02 0.0000E+00 0.9000E+01
#aMCatNLO 1  0  0  1  1 0.96158860D+03 0.00000000D+00  -5  7  0 0.00000000D+00 0.00000000D+00 0.00000000D+00 0.00000000D+00 0.00000000D+00
  <mgrwgt>
 0.1738439755D-03    3    2    0
 0.437151110945537D+03 0.000000000000000D+00 0.000000000000000D+00 0.437151110945537D+03
 0.437151110945537D+03 0.000000000000000D+00 0.000000000000000D+00 -.437151110945537D+03
 0.334262533390430D+03 0.153036815091249D+03 0.244777296159603D+03 -.141703911012044D+03
 0.960197380898298D+02 -.811961032571393D+02 -.512516410671986D+02 0.502201766746008D+00
 0.296868805741606D+03 -.758750084173715D+02 -.279689275395297D+03 0.644048146411844D+02
 0.147151144669208D+03 0.403429658326220D+01 0.861636203028920D+02 0.767968946041139D+02
 0.000000000000000D+00 0.000000000000000D+00 -.000000000000000D+00 -.000000000000000D+00
 0.109518225106719D+04 0.000000000000000D+00 0.000000000000000D+00 0.109518225106719D+04
 0.116886228458276D+04 0.000000000000000D+00 0.000000000000000D+00 -.116886228458276D+04
 0.357199126545345D+03 -.151185983531329D+03 0.276294706153254D+03 -.141703911012044D+03
 0.225750194135783D+03 -.222765412108429D+03 -.365850941489996D+02 0.502201766746008D+00
 0.492597944075874D+03 -.423217164844746D+03 -.243704710130082D+03 0.644048146411844D+02
 0.224089998248918D+03 -.159300890320501D+03 0.103085107040058D+03 0.767968946041139D+02
 0.964407272644034D+03 0.956469450805005D+03 -.990900089142304D+02 -.736800335155641D+02
0.104240862187D-04 0.000000000000D+00 0.000000000000D+00 0.913820948834D-11 0.000000000000D+00  7 -2 2 23 -11 11 23 21 0 0.73783451D-01 0.61302402D-01 0.16568091D+06 0.16568091D+06 0.16568091D+06 0.11041603D+01  1  2  2  1  7  1       -2 0.172419654909D-03 0.100000000000D+01
-.575529396562D-06 0.000000000000D+00 -.400312358049D-07 0.913820948834D-11 0.000000000000D+00  7 -2 2 23 -11 11 23 21 2 0.73783451D-01 0.61302402D-01 0.16568091D+06 0.16568091D+06 0.16568091D+06 0.11041603D+01  1  2  3  1  7  1       -2 -.116059465167D-04 0.100000000000D+01
0.646160290656D-06 0.000000000000D+00 0.000000000000D+00 0.913820948834D-11 0.000000000000D+00  7 -2 2 23 -11 11 23 21 2 0.73783451D-01 0.61302402D-01 0.16568091D+06 0.16568091D+06 0.16568091D+06 0.11041603D+01  1  2 15  1  7  1       -2 0.130302671234D-04 0.100000000000D+01
  </mgrwgt>
  </event>
  <event>
  8     66 0.53686478E-06 0.19235948E+03 0.75467711E-02 0.97539455E-01
       -2 -1    0    0    0  501 0.00000000E+00 0.00000000E+00 0.14257492E+02 0.14261083E+02 0.32000000E+00 0.0000E+00 0.9000E+01
        2 -1    0    0  501    0 0.00000000E+00 0.00000000E+00 -.35736806E+04 0.35736806E+04 0.32000000E+00 0.0000E+00 0.9000E+01
       25  2    1    2    0    0 0.35506644E+02 0.89601957E+02 -.22727333E+04 0.22943841E+04 0.29931972E+03 0.0000E+00 0.0000E+00
       23  2    1    2    0    0 -.35506644E+02 -.89601957E+02 -.12866897E+04 0.12935576E+04 0.91823125E+02 0.0000E+00 0.0000E+00
       23  1    3    3    0    0 0.28463826E+02 -.58997864E+02 -.13927245E+04 0.13972429E+04 0.91188000E+02 0.0000E+00 0.9000E+01
      -11  1    4    4    0    0 -.34751948E+02 -.68267310E+02 -.12383104E+04 0.12406776E+04 0.51099893E-03 0.0000E+00 0.9000E+01
       11  1    4    4    0    0 -.75469571E+00 -.21334647E+02 -.48379277E+02 0.52879969E+02 0.51099893E-03 0.0000E+00 0.9000E+01
       23  1    3    3    0    0 0.70428182E+01 0.14859982E+03 -.88000883E+03 0.89714118E+03 0.91188000E+02 0.0000E+00 0.9000E+01
#aMCatNLO 1  0  0  1  2 0.29623479D+03 0.00000000D+00  -5  7  0 0.00000000D+00 0.00000000D+00 0.00000000D+00 0.00000000D+00 0.00000000D+00
  <mgrwgt>
 0.7275941968D-03    5    2    0
 0.225739207797053D+03 0.000000000000000D+00 0.000000000000000D+00 0.225739207797053D+03
 0.225739207797053D+03 0.000000000000000D+00 0.000000000000000D+00 -.225739207797053D+03
 0.123882542590850D+03 0.284638257073907D+02 -.589978644020738D+02 -.523516536211369D+02
 0.970324222302058D+02 -.347519481583327D+02 -.682673095741744D+02 -.595581019389077D+02
 0.388234097517684D+02 -.754695719259100D+00 -.213346474957302D+02 0.324271552153125D+02
 0.191740041021282D+03 0.704281817020102D+01 0.148599821471978D+03 0.794826003447321D+02
 0.000000000000000D+00 -.000000000000000D+00 0.000000000000000D+00 0.000000000000000D+00
 0.463208667405800D+03 0.000000000000000D+00 0.000000000000000D+00 0.463208667405800D+03
 0.383540619861829D+03 0.000000000000000D+00 0.000000000000000D+00 -.383540619861829D+03
 0.168151276051715D+03 0.115668462002262D+03 -.619654061148938D+02 -.523516536211369D+02
 0.947895163746823D+02 0.225282753006169D+02 -.702165345197302D+02 -.595581019389077D+02
 0.464157524517620D+02 0.246986924280102D+02 -.222008169365866D+02 0.324271552153125D+02
 0.230632169128930D+03 0.133167987982441D+03 0.144307828312478D+03 0.794826003447321D+02
 0.306760573260539D+03 -.296063417713330D+03 0.100749292587329D+02 0.796680475439711D+02
0.961932891179D-05 0.000000000000D+00 0.000000000000D+00 0.591330797582D-07 0.000000000000D+00  7 -2 2 23 -11 11 23 21 0 0.21937376D-02 0.54979729D+00 0.37002168D+05 0.37002168D+05 0.37002168D+05 0.11589762D+01  1  2  2  1  7  1       -2 0.576636726500D-03 0.100000000000D+01
-.517770262200D-06 0.000000000000D+00 -.369407558488D-07 0.591330797582D-07 0.000000000000D+00  7 -2 2 23 -11 11 23 21 2 0.21937376D-02 0.54979729D+00 0.37002168D+05 0.37002168D+05 0.37002168D+05 0.11589762D+01  1  2  3  1  7  1       -2 -.416911274007D-04 0.100000000000D+01
0.626783901541D-06 0.000000000000D+00 0.000000000000D+00 0.591330797582D-07 0.000000000000D+00  7 -2 2 23 -11 11 23 21 2 0.21937376D-02 0.54979729D+00 0.37002168D+05 0.37002168D+05 0.37002168D+05 0.11589762D+01  1  2 15  1  7  1       -2 0.504689616218D-04 0.100000000000D+01
0.404071640414D-04 0.000000000000D+00 -.116856979875D-04 0.591330797582D-07 0.000000000000D+00  7 -2 2 23 -11 11 23 21 2 0.38971978D-01 0.54979729D+00 0.37002168D+05 0.37002168D+05 0.37002168D+05 0.11589762D+01  1  2  5  1  7  1       -2 0.369559917457D-04 0.100000000000D+01
0.990715693846D-05 0.000000000000D+00 -.368442661779D-05 0.591330797582D-07 0.000000000000D+00  7 21 2 23 -11 11 23 2 2 0.38971978D-01 0.54979729D+00 0.37002168D+05 0.37002168D+05 0.37002168D+05 0.11589762D+01  1  2  5  3  7  1       -2 0.105223644287D-03 0.100000000000D+01
  </mgrwgt>
  </event>
  <event>
  8     66 0.53686478E-06 0.71294518E+02 0.75467711E-02 0.10226586E+00
       -2 -1    0    0    0  501 0.00000000E+00 0.00000000E+00 0.11383986E+03 0.11384030E+03 0.32000000E+00 0.0000E+00 0.9000E+01
        2 -1    0    0  501    0 0.00000000E+00 0.00000000E+00 -.56719412E+03 0.56719421E+03 0.32000000E+00 0.0000E+00 0.9000E+01
       25  2    1    2    0    0 -.10136630E+03 -.34829897E+02 -.43370385E+03 0.53778185E+03 0.29936940E+03 0.0000E+00 0.0000E+00
       23  2    1    2    0    0 0.10136630E+03 0.34829897E+02 -.19650414E+02 0.14325267E+03 0.92988921E+02 0.0000E+00 0.0000E+00
       23  1    3    3    0    0 -.10962377E+03 0.82784207E+02 -.18480939E+03 0.24766986E+03 0.91188000E+02 0.0000E+00 0.9000E+01
      -11  1    4    4    0    0 0.78944699E+02 0.65206904E+01 -.52010581E+02 0.94762258E+02 0.51099893E-03 0.0000E+00 0.9000E+01
       11  1    4    4    0    0 0.22421598E+02 0.28309206E+02 0.32360167E+02 0.48490408E+02 0.51099893E-03 0.0000E+00 0.9000E+01
       23  1    3    3    0    0 0.82574775E+01 -.11761410E+03 -.24889446E+03 0.29011199E+03 0.91188000E+02 0.0000E+00 0.9000E+01
#aMCatNLO 1  0  0  2  1 0.97943688D+02 0.00000000D+00  -5  7  0 0.00000000D+00 0.00000000D+00 0.00000000D+00 0.00000000D+00 0.00000000D+00
  <mgrwgt>
 0.2250639713D-03    9    2    0
 0.254105254148963D+03 0.000000000000000D+00 0.000000000000000D+00 0.254105254148963D+03
 0.254105254148963D+03 0.000000000000000D+00 0.000000000000000D+00 -.254105254148963D+03
 0.167032352575186D+03 -.109623774454362D+03 0.827842068917003D+02 -.267200042382607D+02
 0.805909143047683D+02 0.789446993559598D+02 0.652069041666187D+01 0.148361217494896D+02
 0.938474511585017D+02 0.224215976686093D+02 0.283092064400363D+02 0.866210417720185D+02
 0.166739790259470D+03 0.825747742979296D+01 -.117614103748398D+03 -.747371592832474D+02
 0.000000000000000D+00 -.000000000000000D+00 0.000000000000000D+00 -.000000000000000D+00
 0.293401366919929D+03 0.000000000000000D+00 0.000000000000000D+00 0.293401366919929D+03
 0.328054232417382D+03 0.000000000000000D+00 0.000000000000000D+00 -.328054232417382D+03
 0.146508533260073D+03 -.965081670876260D+02 0.558723011241904D+02 -.267200042382607D+02
 0.876096330670458D+02 0.859806313120809D+02 -.791633354228747D+01 0.148361217494896D+02
 0.925630850751675D+02 0.302192646164156D+02 0.123091789736747D+02 0.866210417720185D+02
 0.190881195770862D+03 0.232169823963742D+02 -.148309501737384D+03 -.747371592832474D+02
 0.103893152164162D+03 -.429087112372447D+02 0.880443551818060D+02 -.346528654974525D+02
0.115640440476D-05 0.000000000000D+00 0.000000000000D+00 0.355472370070D-07 0.000000000000D+00  7 -2 2 23 -11 11 23 21 0 0.17513865D-01 0.87260675D-01 0.46065989D+05 0.46065989D+05 0.46065989D+05 0.11504391D+01  1  2  2  2  7  2        2 0.184812496865D-03 0.100000000000D+01
-.620181218090D-07 0.000000000000D+00 -.444089740254D-08 0.355472370070D-07 0.000000000000D+00  7 -2 2 23 -11 11 23 21 2 0.17513865D-01 0.87260675D-01 0.46065989D+05 0.46065989D+05 0.46065989D+05 0.11504391D+01  1  2  3  2  7  2        2 -.131179942712D-04 0.100000000000D+01
0.742745487009D-07 0.000000000000D+00 0.000000000000D+00 0.355472370070D-07 0.000000000000D+00  7 -2 2 23 -11 11 23 21 2 0.17513865D-01 0.87260675D-01 0.46065989D+05 0.46065989D+05 0.46065989D+05 0.11504391D+01  1  2 15  2  7  2        2 0.157104581037D-04 0.100000000000D+01
0.563070607974D-06 0.000000000000D+00 0.000000000000D+00 0.355472370070D-07 0.000000000000D+00  7 -2 2 23 -11 11 23 21 2 0.17513865D-01 0.11782441D+00 0.71987848D+05 0.71987848D+05 0.71987848D+05 0.11336272D+01  1  2 12  2  7  2        2 0.814753125580D-04 0.100000000000D+01
-.754101438303D-06 0.000000000000D+00 0.000000000000D+00 0.355472370070D-07 0.000000000000D+00  7 -2 2 23 -11 11 23 21 2 0.17513865D-01 0.87260675D-01 0.46065989D+05 0.46065989D+05 0.46065989D+05 0.11504391D+01  1  2  4  2  7  2        2 -.159506577416D-03 0.100000000000D+01
-.121494376032D-05 0.000000000000D+00 -.524504048851D-06 0.355472370070D-07 0.000000000000D+00  7 -2 2 23 -11 11 23 21 2 0.17513865D-01 0.12546813D+00 0.46065989D+05 0.46065989D+05 0.46065989D+05 0.11504391D+01  1  2  5  2  7  2        2 -.167543230124D-03 0.100000000000D+01
0.134831169585D-05 0.000000000000D+00 0.491722160861D-06 0.355472370070D-07 0.000000000000D+00  7 -2 2 23 -11 11 23 21 2 0.17513865D-01 0.87260675D-01 0.46065989D+05 0.46065989D+05 0.46065989D+05 0.11504391D+01  1  2  6  2  7  2        2 0.285193175574D-03 0.100000000000D+01
0.217811283710D-07 0.000000000000D+00 0.000000000000D+00 0.355472370070D-07 0.000000000000D+00  7 -2 21 23 -11 11 23 -2 2 0.17513865D-01 0.11782441D+00 0.71987848D+05 0.71987848D+05 0.71987848D+05 0.11336272D+01  1  2 12  4  7  2        2 0.351072931848D-05 0.100000000000D+01
-.382565307187D-07 0.000000000000D+00 -.232698587405D-07 0.355472370070D-07 0.000000000000D+00  7 -2 21 23 -11 11 23 -2 2 0.17513865D-01 0.12546813D+00 0.46065989D+05 0.46065989D+05 0.46065989D+05 0.11504391D+01  1  2  5  4  7  2        2 -.547039935156D-05 0.100000000000D+01
  </mgrwgt>
  </event>
  <event>
  8     66 0.53686478E-06 0.22069762E+03 0.75467711E-02 0.10107460E+00
       -2 -1    0    0    0  501 0.00000000E+00 0.00000000E+00 0.35334958E+03 0.35334973E+03 0.32000000E+00 0.0000E+00 0.9000E+01
        2 -1    0    0  501    0 0.00000000E+00 0.00000000E+00 -.15595575E+03 0.15595608E+03 0.32000000E+00 0.0000E+00 0.9000E+01
       25  2    1    2    0    0 -.10362346E+03 -.18516649E+02 0.80366275E+02 0.32775246E+03 0.29980368E+03 0.0000E+00 0.0000E+00
       23  2    1    2    0    0 0.10362346E+03 0.18516649E+02 0.11702755E+03 0.18155335E+03 0.90473653E+02 0.0000E+00 0.0000E+00
       23  1    3    3    0    0 0.66808439E+02 0.25455224E+02 0.53781749E+02 0.12774609E+03 0.91188000E+02 0.0000E+00 0.9000E+01
      -13  1    4    4    0    0 0.94621318E+02 0.40961831E+02 0.59249488E+02 0.11891837E+03 0.10565837E+00 0.0000E+00 0.9000E+01
       13  1    4    4    0    0 0.90021458E+01 -.22445182E+02 0.57778065E+02 0.62634980E+02 0.10565837E+00 0.0000E+00 0.9000E+01
       23  1    3    3    0    0 -.17043190E+03 -.43971873E+02 0.26584526E+02 0.20000637E+03 0.91188000E+02 0.0000E+00 0.9000E+01
#aMCatNLO 1  0  0  2  1 0.13231136D+03 0.00000000D+00  -5  7  0 0.00000000D+00 0.00000000D+00 0.00000000D+00 0.00000000D+00 0.00000000D+00
  <mgrwgt>
 0.1373998559D-03    4    2    0
 0.234748846101262D+03 0.000000000000000D+00 0.000000000000000D+00 0.234748846101262D+03
 0.234748846101262D+03 0.000000000000000D+00 0.000000000000000D+00 -.234748846101262D+03
 0.115965723958770D+03 0.668084351329121D+02 0.254552233266448D+02 0.463275185648602D+01
 0.104090760296002D+03 0.946214365914735D+02 0.409619124914759D+02 0.142755679889162D+02
 0.436536438016791D+02 0.900203673971405D+01 -.224452621691869D+02 0.363430070007584D+02
 0.205787564146073D+03 -.170431908464100D+03 -.439718736489337D+02 -.552513268461607D+02
 0.000000000000000D+00 -.000000000000000D+00 -.000000000000000D+00 0.000000000000000D+00
 0.340370310542702D+03 0.000000000000000D+00 0.000000000000000D+00 0.340370310542702D+03
 0.289256158671267D+03 0.000000000000000D+00 0.000000000000000D+00 -.289256158671267D+03
 0.132483182722510D+03 0.761000670904314D+02 0.585137570093901D+02 0.463275185648602D+01
 0.126473522511819D+03 0.103244209325780D+03 0.716407237249595D+02 0.142755679889162D+02
 0.399509951177302D+02 0.121287300512567D+02 -.113208551083154D+02 0.363430070007584D+02
 0.188877476439855D+03 -.155672003288392D+03 0.854213300092949D+01 -.552513268461607D+02
 0.141841292422055D+03 -.358010031790762D+02 -.127375758626964D+03 0.511141518714354D+02
0.206667346963D-05 0.000000000000D+00 0.000000000000D+00 0.106325475626D-06 0.000000000000D+00  7 -2 2 23 -13 13 23 21 0 0.54361510D-01 0.23993229D-01 0.48707441D+05 0.48707441D+05 0.48707441D+05 0.11482972D+01  1  2  2  2  7  2        2 0.185065526434D-03 0.100000000000D+01
-.114283366154D-06 0.000000000000D+00 -.793657029099D-08 0.106325475626D-06 0.000000000000D+00  7 -2 2 23 -13 13 23 21 2 0.54361510D-01 0.23993229D-01 0.48707441D+05 0.48707441D+05 0.48707441D+05 0.11482972D+01  1  2  3  2  7  2        2 -.134941437616D-04 0.100000000000D+01
0.131676295136D-06 0.000000000000D+00 0.000000000000D+00 0.106325475626D-06 0.000000000000D+00  7 -2 2 23 -13 13 23 21 2 0.54361510D-01 0.23993229D-01 0.48707441D+05 0.48707441D+05 0.48707441D+05 0.11482972D+01  1  2 15  2  7  2        2 0.155478344430D-04 0.100000000000D+01
-.421078659200D-06 0.000000000000D+00 0.000000000000D+00 0.106325475626D-06 0.000000000000D+00  7 -2 2 23 -13 13 23 21 2 0.54361510D-01 0.23993229D-01 0.48707441D+05 0.48707441D+05 0.48707441D+05 0.11482972D+01  1  2  4  2  7  2        2 -.497193612104D-04 0.100000000000D+01
  </mgrwgt>
  </event>
  <event>
  9     66 0.53686478E-06 0.25221723E+03 0.75467711E-02 0.10023378E+00
       -2 -1    0    0    0  502 0.00000000E+00 0.00000000E+00 0.21695291E+03 0.21695315E+03 0.32000000E+00 0.0000E+00 0.9000E+01
        2 -1    0    0  501    0 0.00000000E+00 0.00000000E+00 -.47001840E+03 0.47001851E+03 0.32000000E+00 0.0000E+00 0.9000E+01
       25  2    1    2    0    0 -.15957755E+03 0.12871427E+03 -.13926380E+03 0.38921824E+03 0.30010677E+03 0.0000E+00 0.0000E+00
       23  2    1    2    0    0 0.48188188E+02 -.13103672E+03 -.71897616E+02 0.17871772E+03 0.85311391E+02 0.0000E+00 0.0000E+00
       23  1    3    3    0    0 -.16120725E+03 -.22759599E+02 -.74226190E+02 0.20082469E+03 0.91188000E+02 0.0000E+00 0.9000E+01
      -13  1    4    4    0    0 0.60184361E+02 -.80482953E+02 -.76866096E+02 0.12652301E+03 0.10565837E+00 0.0000E+00 0.9000E+01
       13  1    4    4    0    0 -.11996173E+02 -.50553764E+02 0.49684800E+01 0.52194714E+02 0.10565837E+00 0.0000E+00 0.9000E+01
       23  1    3    3    0    0 0.16297032E+01 0.15147386E+03 -.65037607E+02 0.18839355E+03 0.91188000E+02 0.0000E+00 0.9000E+01
       21  1    1    2  501  502 0.11138936E+03 0.23224510E+01 -.41904072E+02 0.11903570E+03 0.75000000E+00 0.0000E+00 0.9000E+01
#aMCatNLO 2  0  0  1  2 0.11141357D+03 0.00000000D+00  -5  7  0 0.00000000D+00 0.00000000D+00 0.00000000D+00 0.00000000D+00 0.00000000D+00
  <mgrwgt>
 0.5705960968D-04    1    2    0
 0.257657294747832D+03 0.000000000000000D+00 0.000000000000000D+00 0.257657294747832D+03
 0.257657294747832D+03 0.000000000000000D+00 0.000000000000000D+00 -.257657294747832D+03
 0.155967297826839D+03 -.124605283390922D+03 -.219964515688622D+02 0.475517457867662D+00
 0.120592047275716D+03 0.843420110474724D+02 -.799793198564974D+02 -.321274872019060D+02
 0.567395169189727D+02 0.286031742717135D+00 -.502976342291475D+02 0.262571696302444D+02
 0.182015727474135D+03 0.399772406007326D+02 0.152273405654507D+03 0.539480011379393D+01
 0.000000000000000D+00 0.000000000000000D+00 0.000000000000000D+00 0.000000000000000D+00
 0.320599654987427D+03 0.000000000000000D+00 0.000000000000000D+00 0.320599654987427D+03
 0.318063885847157D+03 0.000000000000000D+00 0.000000000000000D+00 -.318063885847157D+03
 0.186604539638390D+03 -.161207250146796D+03 -.227595969408743D+02 0.475517457867662D+00
 0.105507627425682D+03 0.601844713087471D+02 -.804830008410130D+02 -.321274872019060D+02
 0.582153604013474D+02 -.119962814481065D+02 -.505537185683225D+02 0.262571696302444D+02
 0.176893592385339D+03 0.162970131941879D+01 0.151473865364069D+03 0.539480011379393D+01
 0.111442420983826D+03 0.111389358966736D+03 0.232245098614041D+01 0.253576914027058D+01
0.684267014338D-06 0.000000000000D+00 0.000000000000D+00 0.753338196957D-08 0.431674081127D-11  7 -2 2 23 -13 13 23 21 2 0.33377266D-01 0.72310263D-01 0.98371168D+05 0.98371168D+05 0.98371168D+05 0.11223078D+01  1  2  1  1  7  1       -2 0.570596096797D-04 0.100000000000D+01
  </mgrwgt>
  </event>
  <event>
  9     66 0.53686478E-06 0.34010132E+03 0.75467711E-02 0.95451658E-01
       -2 -1    0    0    0  501 0.00000000E+00 0.00000000E+00 0.42564329E+03 0.42564341E+03 0.32000000E+00 0.0000E+00 0.9000E+01
        2 -1    0    0  502    0 0.00000000E+00 0.00000000E+00 -.31725279E+04 0.31725279E+04 0.32000000E+00 0.0000E+00 0.9000E+01
       25  2    1    2    0    0 0.53278113E+02 -.35206516E+03 -.23495959E+04 0.23952750E+04 0.29992216E+03 0.0000E+00 0.0000E+00
       23  2    1    2    0    0 -.20980572E+03 0.20482701E+03 0.32625098E+03 0.44811802E+03 0.91637924E+02 0.0000E+00 0.0000E+00
       23  1    3    3    0    0 0.14788768E+02 -.24864194E+03 -.19998835E+04 0.20173970E+04 0.91188000E+02 0.0000E+00 0.9000E+01
      -13  1    4    4    0    0 -.21234173E+03 0.16966851E+03 0.29306865E+03 0.39970697E+03 0.10565837E+00 0.0000E+00 0.9000E+01
       13  1    4    4    0    0 0.25360113E+01 0.35158499E+02 0.33182334E+02 0.48411051E+02 0.10565837E+00 0.0000E+00 0.9000E+01
       23  1    3    3    0    0 0.38489345E+02 -.10342322E+03 -.34971240E+03 0.37787803E+03 0.91188000E+02 0.0000E+00 0.9000E+01
       21  1    1    2  502  501 0.15652761E+03 0.14723815E+03 -.72353970E+03 0.75477826E+03 0.75000000E+00 0.0000E+00 0.9000E+01
#aMCatNLO 2  0  0  2  1 0.21489524D+03 0.00000000D+00  -5  7  0 0.00000000D+00 0.00000000D+00 0.00000000D+00 0.00000000D+00 0.00000000D+00
  <mgrwgt>
 0.8992076137D-04    2    2    0
 0.993073456830237D+03 0.000000000000000D+00 0.000000000000000D+00 0.993073456830237D+03
 0.993073456830237D+03 0.000000000000000D+00 0.000000000000000D+00 -.993073456830237D+03
 0.833525400489412D+03 0.807719661607855D+02 -.186574649529754D+03 -.803190594785824D+03
 0.866627387521163D+03 -.144277316708794D+03 0.233693947791220D+03 0.821957555747754D+03
 0.105914911341448D+03 0.107253652973623D+02 0.428613914314543D+02 0.962592131084838D+02
 0.180079214308451D+03 0.527799852506459D+02 -.899806896929204D+02 -.115026174070413D+03
 0.000000000000000D+00 0.000000000000000D+00 0.000000000000000D+00 -.000000000000000D+00
 0.103691939752526D+04 0.000000000000000D+00 0.000000000000000D+00 0.103691939752526D+04
 0.130228485245371D+04 0.000000000000000D+00 0.000000000000000D+00 -.130228485245371D+04
 0.845855722348367D+03 0.147887681952947D+02 -.248641936262446D+03 -.803190594785824D+03
 0.865731378583161D+03 -.212342016172583D+03 0.169668690631011D+03 0.821957555747754D+03
 0.102510372226683D+03 0.253629697947464D+01 0.351583205432296D+02 0.962592131084838D+02
 0.183641129868298D+03 0.384893449978025D+02 -.103423221936218D+03 -.115026174070413D+03
 0.341465646952462D+03 0.156527606000012D+03 0.147238147024423D+03 -.265365454928449D+03
-.886778719434D-04 0.000000000000D+00 0.000000000000D+00 0.129152844515D-04 0.000000000000D+00  7 -2 2 23 -13 13 23 21 2 0.62714609D-01 0.49442597D+00 0.21638771D+06 0.21638771D+06 0.21638771D+06 0.10952082D+01  1  2 13  2  7  2        2 -.431444351566D-04 0.100000000000D+01
0.281447380515D-03 0.000000000000D+00 0.000000000000D+00 0.129152844515D-04 0.184670586227D-08  7 -2 2 23 -13 13 23 21 2 0.65483569D-01 0.48808104D+00 0.21638771D+06 0.21638771D+06 0.21638771D+06 0.10952082D+01  1  2  1  2  7  2        2 0.133065196528D-03 0.100000000000D+01
  </mgrwgt>
  </event>
  <event>
  8     66 0.53686478E-06 0.31936844E+03 0.75467711E-02 0.97729149E-01
       -2 -1    0    0    0  501 0.00000000E+00 0.00000000E+00 0.20245357E+03 0.20245382E+03 0.32000000E+00 0.0000E+00 0.9000E+01
        2 -1    0    0  501    0 0.00000000E+00 0.00000000E+00 -.99957202E+03 0.99957208E+03 0.32000000E+00 0.0000E+00 0.9000E+01
       25  2    1    2    0    0 -.98468275E+02 0.27034705E+03 -.79283851E+02 0.42329098E+03 0.30017627E+03 0.0000E+00 0.0000E+00
       23  2    1    2    0    0 0.98468275E+02 -.27034705E+03 -.71783461E+03 0.77873492E+03 0.91422230E+02 0.0000E+00 0.0000E+00
       23  1    3    3    0    0 -.85598572E+02 0.19626840E+03 -.15799277E+03 0.28129231E+03 0.91188000E+02 0.0000E+00 0.9000E+01
      -11  1    4    4    0    0 0.61006923E+02 -.15677933E+03 -.53003583E+03 0.55609315E+03 0.51099893E-03 0.0000E+00 0.9000E+01
       11  1    4    4    0    0 0.37461352E+02 -.11356772E+03 -.18779877E+03 0.22264177E+03 0.51099893E-03 0.0000E+00 0.9000E+01
       23  1    3    3    0    0 -.12869704E+02 0.74078652E+02 0.78708916E+02 0.14199866E+03 0.91188000E+02 0.0000E+00 0.9000E+01
#aMCatNLO 1  0  0  1  1 0.11788414D+03 0.00000000D+00  -5  7  0 0.00000000D+00 0.00000000D+00 0.00000000D+00 0.00000000D+00 0.00000000D+00
  <mgrwgt>
 0.2629699883D-03    3    2    0
 0.449852314239166D+03 0.000000000000000D+00 0.000000000000000D+00 0.449852314239166D+03
 0.449852314239166D+03 0.000000000000000D+00 0.000000000000000D+00 -.449852314239166D+03
 0.235834834655006D+03 -.855985716729472D+02 0.196268396407891D+03 0.381368455929456D+02
 0.273353063826645D+03 0.610069229882604D+02 -.156779329423288D+03 -.215453695063470D+03
 0.131068913080854D+03 0.374613523664158D+02 -.113567719314114D+03 -.536477416567216D+02
 0.259447816915826D+03 -.128697036817290D+02 0.740786523295109D+02 0.230964591127246D+03
 0.000000000000000D+00 0.000000000000000D+00 0.000000000000000D+00 -.000000000000000D+00
 0.461596261553570D+03 0.000000000000000D+00 0.000000000000000D+00 0.461596261553570D+03
 0.893525186189935D+03 0.000000000000000D+00 0.000000000000000D+00 -.893525186189935D+03
 0.213997771844647D+03 -.897853884323676D+02 0.167224280661459D+03 0.381368455929456D+02
 0.294880902412265D+03 0.557180856324409D+02 -.193468206236646D+03 -.215453695063470D+03
 0.146216888940568D+03 0.348805149031504D+02 -.131471092285274D+03 -.536477416567216D+02
 0.252299107884334D+03 -.176327879276835D+02 0.410369459213559D+02 0.230964591127246D+03
 0.447726776661691D+03 0.168195758244598D+02 0.116678071939105D+03 -.431928924636364D+03
0.860272417813D-05 0.000000000000D+00 0.000000000000D+00 0.133323215534D-05 0.000000000000D+00  7 -2 2 23 -11 11 23 21 0 0.31146726D-01 0.15378033D+00 0.10199620D+06 0.10199620D+06 0.10199620D+06 0.11210183D+01  1  2  2  1  7  1       -2 0.257645455519D-03 0.100000000000D+01
-.409733959048D-06 0.000000000000D+00 -.330367259933D-07 0.133323215534D-05 0.000000000000D+00  7 -2 2 23 -11 11 23 21 2 0.31146726D-01 0.15378033D+00 0.10199620D+06 0.10199620D+06 0.10199620D+06 0.11210183D+01  1  2  3  1  7  1       -2 -.154210469233D-04 0.100000000000D+01
0.551205669809D-06 0.000000000000D+00 0.000000000000D+00 0.133323215534D-05 0.000000000000D+00  7 -2 2 23 -11 11 23 21 2 0.31146726D-01 0.15378033D+00 0.10199620D+06 0.10199620D+06 0.10199620D+06 0.11210183D+01  1  2 15  1  7  1       -2 0.207455796886D-04 0.100000000000D+01
  </mgrwgt>
  </event>
  <event>
  8     66 0.53686478E-06 0.23122410E+03 0.75467711E-02 0.97874126E-01
       -2 -1    0    0    0  501 0.00000000E+00 0.00000000E+00 0.41574284E+03 0.41574297E+03 0.32000000E+00 0.0000E+00 0.9000E+01
        2 -1    0    0  501    0 0.00000000E+00 0.00000000E+00 -.38344819E+03 0.38344832E+03 0.32000000E+00 0.0000E+00 0.9000E+01
       25  2    1    2    0    0 -.73707773E+02 0.30260734E+03 -.10863936E+03 0.44574671E+03 0.29980590E+03 0.0000E+00 0.0000E+00
       23  2    1    2    0    0 0.73707773E+02 -.30260734E+03 0.14093402E+03 0.35344458E+03 0.89758783E+02 0.0000E+00 0.0000E+00
       23  1    3    3    0    0 -.30610870E+01 -.16726529E+02 -.24865452E+02 0.96034833E+02 0.91188000E+02 0.0000E+00 0.9000E+01
      -13  1    4    4    0    0 0.85757475E+02 -.29118801E+03 0.14491790E+03 0.33637183E+03 0.10565837E+00 0.0000E+00 0.9000E+01
       13  1    4    4    0    0 -.12049702E+02 -.11419329E+02 -.39838783E+01 0.17072752E+02 0.10565837E+00 0.0000E+00 0.9000E+01
       23  1    3    3    0    0 -.70646686E+02 0.31933387E+03 -.83773910E+02 0.34971187E+03 0.91188000E+02 0.0000E+00 0.9000E+01
#aMCatNLO 1  0  0  1  2 0.56689748D+01 0.00000000D+00  -5  7  0 0.00000000D+00 0.00000000D+00 0.00000000D+00 0.00000000D+00 0.00000000D+00
  <mgrwgt>
 0.4056652850D-03   11    2    0
 0.399269261757190D+03 0.000000000000000D+00 0.000000000000000D+00 0.399269261757190D+03
 0.399269261757190D+03 0.000000000000000D+00 0.000000000000000D+00 -.399269261757190D+03
 0.971189501624305D+02 -.306108705639463D+01 -.167265290729507D+02 -.287696386466285D+02
 0.330786436553512D+03 0.857576104137050D+02 -.291188398801764D+03 0.131432930680127D+03
 0.172473904367925D+02 -.120498378181813D+02 -.114189417139749D+02 -.467778318945353D+01
 0.353385746361645D+03 -.706466855391290D+02 0.319333869588689D+03 -.979855088440449D+02
 0.000000000000000D+00 0.000000000000000D+00 0.000000000000000D+00 0.000000000000000D+00
 0.413723397800106D+03 0.000000000000000D+00 0.000000000000000D+00 0.413723397800106D+03
 0.399835559214580D+03 0.000000000000000D+00 0.000000000000000D+00 -.399835559214580D+03
 0.972420114812289D+02 -.315716627286802D+01 -.174096997729238D+02 -.287696386466285D+02
 0.332757041176540D+03 0.854295983638715D+02 -.293520726540369D+03 0.131432930680127D+03
 0.173400137118155D+02 -.120669355453295D+02 -.115405150016487D+02 -.467778318945353D+01
 0.351219579449196D+03 -.709949958533731D+02 0.316857211161152D+03 -.979855088440449D+02
 0.150003111959064D+02 0.789499307699116D+00 0.561373015378897D+01 0.138878385855257D+02
0.542876473417D-05 0.000000000000D+00 0.000000000000D+00 0.477965996928D-06 0.000000000000D+00  7 -2 2 23 -13 13 23 21 0 0.63960457D-01 0.58992049D-01 0.14154315D+06 0.14154315D+06 0.14154315D+06 0.11095462D+01  1  2  2  1  7  1       -2 0.127525494934D-03 0.100000000000D+01
-.300301749929D-06 0.000000000000D+00 -.208478860058D-07 0.477965996928D-06 0.000000000000D+00  7 -2 2 23 -13 13 23 21 2 0.63960457D-01 0.58992049D-01 0.14154315D+06 0.14154315D+06 0.14154315D+06 0.11095462D+01  1  2  3  1  7  1       -2 -.868449689698D-05 0.100000000000D+01
0.351684788685D-06 0.000000000000D+00 0.000000000000D+00 0.477965996928D-06 0.000000000000D+00  7 -2 2 23 -13 13 23 21 2 0.63960457D-01 0.58992049D-01 0.14154315D+06 0.14154315D+06 0.14154315D+06 0.11095462D+01  1  2 15  1  7  1       -2 0.101704550732D-04 0.100000000000D+01
0.401399326106D-04 0.000000000000D+00 0.000000000000D+00 0.477965996928D-06 0.000000000000D+00  7 -2 2 23 -13 13 23 21 2 0.66320384D-01 0.58992049D-01 0.14372799D+06 0.14372799D+06 0.14372799D+06 0.11090187D+01  1  2 12  1  7  1       -2 0.107421989156D-02 0.100000000000D+01
-.122270811133D-03 0.000000000000D+00 0.000000000000D+00 0.477965996928D-06 0.000000000000D+00  7 -2 2 23 -13 13 23 21 2 0.63960457D-01 0.58992049D-01 0.14154315D+06 0.14154315D+06 0.14154315D+06 0.11095462D+01  1  2  4  1  7  1       -2 -.353597832890D-02 0.100000000000D+01
-.336546328234D-03 0.000000000000D+00 -.183850292697D-04 0.477965996928D-06 0.000000000000D+00  7 -2 2 23 -13 13 23 21 2 0.66325778D-01 0.58992049D-01 0.14154315D+06 0.14154315D+06 0.14154315D+06 0.11095462D+01  1  2  5  1  7  1       -2 -.901592174848D-02 0.100000000000D+01
0.337003845945D-03 0.000000000000D+00 0.183729139710D-04 0.477965996928D-06 0.000000000000D+00  7 -2 2 23 -13 13 23 21 2 0.63960457D-01 0.58992049D-01 0.14154315D+06 0.14154315D+06 0.14154315D+06 0.11095462D+01  1  2  6  1  7  1       -2 0.974589343909D-02 0.100000000000D+01
0.816911442058D-04 0.000000000000D+00 0.000000000000D+00 0.477965996928D-06 0.976050731945D-07  7 -2 2 23 -13 13 23 21 2 0.66275920D-01 0.59075719D-01 0.14372799D+06 0.14372799D+06 0.14372799D+06 0.11090187D+01  1  2 11  1  7  1       -2 0.218591545047D-02 0.100000000000D+01
0.105413134852D-05 0.000000000000D+00 0.000000000000D+00 0.477965996928D-06 0.000000000000D+00  7 21 2 23 -13 13 23 2 2 0.66320384D-01 0.58992049D-01 0.14372799D+06 0.14372799D+06 0.14372799D+06 0.11090187D+01  1  2 12  3  7  1       -2 0.285716770423D-03 0.100000000000D+01
-.222949337595D-05 0.000000000000D+00 -.118634143239D-06 0.477965996928D-06 0.000000000000D+00  7 21 2 23 -13 13 23 2 2 0.66325778D-01 0.58992049D-01 0.14154315D+06 0.14154315D+06 0.14154315D+06 0.11095462D+01  1  2  5  3  7  1       -2 -.605200026463D-03 0.100000000000D+01
0.523938022230D-06 0.000000000000D+00 0.000000000000D+00 0.477965996928D-06 0.621064238582D-09  7 21 2 23 -13 13 23 2 2 0.66275920D-01 0.59075719D-01 0.14372799D+06 0.14372799D+06 0.14372799D+06 0.11090187D+01  1  2 11  3  7  1       -2 0.142008384222D-03 0.100000000000D+01
  </mgrwgt>
  </event>
  <event>
  9     66 0.53686478E-06 0.27995424E+03 0.75467711E-02 0.99318470E-01
       -2 -1    0    0    0  502 0.00000000E+00 0.00000000E+00 0.30866592E+03 0.30866609E+03 0.32000000E+00 0.0000E+00 0.9000E+01
        2 -1    0    0  501    0 0.00000000E+00 0.00000000E+00 -.53633068E+03 0.53633078E+03 0.32000000E+00 0.0000E+00 0.9000E+01
       25  2    1    2    0    0 -.12272927E+03 0.94226532E+02 -.72625270E+02 0.34559313E+03 0.30036489E+03 0.0000E+00 0.0000E+00
       23  2    1    2    0    0 0.14786609E+03 -.19364458E+03 -.24924861E+03 0.36014955E+03 0.90665456E+02 0.0000E+00 0.0000E+00
       23  1    3    3    0    0 -.17125563E+03 0.89022657E+02 -.10407863E+03 0.23748923E+03 0.91188000E+02 0.0000E+00 0.9000E+01
      -11  1    4    4    0    0 0.54780770E+02 -.20681237E+02 -.30029688E+02 0.65805991E+02 0.51099893E-03 0.0000E+00 0.9000E+01
       11  1    4    4    0    0 0.93085319E+02 -.17296334E+03 -.21921892E+03 0.29434356E+03 0.51099893E-03 0.0000E+00 0.9000E+01
       23  1    3    3    0    0 0.48526360E+02 0.52038742E+01 0.31453356E+02 0.10810390E+03 0.91188000E+02 0.0000E+00 0.9000E+01
       21  1    1    2  501  502 -.25136822E+02 0.99418045E+02 0.94209123E+02 0.13925419E+03 0.75000000E+00 0.0000E+00 0.9000E+01
#aMCatNLO 2  0  0  1  2 0.10254661D+03 0.00000000D+00  -5  7  0 0.00000000D+00 0.00000000D+00 0.00000000D+00 0.00000000D+00 0.00000000D+00
  <mgrwgt>
 0.2963400547D-04    2    2    0
 0.309820160016132D+03 0.000000000000000D+00 0.000000000000000D+00 0.309820160016132D+03
 0.309820160016132D+03 0.000000000000000D+00 0.000000000000000D+00 -.309820160016132D+03
 0.237656220174852D+03 -.180345227884889D+03 0.124972717980354D+03 0.475880064179943D+01
 0.538106070697782D+02 0.525170163334030D+02 -.117279181210502D+02 -.191102352757220D-01
 0.189843067302594D+03 0.848607025053825D+02 -.140434354120538D+03 -.954842581575490D+02
 0.138330425485039D+03 0.429675090461036D+02 0.271895542612345D+02 0.907445677510253D+02
 0.000000000000000D+00 -.000000000000000D+00 0.000000000000000D+00 0.000000000000000D+00
 0.505024134401601D+03 0.000000000000000D+00 0.000000000000000D+00 0.505024134401601D+03
 0.327799079384727D+03 0.000000000000000D+00 0.000000000000000D+00 -.327799079384727D+03
 0.213521476863305D+03 -.171255627762057D+03 0.890226573079148D+02 0.475880064179943D+01
 0.585546471079123D+02 0.547807701379029D+02 -.206812368060833D+02 -.191102352757220D-01
 0.218399718893579D+03 0.930853193335507D+02 -.172963339992809D+03 -.954842581575490D+02
 0.137592572008748D+03 0.485263603110846D+02 0.520387419340109D+01 0.907445677510253D+02
 0.204754798912784D+03 -.251368220204816D+02 0.994180452975762D+02 0.177225055016875D+03
-.289459899384D-05 0.000000000000D+00 0.000000000000D+00 0.293113992823D-06 0.000000000000D+00  7 -2 2 23 -11 11 23 21 2 0.47881909D-01 0.77986685D-01 0.11370979D+06 0.11370979D+06 0.11370979D+06 0.11171717D+01  1  2 13  1  7  1       -2 -.112119267148D-03 0.100000000000D+01
0.383735556702D-05 0.000000000000D+00 0.000000000000D+00 0.293113992823D-06 0.225798423276D-09  7 -2 2 23 -11 11 23 21 2 0.47486989D-01 0.82512266D-01 0.11370979D+06 0.11370979D+06 0.11370979D+06 0.11171717D+01  1  2  1  1  7  1       -2 0.141753272623D-03 0.100000000000D+01
  </mgrwgt>
  </event>
  <event>
  8     66 0.53686478E-06 0.34190114E+03 0.75467711E-02 0.79397577E-01
       -2 -1    0    0    0  501 0.00000000E+00 0.00000000E+00 0.88311089E+03 0.88311095E+03 0.32000000E+00 0.0000E+00 0.9000E+01
        2 -1    0    0  501    0 0.00000000E+00 0.00000000E+00 -.58850140E+03 0.58850149E+03 0.32000000E+00 0.0000E+00 0.9000E+01
       25  2    1    2    0    0 -.60789952E+01 -.31255556E+03 -.47063156E+03 0.63991190E+03 0.30044175E+03 0.0000E+00 0.0000E+00
       23  2    1    2    0    0 0.60789952E+01 0.31255556E+03 0.76524105E+03 0.83170053E+03 0.91673194E+02 0.0000E+00 0.0000E+00
       23  1    3    3    0    0 0.27353919E+02 -.10735075E+03 -.33502736E+02 0.14734350E+03 0.91188000E+02 0.0000E+00 0.9000E+01
      -13  1    4    4    0    0 0.72252068E+01 0.35311413E+02 0.33537686E+02 0.49232987E+02 0.10565837E+00 0.0000E+00 0.9000E+01
       13  1    4    4    0    0 -.11462116E+01 0.27724415E+03 0.73170337E+03 0.78246755E+03 0.10565837E+00 0.0000E+00 0.9000E+01
       23  1    3    3    0    0 -.33432914E+02 -.20520481E+03 -.43712882E+03 0.49256840E+03 0.91188000E+02 0.0000E+00 0.9000E+01
#aMCatNLO 1  0  0  2  2 0.24376872D+04 0.00000000D+00  -5  7  0 0.00000000D+00 0.00000000D+00 0.00000000D+00 0.00000000D+00 0.00000000D+00
  <mgrwgt>
 0.4491069584D-03    3    2    0
 0.720910605934218D+03 0.000000000000000D+00 0.000000000000000D+00 0.720910605934218D+03
 0.720910605934218D+03 0.000000000000000D+00 0.000000000000000D+00 -.720910605934218D+03
 0.157233604522038D+03 0.273539190699405D+02 -.107350754678949D+03 -.643018944384058D+02
 0.433966396740536D+02 0.722521790796480D+01 0.353110917236127D+02 0.241700509405478D+02
 0.649125818219835D+03 -.114622269443162D+01 0.277244471775564D+03 0.586939960236985D+03
 0.592065149452510D+03 -.334329142834737D+02 -.205204808820228D+03 -.546808116739127D+03
 0.000000000000000D+00 0.000000000000000D+00 -.000000000000000D+00 0.000000000000000D+00
 0.447845706792877D+04 0.000000000000000D+00 0.000000000000000D+00 0.447845706792877D+04
 0.190119049768387D+04 0.000000000000000D+00 0.000000000000000D+00 -.190119049768387D+04
 0.173572493297807D+03 -.132744028250861D+03 -.751321642066756D+01 -.643018944384058D+02
 0.106468828121357D+03 -.653041397019532D+02 0.805406067574255D+02 0.241700509405478D+02
 0.152475144295292D+04 -.105322261891208D+04 0.933322324213880D+03 0.586939960236985D+03
 0.102737375600912D+04 -.817181600551797D+03 0.283543115557593D+03 -.546808116739127D+03
 0.354748104523144D+04 0.206845238741669D+04 -.128989283010823D+04 0.257726657024490D+04
0.171693338585D-03 0.000000000000D+00 0.000000000000D+00 0.314946446113D-05 0.000000000000D+00  7 -2 2 23 -13 13 23 21 0 0.13586323D+00 0.90538688D-01 0.11689639D+06 0.11689639D+06 0.11689639D+06 0.11162003D+01  1  2  2  2  7  2        2 0.427514296205D-03 0.100000000000D+01
-.308446581674D-05 0.000000000000D+00 -.659347628061D-06 0.314946446113D-05 0.000000000000D+00  7 -2 2 23 -13 13 23 21 2 0.13586323D+00 0.90538688D-01 0.11689639D+06 0.11689639D+06 0.11689639D+06 0.11162003D+01  1  2  3  2  7  2        2 -.956888674260D-05 0.100000000000D+01
0.100447142011D-04 0.000000000000D+00 0.000000000000D+00 0.314946446113D-05 0.000000000000D+00  7 -2 2 23 -13 13 23 21 2 0.13586323D+00 0.90538688D-01 0.11689639D+06 0.11689639D+06 0.11689639D+06 0.11162003D+01  1  2 15  2  7  2        2 0.311615489562D-04 0.100000000000D+01
  </mgrwgt>
  </event>
  <event>
  8     66 0.53686478E-06 0.82751007E+02 0.75467711E-02 0.10423705E+00
       -2 -1    0    0    0  501 0.00000000E+00 0.00000000E+00 0.24463637E+03 0.24463658E+03 0.32000000E+00 0.0000E+00 0.9000E+01
        2 -1    0    0  501    0 0.00000000E+00 0.00000000E+00 -.63728956E+03 0.63728964E+03 0.32000000E+00 0.0000E+00 0.9000E+01
       25  2    1    2    0    0 -.50082145E+02 -.61592889E+02 0.13727099E+03 0.33901804E+03 0.29964646E+03 0.0000E+00 0.0000E+00
       23  2    1    2    0    0 0.50082145E+02 0.61592889E+02 -.52992417E+03 0.54290818E+03 0.87337028E+02 0.0000E+00 0.0000E+00
       23  1    3    3    0    0 0.75842209E+02 -.40877728E+02 0.13196572E+03 0.18208029E+03 0.91188000E+02 0.0000E+00 0.9000E+01
      -11  1    4    4    0    0 0.43577236E+02 0.45014627E+02 -.51729657E+03 0.52107680E+03 0.51099893E-03 0.0000E+00 0.9000E+01
       11  1    4    4    0    0 0.65049094E+01 0.16578262E+02 -.12627599E+02 0.21831374E+02 0.51099893E-03 0.0000E+00 0.9000E+01
       23  1    3    3    0    0 -.12592435E+03 -.20715160E+02 0.53052673E+01 0.15693775E+03 0.91188000E+02 0.0000E+00 0.9000E+01
#aMCatNLO 1  0  0  2  1 0.77562343D+02 0.00000000D+00  -5  7  0 0.00000000D+00 0.00000000D+00 0.00000000D+00 0.00000000D+00 0.00000000D+00
  <mgrwgt>
 0.3802463856D-03    9    2    0
 0.394847227000935D+03 0.000000000000000D+00 0.000000000000000D+00 0.394847227000935D+03
 0.394847227000935D+03 0.000000000000000D+00 0.000000000000000D+00 -.394847227000935D+03
 0.268962431741539D+03 0.758422088207379D+02 -.408777282611602D+02 0.237912818145052D+03
 0.324724514779415D+03 0.435772355978805D+02 0.450146269373292D+02 -.318623160485967D+03
 0.181024363530071D+02 0.650490937982937D+01 0.165782616409303D+02 -.324739847258438D+01
 0.177905071127909D+03 -.125924353798448D+03 -.207151603170992D+02 0.839577408134992D+02
 0.000000000000000D+00 -.000000000000000D+00 -.000000000000000D+00 -.000000000000000D+00
 0.432263251267985D+03 0.000000000000000D+00 0.000000000000000D+00 0.432263251267985D+03
 0.439093586222488D+03 0.000000000000000D+00 0.000000000000000D+00 -.439093586222488D+03
 0.267628709944193D+03 0.805117404487617D+02 -.150075199344666D+02 0.237912818145052D+03
 0.331398240861078D+03 0.492869570623540D+02 0.766477104112362D+02 -.318623160485967D+03
 0.199054217553854D+02 0.683566194311809D+01 0.184107018937203D+02 -.324739847258438D+01
 0.174561954877980D+03 -.122857109861846D+03 -.372197000386266D+01 0.839577408134992D+02
 0.778625100518361D+02 -.137772495923881D+02 -.763289223666273D+02 -.683033495450290D+01
0.740961544041D-05 0.000000000000D+00 0.000000000000D+00 0.997491083954D-07 0.000000000000D+00  7 -2 2 23 -11 11 23 21 0 0.37636387D-01 0.98044569D-01 0.32898938D+05 0.32898938D+05 0.32898938D+05 0.11636372D+01  1  2  2  2  7  2        2 0.283277564499D-03 0.100000000000D+01
-.108777276651D-06 0.000000000000D+00 -.284548742877D-07 0.997491083954D-07 0.000000000000D+00  7 -2 2 23 -11 11 23 21 2 0.37636387D-01 0.98044569D-01 0.32898938D+05 0.32898938D+05 0.32898938D+05 0.11636372D+01  1  2  3  2  7  2        2 -.563105630208D-05 0.100000000000D+01
0.448938263502D-06 0.000000000000D+00 0.000000000000D+00 0.997491083954D-07 0.000000000000D+00  7 -2 2 23 -11 11 23 21 2 0.37636387D-01 0.98044569D-01 0.32898938D+05 0.32898938D+05 0.32898938D+05 0.11636372D+01  1  2 15  2  7  2        2 0.232401170149D-04 0.100000000000D+01
0.590625531845D-05 0.000000000000D+00 0.000000000000D+00 0.997491083954D-07 0.000000000000D+00  7 -2 2 23 -11 11 23 21 2 0.37636387D-01 0.11320931D+00 0.53810135D+05 0.53810135D+05 0.53810135D+05 0.11445005D+01  1  2 12  2  7  2        2 0.248146014632D-03 0.100000000000D+01
-.655716670814D-05 0.000000000000D+00 0.000000000000D+00 0.997491083954D-07 0.000000000000D+00  7 -2 2 23 -11 11 23 21 2 0.37636387D-01 0.98044569D-01 0.32898938D+05 0.32898938D+05 0.32898938D+05 0.11636372D+01  1  2  4  2  7  2        2 -.339443825516D-03 0.100000000000D+01
-.134395822568D-04 0.000000000000D+00 -.591159727929D-05 0.997491083954D-07 0.000000000000D+00  7 -2 2 23 -11 11 23 21 2 0.37636387D-01 0.11712748D+00 0.32898938D+05 0.32898938D+05 0.32898938D+05 0.11636372D+01  1  2  5  2  7  2        2 -.564553818782D-03 0.100000000000D+01
0.143555597451D-04 0.000000000000D+00 0.581932958339D-05 0.997491083954D-07 0.000000000000D+00  7 -2 2 23 -11 11 23 21 2 0.37636387D-01 0.98044569D-01 0.32898938D+05 0.32898938D+05 0.32898938D+05 0.11636372D+01  1  2  6  2  7  2        2 0.743142020664D-03 0.100000000000D+01
0.130196492720D-06 0.000000000000D+00 0.000000000000D+00 0.997491083954D-07 0.000000000000D+00  7 -2 21 23 -11 11 23 -2 2 0.37636387D-01 0.11320931D+00 0.53810135D+05 0.53810135D+05 0.53810135D+05 0.11445005D+01  1  2 12  4  7  2        2 0.654051582059D-05 0.100000000000D+01
-.295602974671D-06 0.000000000000D+00 -.154444708879D-06 0.997491083954D-07 0.000000000000D+00  7 -2 21 23 -11 11 23 -2 2 0.37636387D-01 0.11712748D+00 0.32898938D+05 0.32898938D+05 0.32898938D+05 0.11636372D+01  1  2  5  4  7  2        2 -.144711464781D-04 0.100000000000D+01
  </mgrwgt>
  </event>
  <event>
  8     66 0.53686478E-06 0.18339753E+04 0.75467711E-02 0.77906255E-01
       -2 -1    0    0    0  501 0.00000000E+00 0.00000000E+00 0.19415542E+04 0.19415542E+04 0.32000000E+00 0.0000E+00 0.9000E+01
        2 -1    0    0  501    0 0.00000000E+00 0.00000000E+00 -.18942330E+04 0.18942330E+04 0.32000000E+00 0.0000E+00 0.9000E+01
       25  2    1    2    0    0 -.15030599E+04 -.10363568E+04 -.52004385E+03 0.19218699E+04 0.29985601E+03 0.0000E+00 0.0000E+00
       23  2    1    2    0    0 0.15030599E+04 0.10363568E+04 0.56736506E+03 0.19139174E+04 0.89173970E+02 0.0000E+00 0.0000E+00
       23  1    3    3    0    0 -.47213862E+03 -.40628267E+03 -.26845247E+03 0.68437012E+03 0.91188000E+02 0.0000E+00 0.9000E+01
      -11  1    4    4    0    0 0.14669177E+04 0.99890037E+03 0.53970884E+03 0.18549758E+04 0.51099893E-03 0.0000E+00 0.9000E+01
       11  1    4    4    0    0 0.36142245E+02 0.37456437E+02 0.27656218E+02 0.58941605E+02 0.51099893E-03 0.0000E+00 0.9000E+01
       23  1    3    3    0    0 -.10309213E+04 -.63007414E+03 -.25159139E+03 0.12374998E+04 0.91188000E+02 0.0000E+00 0.9000E+01
#aMCatNLO 1  0  0  2  2 0.19179876D+04 0.00000000D+00  -5  7  0 0.00000000D+00 0.00000000D+00 0.00000000D+00 0.00000000D+00 0.00000000D+00
  <mgrwgt>
 0.2371785676D-03    3    2    0
 0.191774767767949D+04 0.000000000000000D+00 0.000000000000000D+00 0.191774767767949D+04
 0.191774767767949D+04 0.000000000000000D+00 0.000000000000000D+00 -.191774767767949D+04
 0.687734290021474D+03 -.472138619240554D+03 -.406282665533887D+03 -.276916453530021D+03
 0.184845817939580D+04 0.146691769953056D+04 0.998900365895201D+03 0.516863775857441D+03
 0.586048770318060D+02 0.361422444945675D+02 0.374564364891284D+02 0.269311184384145D+02
 0.124069800890991D+04 -.103092132478458D+04 -.630074136850442D+03 -.266878440765835D+03
 0.000000000000000D+00 0.000000000000000D+00 0.000000000000000D+00 0.000000000000000D+00
 0.346036298635924D+04 0.000000000000000D+00 0.000000000000000D+00 0.346036298635924D+04
 0.284289007486094D+04 0.000000000000000D+00 0.000000000000000D+00 -.284289007486094D+04
 0.103244210822196D+04 -.873809978474410D+03 -.466256211506840D+03 -.276916453530021D+03
 0.126741811337845D+04 0.739342163090687D+03 0.890266071016168D+03 0.516863775857441D+03
 0.448826550631635D+02 0.119772938983432D+02 0.338483679968140D+02 0.269311184384145D+02
 0.194357860220330D+04 -.177446873996160D+04 -.741093192757853D+03 -.266878440765835D+03
 0.201493158235331D+04 0.189695926144698D+04 0.283234965251711D+03 0.617472911498308D+03
0.104155207439D-01 0.000000000000D+00 0.000000000000D+00 0.869097006684D-05 0.000000000000D+00  7 -2 2 23 -11 11 23 21 0 0.29870065D+00 0.29142047D+00 0.33634656D+07 0.33634656D+07 0.33634656D+07 0.10144995D+01  1  2  2  2  7  2        2 0.235800470833D-03 0.100000000000D+01
-.577236471329D-03 0.000000000000D+00 -.399983421261D-04 0.869097006684D-05 0.000000000000D+00  7 -2 2 23 -11 11 23 21 2 0.29870065D+00 0.29142047D+00 0.33634656D+07 0.33634656D+07 0.33634656D+07 0.10144995D+01  1  2  3  2  7  2        2 -.134499646557D-04 0.100000000000D+01
0.636380693009D-03 0.000000000000D+00 0.000000000000D+00 0.869097006684D-05 0.000000000000D+00  7 -2 2 23 -11 11 23 21 2 0.29870065D+00 0.29142047D+00 0.33634656D+07 0.33634656D+07 0.33634656D+07 0.10144995D+01  1  2 15  2  7  2        2 0.148280613816D-04 0.100000000000D+01
  </mgrwgt>
  </event>
  <event>
  9     66 0.53686478E-06 0.25191672E+03 0.75467711E-02 0.10123786E+00
       -2 -1    0    0    0  501 0.00000000E+00 0.00000000E+00 0.47663305E+02 0.47664379E+02 0.32000000E+00 0.0000E+00 0.9000E+01
        2 -1    0    0  502    0 0.00000000E+00 0.00000000E+00 -.30353275E+04 0.30353275E+04 0.32000000E+00 0.0000E+00 0.9000E+01
       25  2    1    2    0    0 0.12997188E+03 0.10649541E+03 -.26168235E+04 0.26390298E+04 0.29745410E+03 0.0000E+00 0.0000E+00
       23  2    1    2    0    0 -.13708078E+03 -.34349511E+02 -.24410063E+03 0.29795125E+03 0.96014592E+02 0.0000E+00 0.0000E+00
       23  1    3    3    0    0 -.58446522E+02 0.18580532E+02 -.66098390E+03 0.67005687E+03 0.91188000E+02 0.0000E+00 0.9000E+01
      -13  1    4    4    0    0 -.14850366E+02 -.45713966E+02 -.71082519E+02 0.85808133E+02 0.10565837E+00 0.0000E+00 0.9000E+01
       13  1    4    4    0    0 -.12223041E+03 0.11364455E+02 -.17301811E+03 0.21214312E+03 0.10565837E+00 0.0000E+00 0.9000E+01
       23  1    3    3    0    0 0.18841840E+03 0.87914877E+02 -.19558396E+04 0.19689730E+04 0.91188000E+02 0.0000E+00 0.9000E+01
       21  1    1    2  502  501 0.71088989E+01 -.72145898E+02 -.12674001E+03 0.14601082E+03 0.75000000E+00 0.0000E+00 0.9000E+01
#aMCatNLO 2  0  0  2  2 0.72495289D+02 0.00000000D+00  -5  7  0 0.00000000D+00 0.00000000D+00 0.00000000D+00 0.00000000D+00 0.00000000D+00
  <mgrwgt>
 0.4740259823D-04    1    2    0
 0.330043589243482D+03 0.000000000000000D+00 0.000000000000000D+00 0.330043589243482D+03
 0.330043589243482D+03 0.000000000000000D+00 0.000000000000000D+00 -.330043589243482D+03
 0.113869052362762D+03 -.572133257420587D+02 0.606523541333242D+01 -.366163627208850D+02
 0.785465633436367D+02 -.140351893416154D+02 -.539857213606040D+02 0.553002528241613D+02
 0.191459395178103D+03 -.120167261599039D+03 -.957501419784197D+01 0.148744238022400D+03
 0.276212167602463D+03 0.191415776682713D+03 0.574955001451135D+02 -.167428128125676D+03
 0.000000000000000D+00 0.000000000000000D+00 -.000000000000000D+00 0.000000000000000D+00
 0.416153631989190D+03 0.000000000000000D+00 0.000000000000000D+00 0.416153631989190D+03
 0.347646334087514D+03 0.000000000000000D+00 0.000000000000000D+00 -.347646334087514D+03
 0.115832816411659D+03 -.584465210063303D+02 0.185805322099860D+02 -.366163627208850D+02
 0.732695031242818D+02 -.148502408481943D+02 -.457140292734473D+02 0.553002528241613D+02
 0.192858251785598D+03 -.122230539119332D+03 0.113645168630297D+02 0.148744238022400D+03
 0.282095638792246D+03 0.188418402100933D+03 0.879148778288900D+02 -.167428128125676D+03
 0.997437559629195D+02 0.710889887292430D+01 -.721458976284584D+02 0.685072979016759D+02
0.167318434006D-05 0.000000000000D+00 0.000000000000D+00 0.142453706666D-08 0.190438146020D-11  7 -2 2 23 -13 13 23 21 2 0.73328713D-02 0.46697171D+00 0.84172110D+05 0.84172110D+05 0.84172110D+05 0.11279151D+01  1  2  1  2  7  2        2 0.474025982267D-04 0.100000000000D+01
  </mgrwgt>
  </event>
  <event>
  8     66 0.53686478E-06 0.34112189E+03 0.75467711E-02 0.96541781E-01
       -2 -1    0    0    0  501 0.00000000E+00 0.00000000E+00 0.95962117E+02 0.95962650E+02 0.32000000E+00 0.0000E+00 0.9000E+01
        2 -1    0    0  501    0 0.00000000E+00 0.00000000E+00 -.31372215E+04 0.31372215E+04 0.32000000E+00 0.0000E+00 0.9000E+01
       25  2    1    2    0    0 0.15016417E+03 -.25543465E+03 -.42668191E+03 0.60025268E+03 0.30074856E+03 0.0000E+00 0.0000E+00
       23  2    1    2    0    0 -.15016417E+03 0.25543465E+03 -.26145774E+04 0.26329315E+04 0.92285943E+02 0.0000E+00 0.0000E+00
       23  1    3    3    0    0 0.37970634E+02 -.21012798E+03 -.12749069E+03 0.26488614E+03 0.91188000E+02 0.0000E+00 0.9000E+01
      -11  1    4    4    0    0 -.13585471E+03 0.20353179E+03 -.17972618E+04 0.18138444E+04 0.51099893E-03 0.0000E+00 0.9000E+01
       11  1    4    4    0    0 -.14309453E+02 0.51902865E+02 -.81731565E+03 0.81908702E+03 0.51099893E-03 0.0000E+00 0.9000E+01
       23  1    3    3    0    0 0.11219353E+03 -.45306665E+02 -.29919122E+03 0.33536654E+03 0.91188000E+02 0.0000E+00 0.9000E+01
#aMCatNLO 1  0  0  1  2 0.16094904D+03 0.00000000D+00  -5  7  0 0.00000000D+00 0.00000000D+00 0.00000000D+00 0.00000000D+00 0.00000000D+00
  <mgrwgt>
 0.1562377490D-03    4    2    0
 0.548685066137494D+03 0.000000000000000D+00 0.000000000000000D+00 0.548685066137494D+03
 0.548685066137494D+03 0.000000000000000D+00 0.000000000000000D+00 -.548685066137494D+03
 0.427106030969190D+03 0.379706343002213D+02 -.210127984756555D+03 0.358481200761271D+03
 0.363189967842556D+03 -.135854713979883D+03 0.203531785189967D+03 -.268375225846772D+03
 0.148163574456823D+03 -.143094534804820D+02 0.519028646103349D+02 -.138035419302995D+03
 0.158910559006418D+03 0.112193533160143D+03 -.453066650437465D+02 0.479294443884960D+02
 0.000000000000000D+00 -.000000000000000D+00 0.000000000000000D+00 -.000000000000000D+00
 0.614492556178107D+03 0.000000000000000D+00 0.000000000000000D+00 0.614492556178107D+03
 0.662603763257935D+03 0.000000000000000D+00 0.000000000000000D+00 -.662603763257935D+03
 0.457678792066588D+03 0.828956770539296D+02 -.256464735958101D+03 0.358481200761271D+03
 0.331773470022124D+03 -.100567872088527D+03 0.167136102221516D+03 -.268375225846772D+03
 0.142822350182495D+03 0.465387548431213D+00 0.366637442704298D+02 -.138035419302995D+03
 0.176835751984878D+03 0.129241087529274D+03 -.628899156536087D+02 0.479294443884960D+02
 0.167985955179956D+03 -.112034280043108D+03 0.115554805119764D+03 -.481112070798279D+02
0.333774227227D-04 0.000000000000D+00 0.000000000000D+00 0.431176040344D-06 0.000000000000D+00  7 -2 2 23 -11 11 23 21 0 0.14763445D-01 0.48264950D+00 0.11636415D+06 0.11636415D+06 0.11636415D+06 0.11163605D+01  1  2  2  1  7  1       -2 0.213232812077D-03 0.100000000000D+01
-.134500608497D-05 0.000000000000D+00 -.128178091733D-06 0.431176040344D-06 0.000000000000D+00  7 -2 2 23 -11 11 23 21 2 0.14763445D-01 0.48264950D+00 0.11636415D+06 0.11636415D+06 0.11636415D+06 0.11163605D+01  1  2  3  1  7  1       -2 -.107086423092D-04 0.100000000000D+01
0.193705593647D-05 0.000000000000D+00 0.000000000000D+00 0.431176040344D-06 0.000000000000D+00  7 -2 2 23 -11 11 23 21 2 0.14763445D-01 0.48264950D+00 0.11636415D+06 0.11636415D+06 0.11636415D+06 0.11163605D+01  1  2 15  1  7  1       -2 0.154224128711D-04 0.100000000000D+01
-.775063302523D-05 0.000000000000D+00 0.000000000000D+00 0.431176040344D-06 0.000000000000D+00  7 -2 2 23 -11 11 23 21 2 0.14763445D-01 0.48264950D+00 0.11636415D+06 0.11636415D+06 0.11636415D+06 0.11163605D+01  1  2  4  1  7  1       -2 -.617088336361D-04 0.100000000000D+01
  </mgrwgt>
  </event>
  <event>
  8     66 0.53686478E-06 0.64190945E+03 0.75467711E-02 0.88433784E-01
       -2 -1    0    0    0  501 0.00000000E+00 0.00000000E+00 0.30256933E+03 0.30256950E+03 0.32000000E+00 0.0000E+00 0.9000E+01
        2 -1    0    0  501    0 0.00000000E+00 0.00000000E+00 -.15413958E+04 0.15413959E+04 0.32000000E+00 0.0000E+00 0.9000E+01
       25  2    1    2    0    0 0.69975597E+02 -.62161666E+03 -.42476722E+03 0.81331594E+03 0.29958601E+03 0.0000E+00 0.0000E+00
       23  2    1    2    0    0 -.69975597E+02 0.62161666E+03 -.81405931E+03 0.10306494E+04 0.90784601E+02 0.0000E+00 0.0000E+00
       23  1    3    3    0    0 0.63368808E+02 -.37706445E+03 -.38318119E+03 0.54894106E+03 0.91188000E+02 0.0000E+00 0.9000E+01
      -11  1    4    4    0    0 0.15061962E+02 0.79567972E+02 -.76613886E+02 0.11147920E+03 0.51099893E-03 0.0000E+00 0.9000E+01
       11  1    4    4    0    0 -.85037559E+02 0.54204869E+03 -.73744542E+03 0.91917023E+03 0.51099893E-03 0.0000E+00 0.9000E+01
       23  1    3    3    0    0 0.66067889E+01 -.24455221E+03 -.41586028E+02 0.26437489E+03 0.91188000E+02 0.0000E+00 0.9000E+01
#aMCatNLO 1  0  0  1  2 0.45094063D+03 0.00000000D+00  -5  7  0 0.00000000D+00 0.00000000D+00 0.00000000D+00 0.00000000D+00 0.00000000D+00
  <mgrwgt>
 0.2593164655D-03    7    2    0
 0.682919680411553D+03 0.000000000000000D+00 0.000000000000000D+00 0.682919680411553D+03
 0.682919680411553D+03 0.000000000000000D+00 0.000000000000000D+00 -.682919680411553D+03
 0.393555271844860D+03 0.633688081280143D+02 -.377064453109862D+03 -.194240317719281D+02
 0.810142664733458D+02 0.150619621342888D+02 0.795679718484826D+02 -.232088879496809D+01
 0.572066643643130D+03 -.850375591521436D+02 0.542048689748256D+03 -.161901439909471D+03
 0.319203178861770D+03 0.660678888984052D+01 -.244552208486876D+03 0.183646360476367D+03
 0.000000000000000D+00 0.000000000000000D+00 -.000000000000000D+00 0.000000000000000D+00
 0.977061165664873D+03 0.000000000000000D+00 0.000000000000000D+00 0.977061165664873D+03
 0.916308339723926D+03 0.000000000000000D+00 0.000000000000000D+00 -.916308339723926D+03
 0.289052934066471D+03 0.328374207613179D+02 -.271626136695096D+03 -.194240317719281D+02
 0.109165638596880D+03 0.655568239610633D+01 0.108943899112283D+03 -.232088879496809D+01
 0.782147066361518D+03 -.145608210075162D+03 0.751225802493415D+03 -.161901439909471D+03
 0.257989188743318D+03 -.192096071157192D+02 -.155396832151364D+03 0.183646360476367D+03
 0.455014677620612D+03 0.125424714033457D+03 -.433146732759239D+03 0.607528259409469D+02
0.354578550956D-04 0.000000000000D+00 0.000000000000D+00 0.185448948771D-05 0.000000000000D+00  7 -2 2 23 -11 11 23 21 0 0.46549143D-01 0.23713784D+00 0.41204774D+06 0.41204774D+06 0.41204774D+06 0.10744998D+01  1  2  2  1  7  1       -2 0.236334802740D-03 0.100000000000D+01
-.196069489554D-05 0.000000000000D+00 -.136167499835D-06 0.185448948771D-05 0.000000000000D+00  7 -2 2 23 -11 11 23 21 2 0.46549143D-01 0.23713784D+00 0.41204774D+06 0.41204774D+06 0.41204774D+06 0.10744998D+01  1  2  3  1  7  1       -2 -.150882169017D-04 0.100000000000D+01
0.225817344562D-05 0.000000000000D+00 0.000000000000D+00 0.185448948771D-05 0.000000000000D+00  7 -2 2 23 -11 11 23 21 2 0.46549143D-01 0.23713784D+00 0.41204774D+06 0.41204774D+06 0.41204774D+06 0.10744998D+01  1  2 15  1  7  1       -2 0.173774159491D-04 0.100000000000D+01
-.105918774453D-04 0.000000000000D+00 0.000000000000D+00 0.185448948771D-05 0.000000000000D+00  7 -2 2 23 -11 11 23 21 2 0.46549143D-01 0.23713784D+00 0.41204774D+06 0.41204774D+06 0.41204774D+06 0.10744998D+01  1  2  4  1  7  1       -2 -.815081146258D-04 0.100000000000D+01
-.103818294801D-04 0.000000000000D+00 -.111028136086D-04 0.185448948771D-05 0.000000000000D+00  7 -2 2 23 -11 11 23 21 2 0.89370239D-01 0.23713784D+00 0.41204774D+06 0.41204774D+06 0.41204774D+06 0.10744998D+01  1  2  5  1  7  1       -2 -.199032106649D-04 0.100000000000D+01
0.160842567158D-04 0.000000000000D+00 0.909779993614D-05 0.185448948771D-05 0.000000000000D+00  7 -2 2 23 -11 11 23 21 2 0.46549143D-01 0.23713784D+00 0.41204774D+06 0.41204774D+06 0.41204774D+06 0.10744998D+01  1  2  6  1  7  1       -2 0.123773849049D-03 0.100000000000D+01
-.936278735789D-07 0.000000000000D+00 -.785975147078D-06 0.185448948771D-05 0.000000000000D+00  7 21 2 23 -11 11 23 2 2 0.89370239D-01 0.23713784D+00 0.41204774D+06 0.41204774D+06 0.41204774D+06 0.10744998D+01  1  2  5  3  7  1       -2 -.167006002540D-05 0.100000000000D+01
  </mgrwgt>
  </event>
  <event>
  8     66 0.53686478E-06 0.14902924E+03 0.75467711E-02 0.10164680E+00
       -2 -1    0    0    0  501 0.00000000E+00 0.00000000E+00 0.47036812E+02 0.47037900E+02 0.32000000E+00 0.0000E+00 0.9000E+01
        2 -1    0    0  501    0 0.00000000E+00 0.00000000E+00 -.18192715E+04 0.18192715E+04 0.32000000E+00 0.0000E+00 0.9000E+01
       25  2    1    2    0    0 -.11905481E+03 -.15941170E+03 -.12487614E+04 0.12989635E+04 0.29717849E+03 0.0000E+00 0.0000E+00
       23  2    1    2    0    0 0.11905481E+03 0.15941170E+03 -.52347329E+03 0.56734591E+03 0.90944805E+02 0.0000E+00 0.0000E+00
       23  1    3    3    0    0 -.51494058E+02 -.12852509E+03 -.10835624E+04 0.10961720E+04 0.91188000E+02 0.0000E+00 0.9000E+01
      -11  1    4    4    0    0 0.11337739E+02 0.42090692E+02 -.22350793E+03 0.22771905E+03 0.51099893E-03 0.0000E+00 0.9000E+01
       11  1    4    4    0    0 0.10771707E+03 0.11732101E+03 -.29996536E+03 0.33962686E+03 0.51099893E-03 0.0000E+00 0.9000E+01
       23  1    3    3    0    0 -.67560756E+02 -.30886613E+02 -.16519900E+03 0.20279152E+03 0.91188000E+02 0.0000E+00 0.9000E+01
#aMCatNLO 1  0  0  2  1 0.75669738D+02 0.00000000D+00  -5  7  0 0.00000000D+00 0.00000000D+00 0.00000000D+00 0.00000000D+00 0.00000000D+00
  <mgrwgt>
 0.4495403868D-03    9    2    0
 0.292529950722202D+03 0.000000000000000D+00 0.000000000000000D+00 0.292529950722202D+03
 0.292529950722202D+03 0.000000000000000D+00 0.000000000000000D+00 -.292529950722202D+03
 0.214455426860386D+03 -.514940575375280D+02 -.128525085452626D+03 -.136035080819571D+03
 0.493722137040723D+02 0.113377386714192D+02 0.420906922109365D+02 -.231828556710211D+02
 0.174750984266857D+03 0.107717074851694D+03 0.117321006346981D+03 0.719077169527833D+02
 0.146481276613088D+03 -.675607559855848D+02 -.308866131052921D+02 0.873102195378089D+02
 0.000000000000000D+00 -.000000000000000D+00 -.000000000000000D+00 -.000000000000000D+00
 0.330196092962436D+03 0.000000000000000D+00 0.000000000000000D+00 0.330196092962436D+03
 0.335599357220951D+03 0.000000000000000D+00 0.000000000000000D+00 -.335599357220951D+03
 0.199385249777637D+03 -.338126229388125D+02 -.108583561376947D+03 -.136035080819571D+03
 0.548295974272885D+02 0.157897841386617D+02 0.471118103433692D+02 -.231828556710211D+02
 0.196803003876717D+03 0.123591801315566D+03 0.135224883897570D+03 0.719077169527833D+02
 0.138915193881352D+03 -.553671285520846D+02 -.171343627617214D+02 0.873102195378089D+02
 0.758624052203920D+02 -.502018339633307D+02 -.566187701022708D+02 -.540326425851427D+01
0.222958623018D-05 0.000000000000D+00 0.000000000000D+00 0.124056477960D-07 0.000000000000D+00  7 -2 2 23 -11 11 23 21 0 0.72365185D-02 0.27988800D+00 0.59113711D+05 0.59113711D+05 0.59113711D+05 0.11409535D+01  1  2  2  2  7  2        2 0.248859272479D-03 0.100000000000D+01
-.118713860092D-06 0.000000000000D+00 -.856219818744D-08 0.124056477960D-07 0.000000000000D+00  7 -2 2 23 -11 11 23 21 2 0.72365185D-02 0.27988800D+00 0.59113711D+05 0.59113711D+05 0.59113711D+05 0.11409535D+01  1  2  3  2  7  2        2 -.172491180920D-04 0.100000000000D+01
0.147859114537D-06 0.000000000000D+00 0.000000000000D+00 0.124056477960D-07 0.000000000000D+00  7 -2 2 23 -11 11 23 21 2 0.72365185D-02 0.27988800D+00 0.59113711D+05 0.59113711D+05 0.59113711D+05 0.11409535D+01  1  2 15  2  7  2        2 0.214839221440D-04 0.100000000000D+01
0.152265425747D-05 0.000000000000D+00 0.000000000000D+00 0.124056477960D-07 0.000000000000D+00  7 -2 2 23 -11 11 23 21 2 0.72365185D-02 0.33672870D+00 0.79065298D+05 0.79065298D+05 0.79065298D+05 0.11301909D+01  1  2 12  2  7  2        2 0.137050694516D-03 0.100000000000D+01
-.139316455965D-05 0.000000000000D+00 0.000000000000D+00 0.124056477960D-07 0.000000000000D+00  7 -2 2 23 -11 11 23 21 2 0.72365185D-02 0.27988800D+00 0.59113711D+05 0.59113711D+05 0.59113711D+05 0.11409535D+01  1  2  4  2  7  2        2 -.202426742694D-03 0.100000000000D+01
-.416275417519D-05 0.000000000000D+00 -.129267498329D-05 0.124056477960D-07 0.000000000000D+00  7 -2 2 23 -11 11 23 21 2 0.72365185D-02 0.34118943D+00 0.59113711D+05 0.59113711D+05 0.59113711D+05 0.11409535D+01  1  2  5  2  7  2        2 -.370441723890D-03 0.100000000000D+01
0.435796362006D-05 0.000000000000D+00 0.126773141588D-05 0.124056477960D-07 0.000000000000D+00  7 -2 2 23 -11 11 23 21 2 0.72365185D-02 0.27988800D+00 0.59113711D+05 0.59113711D+05 0.59113711D+05 0.11409535D+01  1  2  6  2  7  2        2 0.633211901835D-03 0.100000000000D+01
0.410069147791D-07 0.000000000000D+00 0.000000000000D+00 0.124056477960D-07 0.000000000000D+00  7 -2 21 23 -11 11 23 -2 2 0.72365185D-02 0.33672870D+00 0.79065298D+05 0.79065298D+05 0.79065298D+05 0.11301909D+01  1  2 12  4  7  2        2 0.646080573484D-06 0.100000000000D+01
-.103593332308D-06 0.000000000000D+00 -.367148057760D-07 0.124056477960D-07 0.000000000000D+00  7 -2 21 23 -11 11 23 -2 2 0.72365185D-02 0.34118943D+00 0.59113711D+05 0.59113711D+05 0.59113711D+05 0.11409535D+01  1  2  5  4  7  2        2 -.159390004822D-05 0.100000000000D+01
  </mgrwgt>
  </event>
  <event>
  8     66 0.53686478E-06 0.20230487E+03 0.75467711E-02 0.94522820E-01
       -2 -1    0    0    0  501 0.00000000E+00 0.00000000E+00 0.49216982E+03 0.49216992E+03 0.32000000E+00 0.0000E+00 0.9000E+01
        2 -1    0    0  501    0 0.00000000E+00 0.00000000E+00 -.48273412E+03 0.48273422E+03 0.32000000E+00 0.0000E+00 0.9000E+01
       25  2    1    2    0    0 0.26096024E+03 0.10995852E+03 -.32648237E+03 0.52564758E+03 0.29920481E+03 0.0000E+00 0.0000E+00
       23  2    1    2    0    0 -.26096024E+03 -.10995852E+03 0.33591807E+03 0.44925656E+03 0.93805049E+02 0.0000E+00 0.0000E+00
       23  1    3    3    0    0 0.80979995E+02 0.14739423E+02 0.85378187E+01 0.12313877E+03 0.91188000E+02 0.0000E+00 0.9000E+01
      -13  1    4    4    0    0 -.42371299E+02 -.10181564E+02 0.10648608E+02 0.44859728E+02 0.10565837E+00 0.0000E+00 0.9000E+01
       13  1    4    4    0    0 -.21858894E+03 -.99776951E+02 0.32526946E+03 0.40439683E+03 0.10565837E+00 0.0000E+00 0.9000E+01
       23  1    3    3    0    0 0.17998024E+03 0.95219092E+02 -.33502019E+03 0.40250881E+03 0.91188000E+02 0.0000E+00 0.9000E+01
#aMCatNLO 1  0  0  1  2 0.30582826D+03 0.00000000D+00  -5  7  0 0.00000000D+00 0.00000000D+00 0.00000000D+00 0.00000000D+00 0.00000000D+00
  <mgrwgt>
 0.1779669604D-03    9    2    0
 0.487429240099701D+03 0.000000000000000D+00 0.000000000000000D+00 0.487429240099701D+03
 0.487429240099701D+03 0.000000000000000D+00 0.000000000000000D+00 -.487429240099701D+03
 0.123061896553840D+03 0.809799946906179D+02 0.147394231734897D+02 0.734635309852746D+01
 0.447583086827525D+02 -.423710749380413D+02 -.101814503128020D+02 0.102145129234527D+02
 0.401267932454907D+03 -.218589163677654D+03 -.997770650902506D+02 0.321370920310652D+03
 0.405770342507903D+03 0.179980243925078D+03 0.952190922295629D+02 -.338931786332632D+03
 0.000000000000000D+00 0.000000000000000D+00 -.000000000000000D+00 0.000000000000000D+00
 0.766637303339284D+03 0.000000000000000D+00 0.000000000000000D+00 0.766637303339284D+03
 0.602267766748657D+03 0.000000000000000D+00 0.000000000000000D+00 -.602267766748657D+03
 0.115937361741956D+03 0.571352863890913D+02 0.425183566130381D+02 0.734635309852746D+01
 0.531432554629182D+02 -.521386125277501D+02 0.119766882515102D+01 0.102145129234527D+02
 0.441463817079379D+03 -.302667636922162D+03 -.182617877940835D+01 0.321370920310652D+03
 0.411160015459089D+03 0.984759487766968D+02 0.190171077438760D+03 -.338931786332632D+03
 0.347200620344599D+03 0.199195014284124D+03 -.232060924097541D+03 0.164369536590628D+03
0.157676227665D-04 0.000000000000D+00 0.000000000000D+00 0.126026056427D-06 0.000000000000D+00  7 -2 2 23 -13 13 23 21 0 0.75718449D-01 0.74266804D-01 0.99164180D+05 0.99164180D+05 0.99164180D+05 0.11220213D+01  1  2  2  1  7  1       -2 0.201604422815D-03 0.100000000000D+01
-.672697624946D-06 0.000000000000D+00 -.605518231336D-07 0.126026056427D-06 0.000000000000D+00  7 -2 2 23 -13 13 23 21 2 0.75718449D-01 0.74266804D-01 0.99164180D+05 0.99164180D+05 0.99164180D+05 0.11220213D+01  1  2  3  1  7  1       -2 -.108281915122D-04 0.100000000000D+01
0.882507965185D-06 0.000000000000D+00 0.000000000000D+00 0.126026056427D-06 0.000000000000D+00  7 -2 2 23 -13 13 23 21 2 0.75718449D-01 0.74266804D-01 0.99164180D+05 0.99164180D+05 0.99164180D+05 0.11220213D+01  1  2 15  1  7  1       -2 0.142054392697D-04 0.100000000000D+01
0.859509895486D-08 0.000000000000D+00 0.000000000000D+00 0.126026056427D-06 0.000000000000D+00  7 -2 2 23 -13 13 23 21 2 0.12387493D+00 0.74266804D-01 0.25458050D+06 0.25458050D+06 0.25458050D+06 0.10898664D+01  1  2 12  1  7  1       -2 0.393671255588D-07 0.100000000000D+01
-.736415378601D-05 0.000000000000D+00 0.000000000000D+00 0.126026056427D-06 0.000000000000D+00  7 -2 2 23 -13 13 23 21 2 0.75718449D-01 0.74266804D-01 0.99164180D+05 0.99164180D+05 0.99164180D+05 0.11220213D+01  1  2  4  1  7  1       -2 -.118538351501D-03 0.100000000000D+01
-.415914754164D-05 0.000000000000D+00 -.491868074999D-05 0.126026056427D-06 0.000000000000D+00  7 -2 2 23 -13 13 23 21 2 0.13874967D+00 0.74266804D-01 0.99164180D+05 0.99164180D+05 0.99164180D+05 0.11220213D+01  1  2  5  1  7  1       -2 -.155210152982D-04 0.100000000000D+01
0.666084601546D-05 0.000000000000D+00 0.413653987124D-05 0.126026056427D-06 0.000000000000D+00  7 -2 2 23 -13 13 23 21 2 0.75718449D-01 0.74266804D-01 0.99164180D+05 0.99164180D+05 0.99164180D+05 0.11220213D+01  1  2  6  1  7  1       -2 0.107217438584D-03 0.100000000000D+01
0.478673969328D-09 0.000000000000D+00 0.000000000000D+00 0.126026056427D-06 0.000000000000D+00  7 21 2 23 -13 13 23 2 2 0.12387493D+00 0.74266804D-01 0.25458050D+06 0.25458050D+06 0.25458050D+06 0.10898664D+01  1  2 12  3  7  1       -2 0.195224161327D-07 0.100000000000D+01
-.689455005496D-08 0.000000000000D+00 -.325520716436D-06 0.126026056427D-06 0.000000000000D+00  7 21 2 23 -13 13 23 2 2 0.13874967D+00 0.74266804D-01 0.99164180D+05 0.99164180D+05 0.99164180D+05 0.11220213D+01  1  2  5  3  7  1       -2 -.231671473535D-06 0.100000000000D+01
  </mgrwgt>
  </event>
  <event>
  8     66 0.53686478E-06 0.22482605E+03 0.75467711E-02 0.90212655E-01
       -2 -1    0    0    0  501 0.00000000E+00 0.00000000E+00 0.12156163E+03 0.12156205E+03 0.32000000E+00 0.0000E+00 0.9000E+01
        2 -1    0    0  501    0 0.00000000E+00 0.00000000E+00 -.11342621E+04 0.11342621E+04 0.32000000E+00 0.0000E+00 0.9000E+01
       25  2    1    2    0    0 -.11614862E+03 -.44965466E+02 -.11589139E+03 0.34609504E+03 0.30139437E+03 0.0000E+00 0.0000E+00
       23  2    1    2    0    0 0.11614862E+03 0.44965466E+02 -.89680904E+03 0.90972912E+03 0.88477221E+02 0.0000E+00 0.0000E+00
       23  1    3    3    0    0 0.61547622E+02 -.58936299E+02 -.30826458E+02 0.12855784E+03 0.91188000E+02 0.0000E+00 0.9000E+01
      -11  1    4    4    0    0 0.30936071E+02 0.98722992E+01 -.54768953E+03 0.54865137E+03 0.51099893E-03 0.0000E+00 0.9000E+01
       11  1    4    4    0    0 0.85212549E+02 0.35093166E+02 -.34911951E+03 0.36107775E+03 0.51099893E-03 0.0000E+00 0.9000E+01
       23  1    3    3    0    0 -.17769624E+03 0.13970833E+02 -.85064931E+02 0.21753720E+03 0.91188000E+02 0.0000E+00 0.9000E+01
#aMCatNLO 1  0  0  1  1 0.67584514D+03 0.00000000D+00  -5  7  0 0.00000000D+00 0.00000000D+00 0.00000000D+00 0.00000000D+00 0.00000000D+00
  <mgrwgt>
 0.2792120344D-03    3    2    0
 0.371326055765753D+03 0.000000000000000D+00 0.000000000000000D+00 0.371326055765753D+03
 0.371326055765753D+03 0.000000000000000D+00 0.000000000000000D+00 -.371326055765753D+03
 0.175355426829813D+03 0.615476223779458D+02 -.589362985300366D+02 0.123177421915976D+03
 0.180924850523580D+03 0.309360706129340D+02 0.987229915384213D+01 -.177986793839960D+03
 0.134513429464710D+03 0.852125486399547D+02 0.350931663923743D+02 -.979854781750750D+02
 0.251858404713402D+03 -.177696241630835D+03 0.139708329838201D+02 0.152794850099060D+03
 0.000000000000000D+00 -.000000000000000D+00 -.000000000000000D+00 -.000000000000000D+00
 0.741739373799221D+03 0.000000000000000D+00 0.000000000000000D+00 0.741739373799221D+03
 0.978526212749562D+03 0.000000000000000D+00 0.000000000000000D+00 -.978526212749562D+03
 0.233590722134216D+03 0.165697338754635D+03 0.601754832381950D+02 0.123177421915976D+03
 0.269923688318621D+03 0.145757417062121D+03 0.141188788880273D+03 -.177986793839960D+03
 0.256962386653939D+03 0.184912950075148D+03 0.149116448174559D+03 -.979854781750750D+02
 0.243664036419155D+03 -.514974209964343D+02 0.158299275784816D+03 0.152794850099060D+03
 0.716124753022852D+03 -.444870284895470D+03 -.508779996077843D+03 -.236786838950341D+03
0.453190504756D-05 0.000000000000D+00 0.000000000000D+00 0.188267445803D-07 0.000000000000D+00  7 -2 2 23 -11 11 23 21 0 0.18701825D-01 0.17450189D+00 0.50546754D+05 0.50546754D+05 0.50546754D+05 0.11468802D+01  1  2  2  1  7  1       -2 0.271119495939D-03 0.100000000000D+01
-.174705109389D-06 0.000000000000D+00 -.174037086606D-07 0.188267445803D-07 0.000000000000D+00  7 -2 2 23 -11 11 23 21 2 0.18701825D-01 0.17450189D+00 0.50546754D+05 0.50546754D+05 0.50546754D+05 0.11468802D+01  1  2  3  1  7  1       -2 -.137474337501D-04 0.100000000000D+01
0.277546689466D-06 0.000000000000D+00 0.000000000000D+00 0.188267445803D-07 0.000000000000D+00  7 -2 2 23 -11 11 23 21 2 0.18701825D-01 0.17450189D+00 0.50546754D+05 0.50546754D+05 0.50546754D+05 0.11468802D+01  1  2 15  1  7  1       -2 0.218399721642D-04 0.100000000000D+01
  </mgrwgt>
  </event>
  <event>
  8     66 0.53686478E-06 0.17587149E+03 0.75467711E-02 0.98498488E-01
       -2 -1    0    0    0  501 0.00000000E+00 0.00000000E+00 0.38129297E+03 0.38129310E+03 0.32000000E+00 0.0000E+00 0.9000E+01
        2 -1    0    0  501    0 0.00000000E+00 0.00000000E+00 -.63917726E+03 0.63917734E+03 0.32000000E+00 0.0000E+00 0.9000E+01
       25  2    1    2    0    0 0.23900888E+03 0.12643034E+03 0.22311558E+03 0.46152565E+03 0.30019242E+03 0.0000E+00 0.0000E+00
       23  2    1    2    0    0 -.23900888E+03 -.12643034E+03 -.48099988E+03 0.55894480E+03 0.89154518E+02 0.0000E+00 0.0000E+00
       23  1    3    3    0    0 -.18157976E+02 0.76469294E+02 0.10608408E+03 0.16045669E+03 0.91188000E+02 0.0000E+00 0.9000E+01
      -11  1    4    4    0    0 -.19051299E+03 -.56255340E+02 -.31725859E+03 0.37431654E+03 0.51099893E-03 0.0000E+00 0.9000E+01
       11  1    4    4    0    0 -.48495884E+02 -.70174996E+02 -.16374129E+03 0.18462825E+03 0.51099893E-03 0.0000E+00 0.9000E+01
       23  1    3    3    0    0 0.25716685E+03 0.49961041E+02 0.11703150E+03 0.30106896E+03 0.91188000E+02 0.0000E+00 0.9000E+01
#aMCatNLO 1  0  0  2  1 0.36362693D+02 0.00000000D+00  -5  7  0 0.00000000D+00 0.00000000D+00 0.00000000D+00 0.00000000D+00 0.00000000D+00
  <mgrwgt>
 0.2238196002D-03    9    2    0
 0.493673884292901D+03 0.000000000000000D+00 0.000000000000000D+00 0.493673884292901D+03
 0.493673884292901D+03 0.000000000000000D+00 0.000000000000000D+00 -.493673884292901D+03
 0.193547535036750D+03 -.181579759029163D+02 0.764692944853921D+02 0.151552406403916D+03
 0.304009357903510D+03 -.190512993167542D+03 -.562553399345937D+02 -.230134364787382D+03
 0.148054587277221D+03 -.484958839414203D+02 -.701749956601303D+02 -.121011487217822D+03
 0.341736288368321D+03 0.257166853011879D+03 0.499610411093318D+02 0.199593445601289D+03
 0.000000000000000D+00 0.000000000000000D+00 -.000000000000000D+00 -.000000000000000D+00
 0.500755607052965D+03 0.000000000000000D+00 0.000000000000000D+00 0.500755607052965D+03
 0.543002114318459D+03 0.000000000000000D+00 0.000000000000000D+00 -.543002114318459D+03
 0.196224927515194D+03 -.229364803261715D+02 0.818214936173425D+02 0.151552406403916D+03
 0.307342842801302D+03 -.198008004939559D+03 -.478604967060467D+02 -.230134364787382D+03
 0.147416572881318D+03 -.521182800350739D+02 -.661177041917619D+02 -.121011487217822D+03
 0.337032793081531D+03 0.248845328610589D+03 0.592816259057669D+02 0.199593445601289D+03
 0.557405850920787D+02 0.242174366902158D+02 -.271249186253008D+02 -.422465072654943D+02
0.988264505387D-05 0.000000000000D+00 0.000000000000D+00 0.296934334330D-06 0.000000000000D+00  7 -2 2 23 -11 11 23 21 0 0.58660473D-01 0.98334980D-01 0.11618667D+06 0.11618667D+06 0.11618667D+06 0.11164141D+01  1  2  2  2  7  2        2 0.156932284229D-03 0.100000000000D+01
-.457451655845D-06 0.000000000000D+00 -.379519591671D-07 0.296934334330D-06 0.000000000000D+00  7 -2 2 23 -11 11 23 21 2 0.58660473D-01 0.98334980D-01 0.11618667D+06 0.11618667D+06 0.11618667D+06 0.11164141D+01  1  2  3  2  7  2        2 -.905388421777D-05 0.100000000000D+01
0.569181633968D-06 0.000000000000D+00 0.000000000000D+00 0.296934334330D-06 0.000000000000D+00  7 -2 2 23 -11 11 23 21 2 0.58660473D-01 0.98334980D-01 0.11618667D+06 0.11618667D+06 0.11618667D+06 0.11164141D+01  1  2 15  2  7  2        2 0.112652442001D-04 0.100000000000D+01
0.527933590929D-04 0.000000000000D+00 0.000000000000D+00 0.296934334330D-06 0.000000000000D+00  7 -2 2 23 -11 11 23 21 2 0.58660473D-01 0.10882153D+00 0.12977364D+06 0.12977364D+06 0.12977364D+06 0.11125505D+01  1  2 12  2  7  2        2 0.917150616228D-03 0.100000000000D+01
-.537592001445D-04 0.000000000000D+00 0.000000000000D+00 0.296934334330D-06 0.000000000000D+00  7 -2 2 23 -11 11 23 21 2 0.58660473D-01 0.98334980D-01 0.11618667D+06 0.11618667D+06 0.11618667D+06 0.11164141D+01  1  2  4  2  7  2        2 -.106400221210D-02 0.100000000000D+01
-.897552672475D-04 0.000000000000D+00 -.129249862085D-04 0.296934334330D-06 0.000000000000D+00  7 -2 2 23 -11 11 23 21 2 0.58660473D-01 0.10905879D+00 0.11618667D+06 0.11618667D+06 0.11618667D+06 0.11164141D+01  1  2  5  2  7  2        2 -.157041203473D-02 0.100000000000D+01
0.906758540963D-04 0.000000000000D+00 0.128560563118D-04 0.296934334330D-06 0.000000000000D+00  7 -2 2 23 -11 11 23 21 2 0.58660473D-01 0.98334980D-01 0.11618667D+06 0.11618667D+06 0.11618667D+06 0.11164141D+01  1  2  6  2  7  2        2 0.179465671147D-02 0.100000000000D+01
0.867315016946D-06 0.000000000000D+00 0.000000000000D+00 0.296934334330D-06 0.000000000000D+00  7 -2 21 23 -11 11 23 -2 2 0.58660473D-01 0.10882153D+00 0.12977364D+06 0.12977364D+06 0.12977364D+06 0.11125505D+01  1  2 12  4  7  2        2 0.183238680513D-04 0.100000000000D+01
-.145632974492D-05 0.000000000000D+00 -.216261626584D-06 0.296934334330D-06 0.000000000000D+00  7 -2 21 23 -11 11 23 -2 2 0.58660473D-01 0.10905879D+00 0.11618667D+06 0.11618667D+06 0.11618667D+06 0.11164141D+01  1  2  5  4  7  2        2 -.310409929365D-04 0.100000000000D+01
  </mgrwgt>
  </event>
  <event>
  8     66 0.53686478E-06 0.19795067E+03 0.75467711E-02 0.96127166E-01
       -2 -1    0    0    0  501 0.00000000E+00 0.00000000E+00 0.76558335E+02 0.76559004E+02 0.32000000E+00 0.0000E+00 0.9000E+01
        2 -1    0    0  501    0 0.00000000E+00 0.00000000E+00 -.18206280E+04 0.18206280E+04 0.32000000E+00 0.0000E+00 0.9000E+01
       25  2    1    2    0    0 -.30060993E+03 0.86259421E+01 -.86866568E+03 0.96696031E+03 0.29998574E+03 0.0000E+00 0.0000E+00
       23  2    1    2    0    0 0.30060993E+03 -.86259421E+01 -.87540398E+03 0.93022672E+03 0.92460137E+02 0.0000E+00 0.0000E+00
       23  1    3    3    0    0 -.55541365E+02 0.88175794E+02 -.41315115E+03 0.43573953E+03 0.91188000E+02 0.0000E+00 0.9000E+01
      -13  1    4    4    0    0 0.21303344E+03 0.10244018E+02 -.71918100E+03 0.75013966E+03 0.10565837E+00 0.0000E+00 0.9000E+01
       13  1    4    4    0    0 0.87576492E+02 -.18869960E+02 -.15622298E+03 0.18008706E+03 0.10565837E+00 0.0000E+00 0.9000E+01
       23  1    3    3    0    0 -.24506857E+03 -.79549852E+02 -.45551453E+03 0.53122078E+03 0.91188000E+02 0.0000E+00 0.9000E+01
#aMCatNLO 1  0  0  1  2 0.14830355D+03 0.00000000D+00  -5  7  0 0.00000000D+00 0.00000000D+00 0.00000000D+00 0.00000000D+00 0.00000000D+00
  <mgrwgt>
 0.2063909981D-03    9    2    0
 0.373342884015953D+03 0.000000000000000D+00 0.000000000000000D+00 0.373342884015953D+03
 0.373342884015953D+03 0.000000000000000D+00 0.000000000000000D+00 -.373342884015953D+03
 0.142114664498050D+03 -.555413652112880D+02 0.881757939285597D+02 -.319611113218512D+02
 0.226137425533567D+03 0.213033602516145D+03 0.102440555483515D+02 -.751656753569391D+02
 0.926694208222443D+02 0.875763280268825D+02 -.188699976389190D+02 0.237050946837440D+02
 0.285764257178046D+03 -.245068565331740D+03 -.795498518379922D+02 0.834216919950463D+02
 0.000000000000000D+00 0.000000000000000D+00 -.000000000000000D+00 0.000000000000000D+00
 0.537243726222976D+03 0.000000000000000D+00 0.000000000000000D+00 0.537243726222976D+03
 0.415745328897580D+03 0.000000000000000D+00 0.000000000000000D+00 -.415745328897580D+03
 0.162409540127907D+03 -.555571251509555D+02 0.118124936353809D+03 -.319611113218512D+02
 0.232567007450397D+03 0.213009863338506D+03 0.553564117612314D+02 -.751656753569391D+02
 0.907225320817643D+02 0.875668370042664D+02 -.833888739420843D+00 0.237050946837440D+02
 0.275571948066886D+03 -.245097615977283D+03 -.243439348568478D+02 0.834216919950463D+02
 0.191718027393602D+03 0.780407854659047D-01 -.148303524518772D+03 0.121498397325396D+03
0.339896941071D-05 0.000000000000D+00 0.000000000000D+00 0.398534019168D-06 0.000000000000D+00  7 -2 2 23 -13 13 23 21 0 0.11778259D-01 0.28009667D+00 0.12768357D+06 0.12768357D+06 0.12768357D+06 0.11131151D+01  1  2  2  1  7  1       -2 0.177246702662D-03 0.100000000000D+01
-.188390329533D-06 0.000000000000D+00 -.130529375063D-07 0.398534019168D-06 0.000000000000D+00  7 -2 2 23 -13 13 23 21 2 0.11778259D-01 0.28009667D+00 0.12768357D+06 0.12768357D+06 0.12768357D+06 0.11131151D+01  1  2  3  1  7  1       -2 -.121722166210D-04 0.100000000000D+01
0.222941711245D-06 0.000000000000D+00 0.000000000000D+00 0.398534019168D-06 0.000000000000D+00  7 -2 2 23 -13 13 23 21 2 0.11778259D-01 0.28009667D+00 0.12768357D+06 0.12768357D+06 0.12768357D+06 0.11131151D+01  1  2 15  1  7  1       -2 0.144046396110D-04 0.100000000000D+01
0.225584120151D-05 0.000000000000D+00 0.000000000000D+00 0.398534019168D-06 0.000000000000D+00  7 -2 2 23 -13 13 23 21 2 0.17386319D-01 0.28009667D+00 0.19264860D+06 0.19264860D+06 0.19264860D+06 0.10990767D+01  1  2 12  1  7  1       -2 0.753710909727D-04 0.100000000000D+01
-.282425005089D-05 0.000000000000D+00 0.000000000000D+00 0.398534019168D-06 0.000000000000D+00  7 -2 2 23 -13 13 23 21 2 0.11778259D-01 0.28009667D+00 0.12768357D+06 0.12768357D+06 0.12768357D+06 0.11131151D+01  1  2  4  1  7  1       -2 -.182479554531D-03 0.100000000000D+01
-.354639176274D-05 0.000000000000D+00 -.127041645013D-05 0.398534019168D-06 0.000000000000D+00  7 -2 2 23 -13 13 23 21 2 0.19023169D-01 0.28009667D+00 0.12768357D+06 0.12768357D+06 0.12768357D+06 0.11131151D+01  1  2  5  1  7  1       -2 -.106151889027D-03 0.100000000000D+01
0.383897244391D-05 0.000000000000D+00 0.113721343426D-05 0.398534019168D-06 0.000000000000D+00  7 -2 2 23 -13 13 23 21 2 0.11778259D-01 0.28009667D+00 0.12768357D+06 0.12768357D+06 0.12768357D+06 0.11131151D+01  1  2  6  1  7  1       -2 0.248042478110D-03 0.100000000000D+01
0.105292546079D-06 0.000000000000D+00 0.000000000000D+00 0.398534019168D-06 0.000000000000D+00  7 21 2 23 -13 13 23 2 2 0.17386319D-01 0.28009667D+00 0.19264860D+06 0.19264860D+06 0.19264860D+06 0.10990767D+01  1  2 12  3  7  1       -2 0.456755736782D-04 0.100000000000D+01
-.138873105306D-06 0.000000000000D+00 -.693032991367D-07 0.398534019168D-06 0.000000000000D+00  7 21 2 23 -13 13 23 2 2 0.19023169D-01 0.28009667D+00 0.12768357D+06 0.12768357D+06 0.12768357D+06 0.11131151D+01  1  2  5  3  7  1       -2 -.535458267474D-04 0.100000000000D+01
  </mgrwgt>
  </event>
  <event>
  8     66 0.53686478E-06 0.14633027E+03 0.75467711E-02 0.10192868E+00
       -2 -1    0    0    0  501 0.00000000E+00 0.00000000E+00 0.10073850E+03 0.10073901E+03 0.32000000E+00 0.0000E+00 0.9000E+01
        2 -1    0    0  501    0 0.00000000E+00 0.00000000E+00 -.69596611E+03 0.69596618E+03 0.32000000E+00 0.0000E+00 0.9000E+01
       25  2    1    2    0    0 -.11972109E+02 -.16184892E+03 -.35264886E+03 0.49062830E+03 0.30002751E+03 0.0000E+00 0.0000E+00
       23  2    1    2    0    0 0.11972109E+02 0.16184892E+03 -.24257875E+03 0.30607689E+03 0.92196588E+02 0.0000E+00 0.0000E+00
       23  1    3    3    0    0 -.46268584E+02 -.17558852E+03 -.11514160E+03 0.23354860E+03 0.91188000E+02 0.0000E+00 0.9000E+01
      -13  1    4    4    0    0 0.25453457E+02 0.14764198E+03 -.15207431E+03 0.21347749E+03 0.10565837E+00 0.0000E+00 0.9000E+01
       13  1    4    4    0    0 -.13481348E+02 0.14206936E+02 -.90504441E+02 0.92599399E+02 0.10565837E+00 0.0000E+00 0.9000E+01
       23  1    3    3    0    0 0.34296475E+02 0.13739595E+02 -.23750725E+03 0.25707970E+03 0.91188000E+02 0.0000E+00 0.9000E+01
#aMCatNLO 1  0  0  1  2 0.75042733D+02 0.00000000D+00  -5  7  0 0.00000000D+00 0.00000000D+00 0.00000000D+00 0.00000000D+00 0.00000000D+00
  <mgrwgt>
 0.2600561329D-03    9    2    0
 0.264784469708149D+03 0.000000000000000D+00 0.000000000000000D+00 0.264784469708149D+03
 0.264784469708149D+03 0.000000000000000D+00 0.000000000000000D+00 -.264784469708149D+03
 0.221942630669707D+03 -.462685844570666D+02 -.175588518762320D+03 0.892814097994866D+02
 0.150235171501365D+03 0.254535058332870D+02 0.147642161308440D+03 0.111587634176818D+02
 0.375845314765734D+02 -.134813962100751D+02 0.142067648240762D+02 -.320782916592187D+02
 0.119806605768652D+03 0.342964748338548D+02 0.137395926298035D+02 -.683618815579496D+02
 0.000000000000000D+00 -.000000000000000D+00 0.000000000000000D+00 0.000000000000000D+00
 0.329467458346931D+03 0.000000000000000D+00 0.000000000000000D+00 0.329467458346931D+03
 0.290123246108694D+03 0.000000000000000D+00 0.000000000000000D+00 -.290123246108694D+03
 0.231959999469986D+03 -.192522946075076D+02 -.192739121681815D+03 0.892814097994866D+02
 0.143568206350883D+03 0.429406863160107D+02 0.136540870557162D+03 0.111587634176818D+02
 0.352682087318078D+02 -.914520026162134D+01 0.114540413632613D+02 -.320782916592187D+02
 0.124063074816198D+03 0.488116010717706D+02 0.452503475308931D+01 -.683618815579496D+02
 0.847312150867515D+02 -.633547925186523D+02 0.402191750083024D+02 0.393442122382368D+02
0.131646013322D-05 0.000000000000D+00 0.000000000000D+00 0.201105925680D-06 0.000000000000D+00  7 -2 2 23 -13 13 23 21 0 0.15498276D-01 0.10707175D+00 0.55457118D+05 0.55457118D+05 0.55457118D+05 0.11433592D+01  1  2  2  1  7  1       -2 0.202374830229D-03 0.100000000000D+01
-.719145363930D-07 0.000000000000D+00 -.505555354347D-08 0.201105925680D-06 0.000000000000D+00  7 -2 2 23 -13 13 23 21 2 0.15498276D-01 0.10707175D+00 0.55457118D+05 0.55457118D+05 0.55457118D+05 0.11433592D+01  1  2  3  1  7  1       -2 -.144520971571D-04 0.100000000000D+01
0.841604084198D-07 0.000000000000D+00 0.000000000000D+00 0.201105925680D-06 0.000000000000D+00  7 -2 2 23 -13 13 23 21 2 0.15498276D-01 0.10707175D+00 0.55457118D+05 0.55457118D+05 0.55457118D+05 0.11433592D+01  1  2 15  1  7  1       -2 0.169130534698D-04 0.100000000000D+01
0.112572606631D-05 0.000000000000D+00 0.000000000000D+00 0.201105925680D-06 0.000000000000D+00  7 -2 2 23 -13 13 23 21 2 0.19886944D-01 0.10707175D+00 0.75749439D+05 0.75749439D+05 0.75749439D+05 0.11317568D+01  1  2 12  1  7  1       -2 0.148131678763D-03 0.100000000000D+01
-.120561253692D-05 0.000000000000D+00 0.000000000000D+00 0.201105925680D-06 0.000000000000D+00  7 -2 2 23 -13 13 23 21 2 0.15498276D-01 0.10707175D+00 0.55457118D+05 0.55457118D+05 0.55457118D+05 0.11433592D+01  1  2  4  1  7  1       -2 -.242282442345D-03 0.100000000000D+01
-.205176027957D-05 0.000000000000D+00 -.663758773464D-06 0.201105925680D-06 0.000000000000D+00  7 -2 2 23 -13 13 23 21 2 0.21047552D-01 0.10707175D+00 0.55457118D+05 0.55457118D+05 0.55457118D+05 0.11433592D+01  1  2  5  1  7  1       -2 -.251058395141D-03 0.100000000000D+01
0.218183910482D-05 0.000000000000D+00 0.633840426897D-06 0.201105925680D-06 0.000000000000D+00  7 -2 2 23 -13 13 23 21 2 0.15498276D-01 0.10707175D+00 0.55457118D+05 0.55457118D+05 0.55457118D+05 0.11433592D+01  1  2  6  1  7  1       -2 0.438466995765D-03 0.100000000000D+01
0.380233717445D-07 0.000000000000D+00 0.000000000000D+00 0.201105925680D-06 0.000000000000D+00  7 21 2 23 -13 13 23 2 2 0.19886944D-01 0.10707175D+00 0.75749439D+05 0.75749439D+05 0.75749439D+05 0.11317568D+01  1  2 12  3  7  1       -2 0.647129649503D-04 0.100000000000D+01
-.651147326167D-07 0.000000000000D+00 -.260307005602D-07 0.201105925680D-06 0.000000000000D+00  7 21 2 23 -13 13 23 2 2 0.21047552D-01 0.10707175D+00 0.55457118D+05 0.55457118D+05 0.55457118D+05 0.11433592D+01  1  2  5  3  7  1       -2 -.102750455608D-03 0.100000000000D+01
  </mgrwgt>
  </event>
  <event>
  8     66 0.53686478E-06 0.19290038E+03 0.75467711E-02 0.91679808E-01
       -2 -1    0    0    0  501 0.00000000E+00 0.00000000E+00 0.15222789E+03 0.15222823E+03 0.32000000E+00 0.0000E+00 0.9000E+01
        2 -1    0    0  501    0 0.00000000E+00 0.00000000E+00 -.11505349E+04 0.11505349E+04 0.32000000E+00 0.0000E+00 0.9000E+01
       25  2    1    2    0    0 0.66672509E+02 -.22378301E+02 -.95458325E+01 0.30863407E+03 0.30036287E+03 0.0000E+00 0.0000E+00
       23  2    1    2    0    0 -.66672509E+02 0.22378301E+02 -.98876115E+03 0.99412908E+03 0.75485136E+02 0.0000E+00 0.0000E+00
       23  1    3    3    0    0 -.71651593E+02 -.47617106E+01 0.56896552E+02 0.12926366E+03 0.91188000E+02 0.0000E+00 0.9000E+01
      -13  1    4    4    0    0 -.20146237E+00 0.35388464E+02 -.35390463E+03 0.35566963E+03 0.10565837E+00 0.0000E+00 0.9000E+01
       13  1    4    4    0    0 -.66471046E+02 -.13010163E+02 -.63485652E+03 0.63845946E+03 0.10565837E+00 0.0000E+00 0.9000E+01
       23  1    3    3    0    0 0.13832410E+03 -.17616590E+02 -.66442384E+02 0.17937041E+03 0.91188000E+02 0.0000E+00 0.9000E+01
#aMCatNLO 1  0  0  2  2 0.58207191D+03 0.00000000D+00  -5  7  0 0.00000000D+00 0.00000000D+00 0.00000000D+00 0.00000000D+00 0.00000000D+00
  <mgrwgt>
 0.1981803198D-02    3    2    0
 0.418501788358682D+03 0.000000000000000D+00 0.000000000000000D+00 0.418501788358682D+03
 0.418501788358682D+03 0.000000000000000D+00 0.000000000000000D+00 -.418501788358682D+03
 0.269055190535318D+03 -.716515925258611D+02 -.476171057451165D+01 0.242731991321516D+03
 0.131478105642331D+03 -.201333130638339D+00 0.353885579535898D+02 -.126625833439437D+03
 0.236534145267458D+03 -.664711757529505D+02 -.130102574109408D+02 -.226629031400499D+03
 0.199936135272256D+03 0.138324101409450D+03 -.176165899681374D+02 0.110522873518420D+03
 0.000000000000000D+00 0.000000000000000D+00 0.000000000000000D+00 0.000000000000000D+00
 0.908283445857375D+03 0.000000000000000D+00 0.000000000000000D+00 0.908283445857375D+03
 0.722284974077719D+03 0.000000000000000D+00 0.000000000000000D+00 -.722284974077719D+03
 0.370241311080239D+03 -.234980179247979D+03 -.120949877371136D+03 0.242731991321516D+03
 0.145993629109042D+03 -.710902965110905D+02 -.150402057220613D+02 -.126625833439437D+03
 0.331019011564556D+03 -.211470647454727D+03 -.116159517082010D+03 -.226629031400499D+03
 0.172247250212059D+03 0.432380400920649D+02 -.852586076583711D+02 0.110522873518420D+03
 0.611067217969198D+03 0.474303083121732D+03 0.337408207833578D+03 0.185998471779656D+03
0.459654745836D-04 0.000000000000D+00 0.000000000000D+00 0.469238229386D-08 0.000000000000D+00  7 -2 2 23 -13 13 23 21 0 0.23419705D-01 0.17700539D+00 0.37210558D+05 0.37210558D+05 0.37210558D+05 0.11587549D+01  1  2  2  2  7  2        2 0.186710715221D-02 0.100000000000D+01
-.691157022568D-06 0.000000000000D+00 -.176519525389D-06 0.469238229386D-08 0.000000000000D+00  7 -2 2 23 -13 13 23 21 2 0.23419705D-01 0.17700539D+00 0.37210558D+05 0.37210558D+05 0.37210558D+05 0.11587549D+01  1  2  3  2  7  2        2 -.376961836007D-04 0.100000000000D+01
0.279410141049D-05 0.000000000000D+00 0.000000000000D+00 0.469238229386D-08 0.000000000000D+00  7 -2 2 23 -13 13 23 21 2 0.23419705D-01 0.17700539D+00 0.37210558D+05 0.37210558D+05 0.37210558D+05 0.11587549D+01  1  2 15  2  7  2        2 0.152392229739D-03 0.100000000000D+01
  </mgrwgt>
  </event>
  <event>
  9     66 0.53686478E-06 0.22846257E+03 0.75467711E-02 0.10227438E+00
       -4 -1    0    0    0  501 0.00000000E+00 0.00000000E+00 0.83501751E+03 0.83501895E+03 0.15500000E+01 0.0000E+00 0.9000E+01
       21 -1    0    0  501  502 0.00000000E+00 0.00000000E+00 -.23215577E+03 0.23215698E+03 0.75000000E+00 0.0000E+00 0.9000E+01
       25  2    1    2    0    0 -.15519191E+03 0.61856415E+02 0.41654094E+03 0.53999722E+03 0.30029968E+03 0.0000E+00 0.0000E+00
       23  2    1    2    0    0 0.17293564E+03 0.31908510E+01 -.10467542E+03 0.22846950E+03 0.10641639E+03 0.0000E+00 0.0000E+00
       23  1    3    3    0    0 -.72158779E+02 0.11121028E+03 0.36246842E+03 0.39657688E+03 0.91188000E+02 0.0000E+00 0.9000E+01
      -11  1    4    4    0    0 0.39964976E+02 -.10800815E+02 0.19711750E+02 0.45852045E+02 0.51099893E-03 0.0000E+00 0.9000E+01
       11  1    4    4    0    0 0.13297067E+03 0.13991666E+02 -.12438717E+03 0.18261745E+03 0.51099893E-03 0.0000E+00 0.9000E+01
       23  1    3    3    0    0 -.83033129E+02 -.49353868E+02 0.54072522E+02 0.14342034E+03 0.91188000E+02 0.0000E+00 0.9000E+01
       -4  1    1    2    0  502 -.17743735E+02 -.65047266E+02 0.29099622E+03 0.29870921E+03 0.15500000E+01 0.0000E+00 0.9000E+01
#aMCatNLO 2  0  0  2  2 0.67423934D+02 0.00000000D+00  -5  7  0 0.00000000D+00 0.00000000D+00 0.00000000D+00 0.00000000D+00 0.00000000D+00
  <mgrwgt>
 0.4013569744D-05    1    2    0
 0.349547925894760D+03 0.000000000000000D+00 0.000000000000000D+00 0.349547925894760D+03
 0.349547925894760D+03 0.000000000000000D+00 0.000000000000000D+00 -.349547925894760D+03
 0.265716317595786D+03 -.789790952019831D+02 0.862074902290033D+02 0.220500524358009D+03
 0.415991468182672D+02 0.389139074596067D+02 -.146539585849040D+02 0.120760921859269D+01
 0.251550611149144D+03 0.126556615073033D+03 -.952179070120559D+01 -.217187634667829D+03
 0.140229776226323D+03 -.864914273306567D+02 -.620317409428937D+02 -.452049890877291D+01
 0.000000000000000D+00 -.000000000000000D+00 -.000000000000000D+00 0.000000000000000D+00
 0.542853305559240D+03 0.000000000000000D+00 0.000000000000000D+00 0.542853305559240D+03
 0.357098857805169D+03 0.000000000000000D+00 0.000000000000000D+00 -.357098857805169D+03
 0.272965838503341D+03 -.721587790154569D+02 0.111210282863921D+03 0.220500524358009D+03
 0.414163646337452D+02 0.399649763136207D+02 -.108008151406383D+02 0.120760921859269D+01
 0.255043983760554D+03 0.132970666989454D+03 0.139916660990347D+02 -.217187634667829D+03
 0.132913472327836D+03 -.830331295231989D+02 -.493538678670857D+02 -.452049890877291D+01
 0.197612504138934D+03 -.177437347644187D+02 -.650472659552313D+02 0.185754447754070D+03
0.233059910784D-06 0.000000000000D+00 0.000000000000D+00 0.777747298845D-08 0.622269242479D-13  7 -4 21 23 -11 11 23 -4 2 0.12846336D+00 0.35716176D-01 0.71895660D+05 0.71895660D+05 0.71895660D+05 0.11336744D+01  1  2  1  4  7  2        4 0.401356974414D-05 0.100000000000D+01
  </mgrwgt>
  </event>
  <event>
  9     66 0.53686478E-06 0.27206359E+03 0.75467711E-02 0.96758150E-01
       -2 -1    0    0    0  501 0.00000000E+00 0.00000000E+00 0.18324463E+03 0.18324491E+03 0.32000000E+00 0.0000E+00 0.9000E+01
        2 -1    0    0  502    0 0.00000000E+00 0.00000000E+00 -.11662295E+04 0.11662295E+04 0.32000000E+00 0.0000E+00 0.9000E+01
       25  2    1    2    0    0 -.23149988E+03 0.26312785E+02 -.30872011E+03 0.48918484E+03 0.29951485E+03 0.0000E+00 0.0000E+00
       23  2    1    2    0    0 0.78926503E+02 -.20852080E+03 -.13634366E+03 0.27220963E+03 0.76145753E+02 0.0000E+00 0.0000E+00
       23  1    3    3    0    0 -.19779570E+03 -.74973183E+02 -.24077621E+03 0.33321547E+03 0.91188000E+02 0.0000E+00 0.9000E+01
      -13  1    4    4    0    0 0.63466750E+02 -.18465283E+03 -.83829906E+02 0.21249038E+03 0.10565837E+00 0.0000E+00 0.9000E+01
       13  1    4    4    0    0 0.15459754E+02 -.23867961E+02 -.52513755E+02 0.59719253E+02 0.10565837E+00 0.0000E+00 0.9000E+01
       23  1    3    3    0    0 -.33704176E+02 0.10128597E+03 -.67943901E+02 0.15596937E+03 0.91188000E+02 0.0000E+00 0.9000E+01
       21  1    1    2  502  501 0.15257337E+03 0.18220801E+03 -.53792106E+03 0.58807995E+03 0.75000000E+00 0.0000E+00 0.9000E+01
#aMCatNLO 2  0  0  2  1 0.23765183D+03 0.00000000D+00  -5  7  0 0.00000000D+00 0.00000000D+00 0.00000000D+00 0.00000000D+00 0.00000000D+00
  <mgrwgt>
 0.2850806967D-03    2    2    0
 0.285114623282403D+03 0.000000000000000D+00 0.000000000000000D+00 0.285114623282403D+03
 0.285114623282403D+03 0.000000000000000D+00 0.000000000000000D+00 -.285114623282403D+03
 0.180118052925491D+03 -.144197405613561D+03 -.109643787908458D+02 -.566934939628777D+02
 0.176275794550653D+03 0.111983922915013D+03 -.126712495517943D+03 0.497664569026512D+02
 0.352623027129023D+02 0.245822810898893D+02 -.129731297787063D+02 -.216988329819572D+02
 0.178573096375760D+03 0.763120160865839D+01 0.150650004087495D+03 0.286258700421837D+02
 0.000000000000000D+00 0.000000000000000D+00 0.000000000000000D+00 -.000000000000000D+00
 0.357862886328911D+03 0.000000000000000D+00 0.000000000000000D+00 0.357862886328911D+03
 0.597170212225719D+03 0.000000000000000D+00 0.000000000000000D+00 -.597170212225719D+03
 0.237220406985424D+03 -.197795702376144D+03 -.749731819395396D+02 -.566934939628777D+02
 0.201498199515079D+03 0.634668448401972D+02 -.184653144520221D+03 0.497664569026512D+02
 0.357701747018743D+02 0.154596619929784D+02 -.238676537700418D+02 -.216988329819572D+02
 0.143281230397563D+03 -.337041781318053D+02 0.101285969319680D+03 0.286258700421837D+02
 0.337263086954689D+03 0.152573373674774D+03 0.182208010910122D+03 -.239307325896808D+03
-.197735630813D-06 0.000000000000D+00 0.000000000000D+00 0.137088469693D-08 0.000000000000D+00  7 -2 2 23 -13 13 23 21 2 0.22460564D-01 0.17980654D+00 0.17309071D+06 0.17309071D+06 0.17309071D+06 0.11026780D+01  1  2 13  2  7  2        2 -.995081618928D-05 0.100000000000D+01
0.863452267240D-05 0.000000000000D+00 0.000000000000D+00 0.137088469693D-08 0.208807398904D-12  7 -2 2 23 -13 13 23 21 2 0.28191477D-01 0.17941975D+00 0.17309071D+06 0.17309071D+06 0.17309071D+06 0.11026780D+01  1  2  1  2  7  2        2 0.295031512920D-03 0.100000000000D+01
  </mgrwgt>
  </event>
  <event>
  8     66 0.53686478E-06 0.28832136E+03 0.75467711E-02 0.87132279E-01
       -2 -1    0    0    0  501 0.00000000E+00 0.00000000E+00 0.15492791E+03 0.15492824E+03 0.32000000E+00 0.0000E+00 0.9000E+01
        2 -1    0    0  501    0 0.00000000E+00 0.00000000E+00 -.94835572E+03 0.94835578E+03 0.32000000E+00 0.0000E+00 0.9000E+01
       25  2    1    2    0    0 0.21369035E+02 -.25583029E+03 -.19158866E+03 0.44248693E+03 0.30525842E+03 0.0000E+00 0.0000E+00
       23  2    1    2    0    0 -.21369035E+02 0.25583029E+03 -.60183916E+03 0.66079708E+03 0.92393934E+02 0.0000E+00 0.0000E+00
       23  1    3    3    0    0 0.19366825E+02 -.17155197E+03 0.20910449E+02 0.19636102E+03 0.91188000E+02 0.0000E+00 0.9000E+01
      -11  1    4    4    0    0 -.31248126E+01 0.13281069E+03 -.41990339E+03 0.44041719E+03 0.51099893E-03 0.0000E+00 0.9000E+01
       11  1    4    4    0    0 -.18244222E+02 0.12301960E+03 -.18193577E+03 0.22037989E+03 0.51099893E-03 0.0000E+00 0.9000E+01
       23  1    3    3    0    0 0.20022097E+01 -.84278321E+02 -.21249910E+03 0.24612591E+03 0.91188000E+02 0.0000E+00 0.9000E+01
#aMCatNLO 1  0  0  1  1 0.94675435D+03 0.00000000D+00  -5  7  0 0.00000000D+00 0.00000000D+00 0.00000000D+00 0.00000000D+00 0.00000000D+00
  <mgrwgt>
 0.4275016900D-03    3    2    0
 0.383310554473972D+03 0.000000000000000D+00 0.000000000000000D+00 0.383310554473972D+03
 0.383310554473972D+03 0.000000000000000D+00 0.000000000000000D+00 -.383310554473972D+03
 0.304234914134863D+03 0.193668252950446D+02 -.171551969682743D+03 0.233320550767844D+03
 0.199240818443157D+03 -.312481261102269D+01 0.132810690926474D+03 -.148487237349470D+03
 0.128862502632791D+03 -.182442223617360D+02 0.123019599455088D+03 -.337471641047239D+02
 0.134282873737134D+03 0.200220967771415D+01 -.842783206988183D+02 -.510861493136501D+02
 0.000000000000000D+00 0.000000000000000D+00 -.000000000000000D+00 -.000000000000000D+00
 0.733641298524755D+03 0.000000000000000D+00 0.000000000000000D+00 0.733641298524755D+03
 0.240851861199141D+04 0.000000000000000D+00 0.000000000000000D+00 -.240851861199141D+04
 0.416934466550510D+03 -.317432891105874D+03 -.101572527227171D+03 0.233320550767844D+03
 0.353752968985890D+03 -.261383351819342D+03 0.186471034754303D+03 -.148487237349470D+03
 0.257738435525743D+03 -.198794159476896D+03 0.160533835125249D+03 -.337471641047239D+02
 0.189790742795145D+03 -.149346287727100D+03 -.528314905825190D+02 -.510861493136501D+02
 0.192394329665887D+04 0.926956690129212D+03 -.192600852069861D+03 -.167487731346665D+04
0.819719770898D-05 0.000000000000D+00 0.000000000000D+00 0.601325067507D-08 0.000000000000D+00  7 -2 2 23 -11 11 23 21 0 0.23835092D-01 0.14590091D+00 0.83129209D+05 0.83129209D+05 0.83129209D+05 0.11283673D+01  1  2  2  1  7  1       -2 0.420495415430D-03 0.100000000000D+01
-.410498226231D-06 0.000000000000D+00 -.314793975742D-07 0.601325067507D-08 0.000000000000D+00  7 -2 2 23 -11 11 23 21 2 0.23835092D-01 0.14590091D+00 0.83129209D+05 0.83129209D+05 0.83129209D+05 0.11283673D+01  1  2  3  1  7  1       -2 -.268106969970D-04 0.100000000000D+01
0.517771202641D-06 0.000000000000D+00 0.000000000000D+00 0.601325067507D-08 0.000000000000D+00  7 -2 2 23 -11 11 23 21 2 0.23835092D-01 0.14590091D+00 0.83129209D+05 0.83129209D+05 0.83129209D+05 0.11283673D+01  1  2 15  1  7  1       -2 0.338169715256D-04 0.100000000000D+01
  </mgrwgt>
  </event>
  <event>
  9     66 -.53686478E-06 0.16909385E+03 0.75467711E-02 0.10835084E+00
       -2 -1    0    0    0  501 0.00000000E+00 0.00000000E+00 0.18097540E+02 0.18100369E+02 0.32000000E+00 0.0000E+00 0.9000E+01
        2 -1    0    0  502    0 0.00000000E+00 0.00000000E+00 -.29475384E+04 0.29475384E+04 0.32000000E+00 0.0000E+00 0.9000E+01
       25  2    1    2    0    0 -.82661954E+01 0.53226647E+02 -.14447298E+04 0.14768197E+04 0.30141433E+03 0.0000E+00 0.0000E+00
       23  2    1    2    0    0 0.87370392E+01 -.42324932E+02 -.13571712E+04 0.13608112E+04 0.89585860E+02 0.0000E+00 0.0000E+00
       23  1    3    3    0    0 0.74688341E+02 0.80409848E+02 -.40390253E+03 0.42836503E+03 0.91188000E+02 0.0000E+00 0.9000E+01
      -11  1    4    4    0    0 -.10431909E+02 -.47592427E+02 -.12858087E+04 0.12867315E+04 0.51099893E-03 0.0000E+00 0.9000E+01
       11  1    4    4    0    0 0.19168948E+02 0.52674947E+01 -.71362547E+02 0.74079742E+02 0.51099893E-03 0.0000E+00 0.9000E+01
       23  1    3    3    0    0 -.82954537E+02 -.27183201E+02 -.10408273E+04 0.10484546E+04 0.91188000E+02 0.0000E+00 0.9000E+01
       21  1    1    2  502  501 -.47084372E+00 -.10901714E+02 -.12753975E+03 0.12800789E+03 0.75000000E+00 0.0000E+00 0.9000E+01
#aMCatNLO 2  0  0  2  1 0.10911878D+02 0.00000000D+00  -5  7  0 0.00000000D+00 0.00000000D+00 0.00000000D+00 0.00000000D+00 0.00000000D+00
  <mgrwgt>
 -.1002508489D-03    3    2    0
 0.224377035117823D+03 0.000000000000000D+00 0.000000000000000D+00 0.224377035117823D+03
 0.224377035117823D+03 0.000000000000000D+00 0.000000000000000D+00 -.224377035117823D+03
 0.184811960766924D+03 0.744934235867779D+02 0.758968151072039D+02 0.120542991490251D+03
 0.109378184860316D+03 -.105460250852911D+02 -.502346279622019D+02 -.965859763720231D+02
 0.227155932015983D+02 0.191450435914234D+02 0.471402333428179D+01 0.112802244829986D+02
 0.131848331406809D+03 -.830924420929102D+02 -.303762104792838D+02 -.352372396012263D+02
 0.000000000000000D+00 -.000000000000000D+00 -.000000000000000D+00 -.000000000000000D+00
 0.227373396643769D+03 0.000000000000000D+00 0.000000000000000D+00 0.227373396643769D+03
 0.234602703262048D+03 0.000000000000000D+00 0.000000000000000D+00 -.234602703262048D+03
 0.186788533065605D+03 0.746883409334257D+02 0.804098481032921D+02 0.120542991490251D+03
 0.108179086102276D+03 -.104319087514763D+02 -.475924271075509D+02 -.965859763720231D+02
 0.228569142779904D+02 0.191689479521157D+02 0.526749469232188D+01 0.112802244829986D+02
 0.131062183472625D+03 -.829545364097461D+02 -.271832011901085D+02 -.352372396012263D+02
 0.130893829873198D+02 -.470843724319040D+00 -.109017144979546D+02 -.722930661827902D+01
-.512306341234D-05 0.000000000000D+00 0.000000000000D+00 0.187503042133D-07 0.000000000000D+00  7 -2 2 23 -11 11 23 21 2 0.27476331D-02 0.45625400D+00 0.30351962D+05 0.30351962D+05 0.30351962D+05 0.11668662D+01  1  2 13  2  7  2        2 -.754887801353D-03 0.100000000000D+01
-.309648107347D-05 0.000000000000D+00 0.000000000000D+00 0.187503042133D-07 0.000000000000D+00  7 -2 2 23 -11 11 23 21 2 0.27476331D-02 0.43368196D+00 0.28592729D+05 0.28592729D+05 0.28592729D+05 0.11692768D+01  1  2  8  2  7  2        2 -.561197457590D-03 0.100000000000D+01
0.820091389088D-05 0.000000000000D+00 0.000000000000D+00 0.187503042133D-07 0.114497107933D-08  7 -2 2 23 -11 11 23 21 2 0.27843254D-02 0.45344641D+00 0.30351962D+05 0.30351962D+05 0.30351962D+05 0.11668662D+01  1  2  1  2  7  2        2 0.121583441004D-02 0.100000000000D+01
  </mgrwgt>
  </event>
  <event>
  8     66 0.53686478E-06 0.22484094E+03 0.75467711E-02 0.95243109E-01
       -2 -1    0    0    0  501 0.00000000E+00 0.00000000E+00 0.82103557E+02 0.82104181E+02 0.32000000E+00 0.0000E+00 0.9000E+01
        2 -1    0    0  501    0 0.00000000E+00 0.00000000E+00 -.96856102E+03 0.96856107E+03 0.32000000E+00 0.0000E+00 0.9000E+01
       25  2    1    2    0    0 -.85708460E+01 0.17310036E+03 -.69962801E+03 0.78003462E+03 0.29822384E+03 0.0000E+00 0.0000E+00
       23  2    1    2    0    0 0.85708460E+01 -.17310036E+03 -.18682945E+03 0.27063064E+03 0.91096126E+02 0.0000E+00 0.0000E+00
       23  1    3    3    0    0 0.51533236E+02 0.99897264E+02 -.59400356E+03 0.61138418E+03 0.91188000E+02 0.0000E+00 0.9000E+01
      -13  1    4    4    0    0 0.70619360E+01 -.71080457E+02 -.14246973E+03 0.15937358E+03 0.10565837E+00 0.0000E+00 0.9000E+01
       13  1    4    4    0    0 0.15089100E+01 -.10201990E+03 -.44359721E+02 0.11125706E+03 0.10565837E+00 0.0000E+00 0.9000E+01
       23  1    3    3    0    0 -.60104082E+02 0.73203094E+02 -.10562446E+03 0.16865044E+03 0.91188000E+02 0.0000E+00 0.9000E+01
#aMCatNLO 1  0  0  2  1 0.38227242D+03 0.00000000D+00  -5  7  0 0.00000000D+00 0.00000000D+00 0.00000000D+00 0.00000000D+00 0.00000000D+00
  <mgrwgt>
 0.2961481984D-03    3    2    0
 0.281997624665333D+03 0.000000000000000D+00 0.000000000000000D+00 0.281997624665333D+03
 0.281997624665333D+03 0.000000000000000D+00 0.000000000000000D+00 -.281997624665333D+03
 0.205323055344352D+03 0.515332356140916D+02 0.998972643554746D+02 -.145626810420934D+03
 0.729702533409414D+02 0.706194331329719D+01 -.710804151831101D+02 -.149117875077950D+02
 0.137538336253101D+03 0.150890269018221D+01 -.102019943345641D+03 0.922304088232019D+02
 0.148163604392272D+03 -.601040816175710D+02 0.732030941732761D+02 0.683081891055271D+02
 0.000000000000000D+00 0.000000000000000D+00 0.000000000000000D+00 0.000000000000000D+00
 0.255017859683812D+04 0.000000000000000D+00 0.000000000000000D+00 0.255017859683812D+04
 0.357203968985217D+03 0.000000000000000D+00 0.000000000000000D+00 -.357203968985217D+03
 0.174198797720984D+03 0.252555915205564D+02 -.135998884924974D+02 -.145626810420934D+03
 0.134008924962819D+03 -.726905011516881D+01 -.132978161641060D+03 -.149117875077950D+02
 0.233290073034796D+03 -.241668176414257D+02 -.212917295657190D+03 0.922304088232019D+02
 0.139841212344231D+03 -.800451943896009D+02 -.129256134151845D+02 0.683081891055271D+02
 0.222604355776051D+04 0.862254706256390D+02 0.372420959205932D+03 0.219297462785290D+04
0.208935625840D-05 0.000000000000D+00 0.000000000000D+00 0.304925358996D-07 0.000000000000D+00  7 -2 2 23 -13 13 23 21 0 0.12631368D-01 0.14900944D+00 0.50553448D+05 0.50553448D+05 0.50553448D+05 0.11468751D+01  1  2  2  2  7  2        2 0.292073662712D-03 0.100000000000D+01
-.108834678257D-06 0.000000000000D+00 -.802367817241D-08 0.304925358996D-07 0.000000000000D+00  7 -2 2 23 -13 13 23 21 2 0.12631368D-01 0.14900944D+00 0.50553448D+05 0.50553448D+05 0.50553448D+05 0.11468751D+01  1  2  3  2  7  2        2 -.200114911775D-04 0.100000000000D+01
0.130994485021D-06 0.000000000000D+00 0.000000000000D+00 0.304925358996D-07 0.000000000000D+00  7 -2 2 23 -13 13 23 21 2 0.12631368D-01 0.14900944D+00 0.50553448D+05 0.50553448D+05 0.50553448D+05 0.11468751D+01  1  2 15  2  7  2        2 0.240860268369D-04 0.100000000000D+01
  </mgrwgt>
  </event>
  <event>
  8     66 0.53686478E-06 0.21175002E+03 0.75467711E-02 0.87504198E-01
       -2 -1    0    0    0  501 0.00000000E+00 0.00000000E+00 0.15227003E+03 0.15227037E+03 0.32000000E+00 0.0000E+00 0.9000E+01
        2 -1    0    0  501    0 0.00000000E+00 0.00000000E+00 -.36810218E+03 0.36810232E+03 0.32000000E+00 0.0000E+00 0.9000E+01
       25  2    1    2    0    0 0.43007378E+02 -.95176175E+02 -.80263578E+02 0.32788791E+03 0.30026672E+03 0.0000E+00 0.0000E+00
       23  2    1    2    0    0 -.43007378E+02 0.95176175E+02 -.13556857E+03 0.19248478E+03 0.88110234E+02 0.0000E+00 0.0000E+00
       23  1    3    3    0    0 -.45664393E+02 0.55884134E+02 -.45052533E+01 0.11637793E+03 0.91188000E+02 0.0000E+00 0.9000E+01
      -13  1    4    4    0    0 -.21222949E+02 0.81017228E+02 -.38823905E+02 0.92312033E+02 0.10565837E+00 0.0000E+00 0.9000E+01
       13  1    4    4    0    0 -.21784429E+02 0.14158947E+02 -.96744666E+02 0.10017274E+03 0.10565837E+00 0.0000E+00 0.9000E+01
       23  1    3    3    0    0 0.88671771E+02 -.15106031E+03 -.75758324E+02 0.21150999E+03 0.91188000E+02 0.0000E+00 0.9000E+01
#aMCatNLO 1  0  0  2  1 0.93932736D+03 0.00000000D+00  -5  7  0 0.00000000D+00 0.00000000D+00 0.00000000D+00 0.00000000D+00 0.00000000D+00
  <mgrwgt>
 0.2421205156D-03    5    2    0
 0.236751041574240D+03 0.000000000000000D+00 0.000000000000000D+00 0.236751041574240D+03
 0.236751041574240D+03 0.000000000000000D+00 0.000000000000000D+00 -.236751041574240D+03
 0.125844252706301D+03 -.456643909201102D+02 0.558841286052534D+02 0.480962801798043D+02
 0.837530120132492D+02 -.212229526434057D+02 0.810173204079680D+02 -.589148792639179D+00
 0.659902848348716D+02 -.217844314209288D+02 0.141588681479971D+02 -.606603881707162D+02
 0.197914533594059D+03 0.886717749844446D+02 -.151060317161219D+03 0.131532567835511D+02
 0.000000000000000D+00 0.000000000000000D+00 0.000000000000000D+00 -.000000000000000D+00
 0.653664282097550D+03 0.000000000000000D+00 0.000000000000000D+00 0.653664282097550D+03
 0.225327809539178D+04 0.000000000000000D+00 0.000000000000000D+00 -.225327809539178D+04
 0.253269608774539D+03 -.196222813185139D+03 -.122529991444478D+03 0.480962801798043D+02
 0.903859216467948D+02 -.903791765924889D+02 -.933902620382014D+00 -.589148792639179D+00
 0.153007182231954D+03 -.108755435310971D+03 -.889031518668594D+02 -.606603881707162D+02
 0.555259386743401D+03 -.210438040452640D+03 -.505510195929911D+03 0.131532567835511D+02
 0.185502027809264D+04 0.605795465541238D+03 0.717877241861631D+03 -.159961381329423D+04
0.150089605624D-05 0.000000000000D+00 0.000000000000D+00 0.258055516716D-07 0.000000000000D+00  7 -2 2 23 -13 13 23 21 0 0.23426196D-01 0.56631142D-01 0.44838070D+05 0.44838070D+05 0.44838070D+05 0.11514813D+01  1  2  2  2  7  2        2 0.238683442027D-03 0.100000000000D+01
-.821203881465D-07 0.000000000000D+00 -.576383605098D-08 0.258055516716D-07 0.000000000000D+00  7 -2 2 23 -13 13 23 21 2 0.23426196D-01 0.56631142D-01 0.44838070D+05 0.44838070D+05 0.44838070D+05 0.11514813D+01  1  2  3  2  7  2        2 -.173155566480D-04 0.100000000000D+01
0.946654322336D-07 0.000000000000D+00 0.000000000000D+00 0.258055516716D-07 0.000000000000D+00  7 -2 2 23 -13 13 23 21 2 0.23426196D-01 0.56631142D-01 0.44838070D+05 0.44838070D+05 0.44838070D+05 0.11514813D+01  1  2 15  2  7  2        2 0.199607514218D-04 0.100000000000D+01
0.220278919804D-05 0.000000000000D+00 -.135116451416D-05 0.258055516716D-07 0.000000000000D+00  7 -2 2 23 -13 13 23 21 2 0.23426196D-01 0.69519875D+00 0.44838070D+05 0.44838070D+05 0.44838070D+05 0.11514813D+01  1  2  5  2  7  2        2 0.790255132535D-06 0.100000000000D+01
0.380621199892D-06 0.000000000000D+00 -.393154441880D-06 0.258055516716D-07 0.000000000000D+00  7 -2 21 23 -13 13 23 -2 2 0.23426196D-01 0.69519875D+00 0.44838070D+05 0.44838070D+05 0.44838070D+05 0.11514813D+01  1  2  5  4  7  2        2 0.162369350864D-08 0.100000000000D+01
  </mgrwgt>
  </event>
  <event>
  8     66 0.53686478E-06 0.87016550E+03 0.75467711E-02 0.88023066E-01
       -2 -1    0    0    0  501 0.00000000E+00 0.00000000E+00 0.35948093E+03 0.35948107E+03 0.32000000E+00 0.0000E+00 0.9000E+01
        2 -1    0    0  501    0 0.00000000E+00 0.00000000E+00 -.27784774E+04 0.27784774E+04 0.32000000E+00 0.0000E+00 0.9000E+01
       25  2    1    2    0    0 -.52388045E+02 0.84127791E+03 -.20027234E+04 0.21934628E+04 0.29980788E+03 0.0000E+00 0.0000E+00
       23  2    1    2    0    0 0.52388045E+02 -.84127791E+03 -.41627304E+03 0.94449571E+03 0.91081639E+02 0.0000E+00 0.0000E+00
       23  1    3    3    0    0 -.14067482E+03 0.40918167E+03 -.91726471E+03 0.10182872E+04 0.91188000E+02 0.0000E+00 0.9000E+01
      -11  1    4    4    0    0 0.77531173E+02 -.55207044E+03 -.27009671E+03 0.61947162E+03 0.51099893E-03 0.0000E+00 0.9000E+01
       11  1    4    4    0    0 -.25143129E+02 -.28920747E+03 -.14617633E+03 0.32502409E+03 0.51099893E-03 0.0000E+00 0.9000E+01
       23  1    3    3    0    0 0.88286776E+02 0.43209624E+03 -.10854587E+04 0.11751756E+04 0.91188000E+02 0.0000E+00 0.9000E+01
#aMCatNLO 1  0  0  1  1 0.12604665D+03 0.00000000D+00  -5  7  0 0.00000000D+00 0.00000000D+00 0.00000000D+00 0.00000000D+00 0.00000000D+00
  <mgrwgt>
 0.1404469312D-03    4    2    0
 0.999404763707607D+03 0.000000000000000D+00 0.000000000000000D+00 0.999404763707607D+03
 0.999404763707607D+03 0.000000000000000D+00 0.000000000000000D+00 -.999404763707607D+03
 0.488532240909864D+03 -.140674820333806D+03 0.409181672039424D+03 -.207676318475377D+03
 0.645640930015128D+03 0.775311732403555D+02 -.552070441946637D+03 0.325667552598685D+03
 0.333354459949909D+03 -.251431285156846D+02 -.289207473001319D+03 0.163865971504551D+03
 0.531281896540314D+03 0.882867756091348D+02 0.432096242908532D+03 -.281857205627860D+03
 0.000000000000000D+00 -.000000000000000D+00 -.000000000000000D+00 -.000000000000000D+00
 0.100837808884836D+04 0.000000000000000D+00 0.000000000000000D+00 0.100837808884836D+04
 0.156977251286552D+04 0.000000000000000D+00 0.000000000000000D+00 -.156977251286552D+04
 0.483339802939417D+03 -.110224894186871D+03 0.412338614742207D+03 -.207676318475377D+03
 0.648196368195159D+03 0.118068660068984D+03 -.547867655949218D+03 0.325667552598685D+03
 0.330558791251239D+03 -.434192367088155D+01 -.287050876248768D+03 0.163865971504551D+03
 0.540684926775989D+03 0.121872792213403D+03 0.435578324589872D+03 -.281857205627860D+03
 0.575370712552079D+03 -.125374634424635D+03 -.129984071340924D+02 -.561394424017154D+03
0.156418861865D-03 0.000000000000D+00 0.000000000000D+00 0.311376434117D-05 0.000000000000D+00  7 -2 2 23 -11 11 23 21 0 0.55304770D-01 0.42745808D+00 0.75718800D+06 0.75718800D+06 0.75718800D+06 0.10560009D+01  1  2  2  1  7  1       -2 0.141365692321D-03 0.100000000000D+01
-.848733188963D-05 0.000000000000D+00 -.600689615594D-06 0.311376434117D-05 0.000000000000D+00  7 -2 2 23 -11 11 23 21 2 0.55304770D-01 0.42745808D+00 0.75718800D+06 0.75718800D+06 0.75718800D+06 0.10560009D+01  1  2  3  1  7  1       -2 -.855371240554D-05 0.100000000000D+01
0.984841232683D-05 0.000000000000D+00 0.000000000000D+00 0.311376434117D-05 0.000000000000D+00  7 -2 2 23 -11 11 23 21 2 0.55304770D-01 0.42745808D+00 0.75718800D+06 0.75718800D+06 0.75718800D+06 0.10560009D+01  1  2 15  1  7  1       -2 0.992543802815D-05 0.100000000000D+01
-.227271159997D-05 0.000000000000D+00 0.000000000000D+00 0.311376434117D-05 0.000000000000D+00  7 -2 2 23 -11 11 23 21 2 0.55304770D-01 0.42745808D+00 0.75718800D+06 0.75718800D+06 0.75718800D+06 0.10560009D+01  1  2  4  1  7  1       -2 -.229048677013D-05 0.100000000000D+01
  </mgrwgt>
  </event>
  <event>
  9     66 0.53686478E-06 0.25253358E+03 0.75467711E-02 0.97534438E-01
       21 -1    0    0  502  501 0.00000000E+00 0.00000000E+00 0.19955716E+03 0.19955857E+03 0.75000000E+00 0.0000E+00 0.9000E+01
        2 -1    0    0  501    0 0.00000000E+00 0.00000000E+00 -.98453542E+03 0.98453548E+03 0.32000000E+00 0.0000E+00 0.9000E+01
       25  2    1    2    0    0 -.23026819E+01 0.31089349E+03 -.54164951E+03 0.69260970E+03 0.29943938E+03 0.0000E+00 0.0000E+00
       23  2    1    2    0    0 -.66608306E+02 -.95852938E+02 -.21925396E+03 0.26439216E+03 0.90589538E+02 0.0000E+00 0.0000E+00
       23  1    3    3    0    0 -.53784271E+02 0.33558009E+02 -.57883167E+02 0.12523817E+03 0.91188000E+02 0.0000E+00 0.9000E+01
      -11  1    4    4    0    0 -.84888178E+02 -.96081183E+02 -.17897035E+03 0.22015445E+03 0.51099893E-03 0.0000E+00 0.9000E+01
       11  1    4    4    0    0 0.18279872E+02 0.22824563E+00 -.40283603E+02 0.44237705E+02 0.51099893E-03 0.0000E+00 0.9000E+01
       23  1    3    3    0    0 0.51481589E+02 0.27733548E+03 -.48376634E+03 0.56737153E+03 0.91188000E+02 0.0000E+00 0.9000E+01
        2  1    1    2  502    0 0.68910988E+02 -.21504056E+03 -.24074796E+02 0.22709219E+03 0.32000000E+00 0.0000E+00 0.9000E+01
#aMCatNLO 2  0  0  1  2 0.22581223D+03 0.00000000D+00  -5  7  0 0.00000000D+00 0.00000000D+00 0.00000000D+00 0.00000000D+00 0.00000000D+00
  <mgrwgt>
 0.9121019841D-04    2    2    0
 0.267342155351616D+03 0.000000000000000D+00 0.000000000000000D+00 0.267342155351616D+03
 0.267342155351616D+03 0.000000000000000D+00 0.000000000000000D+00 -.267342155351616D+03
 0.121355725988765D+03 -.382130238229670D+02 -.150329305175773D+02 0.687439938948799D+02
 0.167053122363226D+03 -.666313924086249D+02 -.153052495495577D+03 -.647586747603205D+01
 0.241156026272463D+02 0.210141644517596D+02 -.830426487474472D+01 -.842652759799275D+01
 0.222159859723994D+03 0.838302517798323D+02 0.176389690887899D+03 -.538415988208551D+02
 0.000000000000000D+00 0.000000000000000D+00 -.000000000000000D+00 0.000000000000000D+00
 0.590651644825498D+03 0.000000000000000D+00 0.000000000000000D+00 0.590651644825498D+03
 0.332635799564053D+03 0.000000000000000D+00 0.000000000000000D+00 -.332635799564053D+03
 0.130613459633610D+03 -.537842710927567D+02 0.335580091760871D+02 0.687439938948799D+02
 0.128372635195064D+03 -.848881784892026D+02 -.960811831741424D+02 -.647586747603205D+01
 0.201298830166788D+02 0.182798721777589D+02 0.228245635738650D+00 -.842652759799275D+01
 0.301296355922612D+03 0.514815891899657D+02 0.277335484493303D+03 -.538415988208551D+02
 0.342875110621585D+03 0.689109882142347D+02 -.215040556130987D+03 0.258015845261445D+03
-.139593210688D-08 0.000000000000D+00 0.000000000000D+00 0.100486176351D-06 0.000000000000D+00  7 21 2 23 -11 11 23 2 2 0.30538683D-01 0.12173534D+00 0.15202531D+06 0.15202531D+06 0.15202531D+06 0.11070925D+01  1  2 13  3  7  1       -2 -.840448382160D-06 0.100000000000D+01
0.206509670816D-06 0.000000000000D+00 0.000000000000D+00 0.100486176351D-06 0.302842894515D-11  7 21 2 23 -11 11 23 2 2 0.30701208D-01 0.15146707D+00 0.15202531D+06 0.15202531D+06 0.15202531D+06 0.11070925D+01  1  2  1  3  7  1       -2 0.920506467912D-04 0.100000000000D+01
  </mgrwgt>
  </event>
  <event>
  8     66 0.53686478E-06 0.21574491E+03 0.75467711E-02 0.10011857E+00
       -2 -1    0    0    0  501 0.00000000E+00 0.00000000E+00 0.37126796E+02 0.37128175E+02 0.32000000E+00 0.0000E+00 0.9000E+01
        2 -1    0    0  501    0 0.00000000E+00 0.00000000E+00 -.15460634E+04 0.15460635E+04 0.32000000E+00 0.0000E+00 0.9000E+01
       25  2    1    2    0    0 -.16642751E+02 0.11540489E+03 -.87344502E+03 0.93062030E+03 0.29925352E+03 0.0000E+00 0.0000E+00
       23  2    1    2    0    0 0.16642751E+02 -.11540489E+03 -.63549162E+03 0.65257135E+03 0.91675999E+02 0.0000E+00 0.0000E+00
       23  1    3    3    0    0 -.10613257E+03 0.82585225E+02 -.28966969E+03 0.33212681E+03 0.91188000E+02 0.0000E+00 0.9000E+01
      -11  1    4    4    0    0 0.45153504E+02 -.64165253E+02 -.23359668E+03 0.24642124E+03 0.51099893E-03 0.0000E+00 0.9000E+01
       11  1    4    4    0    0 -.28510753E+02 -.51239641E+02 -.40189494E+03 0.40615011E+03 0.51099893E-03 0.0000E+00 0.9000E+01
       23  1    3    3    0    0 0.89489824E+02 0.32819669E+02 -.58377533E+03 0.59849348E+03 0.91188000E+02 0.0000E+00 0.9000E+01
#aMCatNLO 1  0  0  2  1 0.17525364D+03 0.00000000D+00  -5  7  0 0.00000000D+00 0.00000000D+00 0.00000000D+00 0.00000000D+00 0.00000000D+00
  <mgrwgt>
 0.3050814663D-03    3    2    0
 0.239586099507652D+03 0.000000000000000D+00 0.000000000000000D+00 0.239586099507652D+03
 0.239586099507652D+03 0.000000000000000D+00 0.000000000000000D+00 -.239586099507652D+03
 0.185167661071719D+03 -.106132574851954D+03 0.825852251329900D+02 0.888108580512461D+02
 0.785718762677105D+02 0.451535042185959D+02 -.641652534217407D+02 0.418581537259355D+01
 0.763388396748779D+02 -.285107531912100D+02 -.512396410503904D+02 -.488800018453740D+02
 0.139093822000997D+03 0.894898238245683D+02 0.328196693391411D+02 -.441166715784656D+02
 0.000000000000000D+00 -.000000000000000D+00 -.000000000000000D+00 0.000000000000000D+00
 0.451905309938891D+03 0.000000000000000D+00 0.000000000000000D+00 0.451905309938891D+03
 0.294124784046545D+03 0.000000000000000D+00 0.000000000000000D+00 -.294124784046545D+03
 0.175358393317211D+03 -.486348055191643D+02 0.110374824788573D+03 0.888108580512461D+02
 0.883189098953294D+02 0.717697440430237D+02 -.513011952566872D+02 0.418581537259355D+01
 0.637408824534830D+02 -.617042174196334D+01 -.404421983956272D+02 -.488800018453740D+02
 0.182797293057732D+03 0.140825977921091D+03 0.576312609322453D+02 -.441166715784656D+02
 0.235814615261680D+03 -.157790494702987D+03 -.762626920685043D+02 0.157780525892346D+03
0.135679541946D-05 0.000000000000D+00 0.000000000000D+00 0.521603867839D-07 0.000000000000D+00  7 -2 2 23 -11 11 23 21 0 0.57119233D-02 0.23785602D+00 0.46545867D+05 0.46545867D+05 0.46545867D+05 0.11500400D+01  1  2  2  2  7  2        2 0.300744197661D-03 0.100000000000D+01
-.743706394000D-07 0.000000000000D+00 -.521045166317D-08 0.521603867839D-07 0.000000000000D+00  7 -2 2 23 -11 11 23 21 2 0.57119233D-02 0.23785602D+00 0.46545867D+05 0.46545867D+05 0.46545867D+05 0.11500400D+01  1  2  3  2  7  2        2 -.218027020157D-04 0.100000000000D+01
0.891653856504D-07 0.000000000000D+00 0.000000000000D+00 0.521603867839D-07 0.000000000000D+00  7 -2 2 23 -11 11 23 21 2 0.57119233D-02 0.23785602D+00 0.46545867D+05 0.46545867D+05 0.46545867D+05 0.11500400D+01  1  2 15  2  7  2        2 0.261399706811D-04 0.100000000000D+01
  </mgrwgt>
  </event>
  <event>
  9     66 -.53686478E-06 0.70913851E+03 0.75467711E-02 0.90722085E-01
       -2 -1    0    0    0  502 0.00000000E+00 0.00000000E+00 0.16523774E+03 0.16523804E+03 0.32000000E+00 0.0000E+00 0.9000E+01
        2 -1    0    0  501    0 0.00000000E+00 0.00000000E+00 -.33067929E+04 0.33067929E+04 0.32000000E+00 0.0000E+00 0.9000E+01
       25  2    1    2    0    0 0.60807737E+03 0.34392741E+03 -.17708919E+04 0.19271281E+04 0.29953372E+03 0.0000E+00 0.0000E+00
       23  2    1    2    0    0 -.60794589E+03 -.33007237E+03 -.13307296E+04 0.15026271E+04 0.92200774E+02 0.0000E+00 0.0000E+00
       23  1    3    3    0    0 0.21467452E+03 0.11557728E+03 -.37759081E+03 0.45862111E+03 0.91188000E+02 0.0000E+00 0.9000E+01
      -13  1    4    4    0    0 -.59656012E+03 -.31290040E+03 -.13117612E+04 0.14746213E+04 0.10565837E+00 0.0000E+00 0.9000E+01
       13  1    4    4    0    0 -.11385772E+02 -.17171967E+02 -.18968445E+02 0.28005809E+02 0.10565837E+00 0.0000E+00 0.9000E+01
       23  1    3    3    0    0 0.39340285E+03 0.22835013E+03 -.13933011E+04 0.14685070E+04 0.91188000E+02 0.0000E+00 0.9000E+01
       21  1    1    2  501  502 -.13148322E+00 -.13855039E+02 -.39933588E+02 0.42275682E+02 0.75000000E+00 0.0000E+00 0.9000E+01
#aMCatNLO 2  0  0  1  2 0.13855663D+02 0.00000000D+00  -5  7  0 0.00000000D+00 0.00000000D+00 0.00000000D+00 0.00000000D+00 0.00000000D+00
  <mgrwgt>
 -.8434061414D-04    3    2    0
 0.731944819842978D+03 0.000000000000000D+00 0.000000000000000D+00 0.731944819842978D+03
 0.731944819842978D+03 0.000000000000000D+00 0.000000000000000D+00 -.731944819842978D+03
 0.273370903538677D+03 0.214649917237005D+03 0.112984795097059D+03 0.870416490226101D+02
 0.678615647270792D+03 -.596621699440626D+03 -.319309017351027D+03 0.510244638938689D+02
 0.255881934747363D+02 -.113872939092130D+02 -.174129743123407D+02 0.148954190381977D+02
 0.486314895401750D+03 0.393359076112834D+03 0.223737196566309D+03 -.152961531954677D+03
 0.000000000000000D+00 -.000000000000000D+00 -.000000000000000D+00 -.000000000000000D+00
 0.737192457873985D+03 0.000000000000000D+00 0.000000000000000D+00 0.737192457873985D+03
 0.741181095715298D+03 0.000000000000000D+00 0.000000000000000D+00 -.741181095715298D+03
 0.274471776573967D+03 0.214674519674263D+03 0.115577276009251D+03 0.870416490226101D+02
 0.675570344095054D+03 -.596560885858372D+03 -.312900788380163D+03 0.510244638938689D+02
 0.254235110748752D+02 -.113850030832036D+02 -.171715786067048D+02 0.148954190381977D+02
 0.488489578152531D+03 0.393402852486546D+03 0.228350130320009D+03 -.152961531954677D+03
 0.144183436928558D+02 -.131483219233042D+00 -.138550393423915D+02 -.398863784131343D+01
-.315636963708D-04 0.000000000000D+00 0.000000000000D+00 0.146924476841D-05 0.000000000000D+00  7 -2 2 23 -13 13 23 21 2 0.25578570D-01 0.50239110D+00 0.51289035D+06 0.51289035D+06 0.51289035D+06 0.10677300D+01  1  2 13  1  7  1       -2 -.692083702761D-04 0.100000000000D+01
-.306815289678D-03 0.000000000000D+00 0.000000000000D+00 0.146924476841D-05 0.000000000000D+00  7 -2 2 23 -13 13 23 21 2 0.25239923D-01 0.50239110D+00 0.50287742D+06 0.50287742D+06 0.50287742D+06 0.10683343D+01  1  2  8  1  7  1       -2 -.690200665199D-03 0.100000000000D+01
0.324832443513D-03 0.000000000000D+00 0.000000000000D+00 0.146924476841D-05 0.465378481155D-07  7 -2 2 23 -13 13 23 21 2 0.25420880D-01 0.50873068D+00 0.51289035D+06 0.51289035D+06 0.51289035D+06 0.10677300D+01  1  2  1  1  7  1       -2 0.675068421338D-03 0.100000000000D+01
  </mgrwgt>
  </event>
  <event>
  8     66 0.53686478E-06 0.29577528E+03 0.75467711E-02 0.93014790E-01
       -2 -1    0    0    0  501 0.00000000E+00 0.00000000E+00 0.58641957E+03 0.58641965E+03 0.32000000E+00 0.0000E+00 0.9000E+01
        2 -1    0    0  501    0 0.00000000E+00 0.00000000E+00 -.21937572E+03 0.21937595E+03 0.32000000E+00 0.0000E+00 0.9000E+01
       25  2    1    2    0    0 -.22543148E+03 0.60260113E+02 0.39207482E+02 0.39342008E+03 0.31431115E+03 0.0000E+00 0.0000E+00
       23  2    1    2    0    0 0.22543148E+03 -.60260113E+02 0.32783637E+03 0.41237552E+03 0.90145723E+02 0.0000E+00 0.0000E+00
       23  1    3    3    0    0 -.28000172E+02 -.54237513E+02 -.63804132E+02 0.12693280E+03 0.91188000E+02 0.0000E+00 0.9000E+01
      -13  1    4    4    0    0 0.13076316E+03 -.53015873E+02 0.12536772E+03 0.18875053E+03 0.10565837E+00 0.0000E+00 0.9000E+01
       13  1    4    4    0    0 0.94668315E+02 -.72442401E+01 0.20246865E+03 0.22362499E+03 0.10565837E+00 0.0000E+00 0.9000E+01
       23  1    3    3    0    0 -.19743131E+03 0.11449763E+03 0.10301161E+03 0.26648728E+03 0.91188000E+02 0.0000E+00 0.9000E+01
#aMCatNLO 1  0  0  1  2 0.42189664D+03 0.00000000D+00  -5  7  0 0.00000000D+00 0.00000000D+00 0.00000000D+00 0.00000000D+00 0.00000000D+00
  <mgrwgt>
 0.2084790502D-03    5    2    0
 0.358673028780450D+03 0.000000000000000D+00 0.000000000000000D+00 0.358673028780450D+03
 0.358673028780450D+03 0.000000000000000D+00 0.000000000000000D+00 -.358673028780450D+03
 0.175230281835322D+03 -.280003464076599D+02 -.542373620847900D+02 -.136618774270672D+03
 0.147876962233084D+03 0.130763279086415D+03 -.530159530727510D+02 0.442478193998442D+02
 0.147601302080978D+03 0.946683302449730D+02 -.724419456174123D+01 0.113011385575881D+03
 0.246637511411515D+03 -.197431262923728D+03 0.114497509719282D+03 -.206404307050532D+02
 0.000000000000000D+00 -.000000000000000D+00 -.000000000000000D+00 0.000000000000000D+00
 0.692430903676496D+03 0.000000000000000D+00 0.000000000000000D+00 0.692430903676496D+03
 0.577147921383246D+03 0.000000000000000D+00 0.000000000000000D+00 -.577147921383246D+03
 0.179986074886143D+03 0.661691341023707D+02 -.321977020584028D+02 -.136618774270672D+03
 0.239334012436026D+03 0.233414679120239D+03 -.289911634516893D+02 0.442478193998442D+02
 0.224478704847764D+03 0.193308441539518D+03 0.158417830407922D+02 0.113011385575881D+03
 0.188416408501983D+03 -.820964793280744D+02 0.141490750054662D+03 -.206404307050532D+02
 0.437363624387826D+03 -.410795775434053D+03 -.961436675853624D+02 0.115282982293250D+03
0.978234267378D-05 0.000000000000D+00 0.000000000000D+00 0.807766561799D-09 0.000000000000D+00  7 -2 2 23 -13 13 23 21 0 0.90218420D-01 0.33750135D-01 0.87483018D+05 0.87483018D+05 0.87483018D+05 0.11265193D+01  1  2  2  1  7  1       -2 0.200928606033D-03 0.100000000000D+01
-.518898502984D-06 0.000000000000D+00 -.375667716173D-07 0.807766561799D-09 0.000000000000D+00  7 -2 2 23 -13 13 23 21 2 0.90218420D-01 0.33750135D-01 0.87483018D+05 0.87483018D+05 0.87483018D+05 0.11265193D+01  1  2  3  1  7  1       -2 -.135256627887D-04 0.100000000000D+01
0.638680673228D-06 0.000000000000D+00 0.000000000000D+00 0.807766561799D-09 0.000000000000D+00  7 -2 2 23 -13 13 23 21 2 0.90218420D-01 0.33750135D-01 0.87483018D+05 0.87483018D+05 0.87483018D+05 0.11265193D+01  1  2 15  1  7  1       -2 0.166479173982D-04 0.100000000000D+01
0.671696295309D-06 0.000000000000D+00 -.279137011013D-05 0.807766561799D-09 0.000000000000D+00  7 -2 2 23 -13 13 23 21 2 0.24001867D+00 0.33750135D-01 0.87483018D+05 0.87483018D+05 0.87483018D+05 0.11265193D+01  1  2  5  1  7  1       -2 0.116579017108D-05 0.100000000000D+01
0.237988521785D-06 0.000000000000D+00 -.303851633771D-06 0.807766561799D-09 0.000000000000D+00  7 21 2 23 -13 13 23 2 2 0.24001867D+00 0.33750135D-01 0.87483018D+05 0.87483018D+05 0.87483018D+05 0.11265193D+01  1  2  5  3  7  1       -2 0.326239939644D-05 0.100000000000D+01
  </mgrwgt>
  </event>
  <event>
  8     66 0.53686478E-06 0.22833544E+03 0.75467711E-02 0.10230720E+00
       -2 -1    0    0    0  501 0.00000000E+00 0.00000000E+00 0.44867228E+03 0.44867240E+03 0.32000000E+00 0.0000E+00 0.9000E+01
        2 -1    0    0  501    0 0.00000000E+00 0.00000000E+00 -.57910517E+03 0.57910526E+03 0.32000000E+00 0.0000E+00 0.9000E+01
       25  2    1    2    0    0 -.12465259E+03 -.64864549E+02 0.37199217E+03 0.49816061E+03 0.30006690E+03 0.0000E+00 0.0000E+00
       23  2    1    2    0    0 0.12465259E+03 0.64864549E+02 -.50242505E+03 0.52961705E+03 0.91200905E+02 0.0000E+00 0.0000E+00
       23  1    3    3    0    0 -.55010218E+02 0.63448126E+02 0.51233925E+02 0.13413409E+03 0.91188000E+02 0.0000E+00 0.9000E+01
      -11  1    4    4    0    0 -.68814584E+00 0.30637188E+02 -.47718237E+02 0.56711030E+02 0.51099893E-03 0.0000E+00 0.9000E+01
       11  1    4    4    0    0 0.12534073E+03 0.34227361E+02 -.45470682E+03 0.47290602E+03 0.51099893E-03 0.0000E+00 0.9000E+01
       23  1    3    3    0    0 -.69642368E+02 -.12831267E+03 0.32075824E+03 0.36402652E+03 0.91188000E+02 0.0000E+00 0.9000E+01
#aMCatNLO 1  0  0  2  2 0.81631064D+02 0.00000000D+00  -5  7  0 0.00000000D+00 0.00000000D+00 0.00000000D+00 0.00000000D+00 0.00000000D+00
  <mgrwgt>
 0.3846333487D-03    4    2    0
 0.509733795885557D+03 0.000000000000000D+00 0.000000000000000D+00 0.509733795885557D+03
 0.509733795885557D+03 0.000000000000000D+00 0.000000000000000D+00 -.509733795885557D+03
 0.141782450309467D+03 -.550102178804120D+02 0.634481255505986D+02 0.688129578249734D+02
 0.510681291653912D+02 -.688145842346778D+00 0.306371882529100D+02 -.408514744863449D+02
 0.418584678490315D+03 0.125340732098197D+03 0.342273609209135D+02 -.397908685138083D+03
 0.408032333805940D+03 -.696423683754380D+02 -.128312674724422D+03 0.369947201799455D+03
 0.000000000000000D+00 0.000000000000000D+00 -.000000000000000D+00 0.000000000000000D+00
 0.727492069360455D+03 0.000000000000000D+00 0.000000000000000D+00 0.727492069360455D+03
 0.519073291562658D+03 0.000000000000000D+00 0.000000000000000D+00 -.519073291562658D+03
 0.148675661788338D+03 -.597685482796540D+02 0.740384936105636D+02 0.688129578249734D+02
 0.534918586787049D+02 -.240106398090234D+01 0.344495409106370D+02 -.408514744863449D+02
 0.418311066717574D+03 0.111630574593358D+03 0.647413441784574D+02 -.397908685138083D+03
 0.402251974210914D+03 -.829165731377656D+02 -.987689687726910D+02 0.369947201799455D+03
 0.223834799527582D+03 0.334556108049638D+02 -.744604099269670D+02 0.208418777797797D+03
0.299636904024D-04 0.000000000000D+00 0.000000000000D+00 0.349873666708D-05 0.000000000000D+00  7 -2 2 23 -11 11 23 21 0 0.69026521D-01 0.89093118D-01 0.52137075D+05 0.52137075D+05 0.52137075D+05 0.11457000D+01  1  2  2  2  7  2        2 0.387313692266D-03 0.100000000000D+01
-.359337976396D-06 0.000000000000D+00 -.115068460766D-06 0.349873666708D-05 0.000000000000D+00  7 -2 2 23 -11 11 23 21 2 0.69026521D-01 0.89093118D-01 0.52137075D+05 0.52137075D+05 0.52137075D+05 0.11457000D+01  1  2  3  2  7  2        2 -.609694805856D-05 0.100000000000D+01
0.178168786797D-05 0.000000000000D+00 0.000000000000D+00 0.349873666708D-05 0.000000000000D+00  7 -2 2 23 -11 11 23 21 2 0.69026521D-01 0.89093118D-01 0.52137075D+05 0.52137075D+05 0.52137075D+05 0.11457000D+01  1  2 15  2  7  2        2 0.302301985906D-04 0.100000000000D+01
-.158032224221D-05 0.000000000000D+00 0.000000000000D+00 0.349873666708D-05 0.000000000000D+00  7 -2 2 23 -11 11 23 21 2 0.69026521D-01 0.89093118D-01 0.52137075D+05 0.52137075D+05 0.52137075D+05 0.11457000D+01  1  2  4  2  7  2        2 -.268135940520D-04 0.100000000000D+01
  </mgrwgt>
  </event>
  <event>
  8     66 0.53686478E-06 0.52832874E+03 0.75467711E-02 0.89231499E-01
       -2 -1    0    0    0  501 0.00000000E+00 0.00000000E+00 0.90988882E+03 0.90988888E+03 0.32000000E+00 0.0000E+00 0.9000E+01
        2 -1    0    0  501    0 0.00000000E+00 0.00000000E+00 -.20645340E+04 0.20645340E+04 0.32000000E+00 0.0000E+00 0.9000E+01
       25  2    1    2    0    0 -.69510184E+03 0.13030292E+03 -.18345839E+04 0.19889902E+04 0.30039732E+03 0.0000E+00 0.0000E+00
       23  2    1    2    0    0 0.69510184E+03 -.13030292E+03 0.67993879E+03 0.98543263E+03 0.92818631E+02 0.0000E+00 0.0000E+00
       23  1    3    3    0    0 -.16548029E+03 0.11943323E+03 -.67095218E+03 0.70720584E+03 0.91188000E+02 0.0000E+00 0.9000E+01
      -13  1    4    4    0    0 0.13230017E+03 0.72810174E+01 0.15143783E+03 0.20122071E+03 0.10565837E+00 0.0000E+00 0.9000E+01
       13  1    4    4    0    0 0.56280167E+03 -.13758393E+03 0.52850096E+03 0.78421192E+03 0.10565837E+00 0.0000E+00 0.9000E+01
       23  1    3    3    0    0 -.52962155E+03 0.10869684E+02 -.11636318E+04 0.12817844E+04 0.91188000E+02 0.0000E+00 0.9000E+01
#aMCatNLO 1  0  0  2  1 0.17709197D+03 0.00000000D+00  -5  7  0 0.00000000D+00 0.00000000D+00 0.00000000D+00 0.00000000D+00 0.00000000D+00
  <mgrwgt>
 0.2645123767D-03    9    2    0
 0.137058254111828D+04 0.000000000000000D+00 0.000000000000000D+00 0.137058254111828D+04
 0.137058254111828D+04 0.000000000000000D+00 0.000000000000000D+00 -.137058254111828D+04
 0.484763781209630D+03 -.165480287509407D+03 0.119433231108398D+03 -.430154216510160D+03
 0.282131723156160D+03 0.132299612200855D+03 0.728120514743896D+01 0.249082528239474D+03
 0.107356239442151D+04 0.562802228538131D+03 -.137584120738627D+03 0.903803339222164D+03
 0.900707183449269D+03 -.529621553229579D+03 0.108696844827904D+02 -.722731650951478D+03
 0.000000000000000D+00 0.000000000000000D+00 0.000000000000000D+00 -.000000000000000D+00
 0.139534014871607D+04 0.000000000000000D+00 0.000000000000000D+00 0.139534014871607D+04
 0.173144292260338D+04 0.000000000000000D+00 0.000000000000000D+00 -.173144292260338D+04
 0.480686647191309D+03 -.172552152313696D+03 0.890926831701875D+02 -.430154216510160D+03
 0.280321571860427D+03 0.128179676527231D+03 -.103946284929478D+02 0.249082528239474D+03
 0.107620341684251D+04 0.547055326645587D+03 -.205143335312299D+03 0.903803339222164D+03
 0.909667971154956D+03 -.542882439507926D+03 -.460237328782550D+02 -.722731650951478D+03
 0.379903464270243D+03 0.401995886488039D+02 0.172469013513314D+03 -.336102773887308D+03
0.858311740827D-03 0.000000000000D+00 0.000000000000D+00 0.376166199313D-05 0.000000000000D+00  7 -2 2 23 -13 13 23 21 0 0.13998290D+00 0.31762062D+00 0.54237635D+06 0.54237635D+06 0.54237635D+06 0.10660223D+01  1  2  2  2  7  2        2 0.233228422374D-03 0.100000000000D+01
-.253161551877D-04 0.000000000000D+00 -.329614308345D-05 0.376166199313D-05 0.000000000000D+00  7 -2 2 23 -13 13 23 21 2 0.13998290D+00 0.31762062D+00 0.54237635D+06 0.54237635D+06 0.54237635D+06 0.10660223D+01  1  2  3  2  7  2        2 -.781747996734D-05 0.100000000000D+01
0.510913008618D-04 0.000000000000D+00 0.000000000000D+00 0.376166199313D-05 0.000000000000D+00  7 -2 2 23 -13 13 23 21 2 0.13998290D+00 0.31762062D+00 0.54237635D+06 0.54237635D+06 0.54237635D+06 0.10660223D+01  1  2 15  2  7  2        2 0.157766934999D-04 0.100000000000D+01
0.283508381713D-02 0.000000000000D+00 0.000000000000D+00 0.376166199313D-05 0.000000000000D+00  7 -2 2 23 -13 13 23 21 2 0.13998290D+00 0.40359261D+00 0.68632455D+06 0.68632455D+06 0.68632455D+06 0.10589221D+01  1  2 12  2  7  2        2 0.404677084059D-03 0.100000000000D+01
-.292158241600D-02 0.000000000000D+00 0.000000000000D+00 0.376166199313D-05 0.000000000000D+00  7 -2 2 23 -13 13 23 21 2 0.13998290D+00 0.31762062D+00 0.54237635D+06 0.54237635D+06 0.54237635D+06 0.10660223D+01  1  2  4  2  7  2        2 -.902167483201D-03 0.100000000000D+01
-.321237416708D-02 0.000000000000D+00 -.402386163932D-03 0.376166199313D-05 0.000000000000D+00  7 -2 2 23 -13 13 23 21 2 0.13998290D+00 0.40328050D+00 0.54237635D+06 0.54237635D+06 0.54237635D+06 0.10660223D+01  1  2  5  2  7  2        2 -.475578087897D-03 0.100000000000D+01
0.322722284683D-02 0.000000000000D+00 0.391181786948D-03 0.376166199313D-05 0.000000000000D+00  7 -2 2 23 -13 13 23 21 2 0.13998290D+00 0.31762062D+00 0.54237635D+06 0.54237635D+06 0.54237635D+06 0.10660223D+01  1  2  6  2  7  2        2 0.996547452333D-03 0.100000000000D+01
0.929630036565D-04 0.000000000000D+00 0.000000000000D+00 0.376166199313D-05 0.000000000000D+00  7 -2 21 23 -13 13 23 -2 2 0.13998290D+00 0.40359261D+00 0.68632455D+06 0.68632455D+06 0.68632455D+06 0.10589221D+01  1  2 12  4  7  2        2 0.129858877575D-05 0.100000000000D+01
-.988297734388D-04 0.000000000000D+00 -.131626605709D-04 0.376166199313D-05 0.000000000000D+00  7 -2 21 23 -13 13 23 -2 2 0.13998290D+00 0.40328050D+00 0.54237635D+06 0.54237635D+06 0.54237635D+06 0.10660223D+01  1  2  5  4  7  2        2 -.145281328942D-05 0.100000000000D+01
  </mgrwgt>
  </event>
  <event>
  8     66 0.53686478E-06 0.76263671E+03 0.75467711E-02 0.88589231E-01
       -2 -1    0    0    0  501 0.00000000E+00 0.00000000E+00 0.15684583E+04 0.15684583E+04 0.32000000E+00 0.0000E+00 0.9000E+01
        2 -1    0    0  501    0 0.00000000E+00 0.00000000E+00 -.40934935E+03 0.40934948E+03 0.32000000E+00 0.0000E+00 0.9000E+01
       25  2    1    2    0    0 0.40653683E+03 -.62633281E+03 0.83255681E+03 0.11578544E+04 0.29985143E+03 0.0000E+00 0.0000E+00
       23  2    1    2    0    0 -.40653683E+03 0.62633281E+03 0.32655210E+03 0.81995342E+03 0.90124101E+02 0.0000E+00 0.0000E+00
       23  1    3    3    0    0 0.27657942E+03 -.35581833E+03 0.33196780E+03 0.56711616E+03 0.91188000E+02 0.0000E+00 0.9000E+01
      -11  1    4    4    0    0 -.37713173E+03 0.61254910E+03 0.31712018E+03 0.78613609E+03 0.51099893E-03 0.0000E+00 0.9000E+01
       11  1    4    4    0    0 -.29405103E+02 0.13783704E+02 0.94319234E+01 0.33817329E+02 0.51099893E-03 0.0000E+00 0.9000E+01
       23  1    3    3    0    0 0.12995741E+03 -.27051447E+03 0.50058901E+03 0.59073820E+03 0.91188000E+02 0.0000E+00 0.9000E+01
#aMCatNLO 1  0  0  2  1 0.22332842D+03 0.00000000D+00  -5  7  0 0.00000000D+00 0.00000000D+00 0.00000000D+00 0.00000000D+00 0.00000000D+00
  <mgrwgt>
 0.1321670367D-03    4    2    0
 0.801278682519502D+03 0.000000000000000D+00 0.000000000000000D+00 0.801278682519502D+03
 0.801278682519502D+03 0.000000000000000D+00 0.000000000000000D+00 -.801278682519502D+03
 0.459802514931847D+03 0.276579422635818D+03 -.355818334158624D+03 -.487282947092197D+00
 0.740846640912966D+03 -.377131726283752D+03 0.612549103595140D+03 -.177225850448103D+03
 0.349139135050281D+02 -.294051025282702D+02 0.137837039565386D+02 -.128191578029525D+02
 0.366994295689163D+03 0.129957406176205D+03 -.270514473393055D+03 0.190532291198148D+03
 0.000000000000000D+00 0.000000000000000D+00 0.000000000000000D+00 0.000000000000000D+00
 0.937283812906810D+03 0.000000000000000D+00 0.000000000000000D+00 0.937283812906810D+03
 0.906236212606794D+03 0.000000000000000D+00 0.000000000000000D+00 -.906236212606794D+03
 0.482684617055356D+03 0.239028765959406D+03 -.409309418163238D+03 -.487282947092197D+00
 0.708335794701370D+03 -.434870182602517D+03 0.530300405686646D+03 -.177225850448103D+03
 0.360335946891501D+02 -.322317995003862D+02 0.975706105401840D+01 -.128191578029525D+02
 0.390989778449810D+03 0.997577368457937D+02 -.313534041945083D+03 0.190532291198148D+03
 0.225476240617919D+03 0.128315479297703D+03 0.182785993367657D+03 0.310476003000159D+02
0.431011030036D-03 0.000000000000D+00 0.000000000000D+00 0.236279033728D-05 0.000000000000D+00  7 -2 2 23 -11 11 23 21 0 0.24130128D+00 0.62976835D-01 0.58161476D+06 0.58161476D+06 0.58161476D+06 0.10639002D+01  1  2  2  2  7  2        2 0.263974176552D-03 0.100000000000D+01
-.238739315851D-04 0.000000000000D+00 -.165519584315D-05 0.236279033728D-05 0.000000000000D+00  7 -2 2 23 -11 11 23 21 2 0.24130128D+00 0.62976835D-01 0.58161476D+06 0.58161476D+06 0.58161476D+06 0.10639002D+01  1  2  3  2  7  2        2 -.165500311000D-04 0.100000000000D+01
0.270649636105D-04 0.000000000000D+00 0.000000000000D+00 0.236279033728D-05 0.000000000000D+00  7 -2 2 23 -11 11 23 21 2 0.24130128D+00 0.62976835D-01 0.58161476D+06 0.58161476D+06 0.58161476D+06 0.10639002D+01  1  2 15  2  7  2        2 0.187621376009D-04 0.100000000000D+01
-.193326906653D-03 0.000000000000D+00 0.000000000000D+00 0.236279033728D-05 0.000000000000D+00  7 -2 2 23 -11 11 23 21 2 0.24130128D+00 0.62976835D-01 0.58161476D+06 0.58161476D+06 0.58161476D+06 0.10639002D+01  1  2  4  2  7  2        2 -.134019246313D-03 0.100000000000D+01
  </mgrwgt>
  </event>
  <event>
  8     66 0.53686478E-06 0.22534019E+03 0.75467711E-02 0.95728483E-01
       -2 -1    0    0    0  501 0.00000000E+00 0.00000000E+00 0.57499929E+02 0.57500820E+02 0.32000000E+00 0.0000E+00 0.9000E+01
        2 -1    0    0  501    0 0.00000000E+00 0.00000000E+00 -.23308870E+04 0.23308870E+04 0.32000000E+00 0.0000E+00 0.9000E+01
       25  2    1    2    0    0 -.13590628E+03 0.47800792E+02 -.46334993E+03 0.57014729E+03 0.29936490E+03 0.0000E+00 0.0000E+00
       23  2    1    2    0    0 0.13590628E+03 -.47800792E+02 -.18100371E+04 0.18182406E+04 0.94914785E+02 0.0000E+00 0.0000E+00
       23  1    3    3    0    0 0.11020201E+02 -.53041676E+02 -.65190737E+02 0.12449879E+03 0.91188000E+02 0.0000E+00 0.9000E+01
      -11  1    4    4    0    0 0.61541984E+02 -.27084917E+02 -.13576721E+04 0.13593361E+04 0.51099893E-03 0.0000E+00 0.9000E+01
       11  1    4    4    0    0 0.74364300E+02 -.20715875E+02 -.45236506E+03 0.45890450E+03 0.51099893E-03 0.0000E+00 0.9000E+01
       23  1    3    3    0    0 -.14692649E+03 0.10084247E+03 -.39815919E+03 0.44564850E+03 0.91188000E+02 0.0000E+00 0.9000E+01
#aMCatNLO 1  0  0  2  2 0.32305589D+03 0.00000000D+00  -5  7  0 0.00000000D+00 0.00000000D+00 0.00000000D+00 0.00000000D+00 0.00000000D+00
  <mgrwgt>
 0.2678557454D-03    3    2    0
 0.366096882077520D+03 0.000000000000000D+00 0.000000000000000D+00 0.366096882077520D+03
 0.366096882077520D+03 0.000000000000000D+00 0.000000000000000D+00 -.366096882077520D+03
 0.203699642558579D+03 0.110202007984275D+02 -.530416755150459D+02 0.173906379605269D+03
 0.218668254225586D+03 0.615419842773455D+02 -.270849165471467D+02 -.208074017774701D+03
 0.923813652942816D+02 0.743643001372390D+02 -.207158750354191D+02 -.507456406034155D+02
 0.217444502076594D+03 -.146926485213012D+03 0.100842467097612D+03 0.849132787728482D+02
 0.000000000000000D+00 0.000000000000000D+00 0.000000000000000D+00 0.000000000000000D+00
 0.859394929499119D+03 0.000000000000000D+00 0.000000000000000D+00 0.859394929499119D+03
 0.456960873552620D+03 0.000000000000000D+00 0.000000000000000D+00 -.456960873552620D+03
 0.245978677453627D+03 0.969933109265491D+01 -.147826765258456D+03 0.173906379605269D+03
 0.250577486304028D+03 0.601636379002918D+02 -.125994509579350D+03 -.208074017774701D+03
 0.109655909721211D+03 0.737708427608692D+02 -.633021425773759D+02 -.507456406034155D+02
 0.194083383959534D+03 -.148135293139823D+03 0.140988864669259D+02 0.849132787728482D+02
 0.516060345613340D+03 0.450148138600701D+01 0.323024530948256D+03 0.402434055946499D+03
0.592056218455D-05 0.000000000000D+00 0.000000000000D+00 0.394097086936D-07 0.000000000000D+00  7 -2 2 23 -11 11 23 21 0 0.88462131D-02 0.35859807D+00 0.50778200D+05 0.50778200D+05 0.50778200D+05 0.11467059D+01  1  2  2  2  7  2        2 0.260263899076D-03 0.100000000000D+01
-.234737907668D-06 0.000000000000D+00 -.227365177085D-07 0.394097086936D-07 0.000000000000D+00  7 -2 2 23 -11 11 23 21 2 0.88462131D-02 0.35859807D+00 0.50778200D+05 0.50778200D+05 0.50778200D+05 0.11467059D+01  1  2  3  2  7  2        2 -.135687017450D-04 0.100000000000D+01
0.366076494992D-06 0.000000000000D+00 0.000000000000D+00 0.394097086936D-07 0.000000000000D+00  7 -2 2 23 -11 11 23 21 2 0.88462131D-02 0.35859807D+00 0.50778200D+05 0.50778200D+05 0.50778200D+05 0.11467059D+01  1  2 15  2  7  2        2 0.211605480587D-04 0.100000000000D+01
  </mgrwgt>
  </event>
  <event>
  8     66 0.53686478E-06 0.13377850E+03 0.75467711E-02 0.10346348E+00
       -2 -1    0    0    0  501 0.00000000E+00 0.00000000E+00 0.12016798E+03 0.12016841E+03 0.32000000E+00 0.0000E+00 0.9000E+01
        2 -1    0    0  501    0 0.00000000E+00 0.00000000E+00 -.19123498E+04 0.19123498E+04 0.32000000E+00 0.0000E+00 0.9000E+01
       25  2    1    2    0    0 -.77084529E+02 -.18791397E+03 -.17737567E+04 0.18103497E+04 0.29983268E+03 0.0000E+00 0.0000E+00
       23  2    1    2    0    0 0.77084529E+02 0.18791397E+03 -.18425113E+02 0.22216850E+03 0.88123041E+02 0.0000E+00 0.0000E+00
       23  1    3    3    0    0 -.10756209E+02 -.47431698E+02 -.12901461E+04 0.12942789E+04 0.91188000E+02 0.0000E+00 0.9000E+01
      -13  1    4    4    0    0 0.75893879E+02 0.17968299E+03 -.39941089E+02 0.19910088E+03 0.10565837E+00 0.0000E+00 0.9000E+01
       13  1    4    4    0    0 0.11906505E+01 0.82309845E+01 0.21515976E+02 0.23067621E+02 0.10565837E+00 0.0000E+00 0.9000E+01
       23  1    3    3    0    0 -.66328320E+02 -.14048227E+03 -.48361055E+03 0.51607086E+03 0.91188000E+02 0.0000E+00 0.9000E+01
#aMCatNLO 1  0  0  2  1 0.40267356D+01 0.00000000D+00  -5  7  0 0.00000000D+00 0.00000000D+00 0.00000000D+00 0.00000000D+00 0.00000000D+00
  <mgrwgt>
 0.5413031933D-03   11    2    0
 0.479378423190534D+03 0.000000000000000D+00 0.000000000000000D+00 0.479378423190534D+03
 0.479378423190534D+03 0.000000000000000D+00 0.000000000000000D+00 -.479378423190534D+03
 0.332168613717164D+03 -.107562091454215D+02 -.474316981952327D+02 -.315682236696839D+03
 0.347423668537923D+03 0.758939859485675D+02 0.179683234351913D+03 0.287501728081802D+03
 0.891211816449804D+02 0.119054315804706D+01 0.823073810001392D+01 0.887323085190247D+02
 0.190043382481001D+03 -.663283199611931D+02 -.140482274256695D+03 -.605517999039878D+02
 0.000000000000000D+00 -.000000000000000D+00 0.000000000000000D+00 -.000000000000000D+00
 0.480061329768814D+03 0.000000000000000D+00 0.000000000000000D+00 0.480061329768814D+03
 0.485355508077447D+03 0.000000000000000D+00 0.000000000000000D+00 -.485355508077447D+03
 0.332217762106737D+03 -.950066845248602D+01 -.480401170715216D+02 -.315682236696839D+03
 0.347384483989244D+03 0.772070169513471D+02 0.179046956410674D+03 0.287501728081802D+03
 0.891113925724338D+02 0.152736260209284D+01 0.806751972819081D+01 0.887323085190247D+02
 0.190051663729636D+03 -.656100258855375D+02 -.140830350330066D+03 -.605517999039878D+02
 0.665153544820989D+01 -.362368521541644D+01 0.175599126272334D+01 -.529417830863340D+01
0.755728067316D-05 0.000000000000D+00 0.000000000000D+00 0.279445630386D-06 0.000000000000D+00  7 -2 2 23 -13 13 23 21 0 0.18487417D-01 0.29420769D+00 0.59257293D+05 0.59257293D+05 0.59257293D+05 0.11408624D+01  1  2  2  2  7  2        2 0.175094179344D-03 0.100000000000D+01
-.185421283971D-06 0.000000000000D+00 -.290219476626D-07 0.279445630386D-06 0.000000000000D+00  7 -2 2 23 -13 13 23 21 2 0.18487417D-01 0.29420769D+00 0.59257293D+05 0.59257293D+05 0.59257293D+05 0.11408624D+01  1  2  3  2  7  2        2 -.559155120799D-05 0.100000000000D+01
0.443953687519D-06 0.000000000000D+00 0.000000000000D+00 0.279445630386D-06 0.000000000000D+00  7 -2 2 23 -13 13 23 21 2 0.18487417D-01 0.29420769D+00 0.59257293D+05 0.59257293D+05 0.59257293D+05 0.11408624D+01  1  2 15  2  7  2        2 0.133878361997D-04 0.100000000000D+01
0.804554686524D-06 0.000000000000D+00 0.000000000000D+00 0.279445630386D-06 0.000000000000D+00  7 -2 2 23 -13 13 23 21 2 0.18487417D-01 0.29808408D+00 0.60239414D+05 0.60239414D+05 0.60239414D+05 0.11402458D+01  1  2 12  2  7  2        2 0.234885557798D-04 0.100000000000D+01
-.274239128612D-03 0.000000000000D+00 0.000000000000D+00 0.279445630386D-06 0.000000000000D+00  7 -2 2 23 -13 13 23 21 2 0.18487417D-01 0.29420769D+00 0.59257293D+05 0.59257293D+05 0.59257293D+05 0.11408624D+01  1  2  4  2  7  2        2 -.826993588883D-02 0.100000000000D+01
-.677285371810D-03 0.000000000000D+00 -.588953586275D-04 0.279445630386D-06 0.000000000000D+00  7 -2 2 23 -13 13 23 21 2 0.18487417D-01 0.29803723D+00 0.59257293D+05 0.59257293D+05 0.59257293D+05 0.11408624D+01  1  2  5  2  7  2        2 -.198123095164D-01 0.100000000000D+01
0.677995260380D-03 0.000000000000D+00 0.588904338957D-04 0.279445630386D-06 0.000000000000D+00  7 -2 2 23 -13 13 23 21 2 0.18487417D-01 0.29420769D+00 0.59257293D+05 0.59257293D+05 0.59257293D+05 0.11408624D+01  1  2  6  2  7  2        2 0.204455774224D-01 0.100000000000D+01
0.273437264868D-03 0.000000000000D+00 0.000000000000D+00 0.279445630386D-06 0.119512868300D-06  7 -2 2 23 -13 13 23 21 2 0.18513753D-01 0.29787599D+00 0.60239414D+05 0.60239414D+05 0.60239414D+05 0.11402458D+01  1  2 11  2  7  2        2 0.797758479949D-02 0.100000000000D+01
0.785170488214D-07 0.000000000000D+00 0.000000000000D+00 0.279445630386D-06 0.000000000000D+00  7 -2 21 23 -13 13 23 -2 2 0.18487417D-01 0.29808408D+00 0.60239414D+05 0.60239414D+05 0.60239414D+05 0.11402458D+01  1  2 12  4  7  2        2 0.531656637908D-06 0.100000000000D+01
-.160726865057D-05 0.000000000000D+00 -.140080851344D-06 0.279445630386D-06 0.000000000000D+00  7 -2 21 23 -13 13 23 -2 2 0.18487417D-01 0.29803723D+00 0.59257293D+05 0.59257293D+05 0.59257293D+05 0.11408624D+01  1  2  5  4  7  2        2 -.109189623501D-04 0.100000000000D+01
0.648511319444D-06 0.000000000000D+00 0.000000000000D+00 0.279445630386D-06 0.272825596323D-09  7 -2 21 23 -13 13 23 -2 2 0.18513753D-01 0.29787599D+00 0.60239414D+05 0.60239414D+05 0.60239414D+05 0.11402458D+01  1  2 11  4  7  2        2 0.439466223401D-05 0.100000000000D+01
  </mgrwgt>
  </event>
  <event>
  8     66 0.53686478E-06 0.36839714E+03 0.75467711E-02 0.87289279E-01
       -2 -1    0    0    0  501 0.00000000E+00 0.00000000E+00 0.15841797E+03 0.15841830E+03 0.32000000E+00 0.0000E+00 0.9000E+01
        2 -1    0    0  501    0 0.00000000E+00 0.00000000E+00 -.15056701E+04 0.15056701E+04 0.32000000E+00 0.0000E+00 0.9000E+01
       25  2    1    2    0    0 0.31001213E+03 -.10727608E+03 -.24163180E+03 0.50713898E+03 0.30197407E+03 0.0000E+00 0.0000E+00
       23  2    1    2    0    0 -.31001213E+03 0.10727608E+03 -.11056203E+04 0.11569494E+04 0.92304057E+02 0.0000E+00 0.0000E+00
       23  1    3    3    0    0 0.30481892E+02 -.34768129E+02 -.16606843E+03 0.19501780E+03 0.91188000E+02 0.0000E+00 0.9000E+01
      -11  1    4    4    0    0 -.19727485E+03 0.92941004E+02 -.59150484E+03 0.63042317E+03 0.51099893E-03 0.0000E+00 0.9000E+01
       11  1    4    4    0    0 -.11273728E+03 0.14335080E+02 -.51411546E+03 0.52652625E+03 0.51099893E-03 0.0000E+00 0.9000E+01
       23  1    3    3    0    0 0.27953024E+03 -.72507954E+02 -.75563374E+02 0.31212118E+03 0.91188000E+02 0.0000E+00 0.9000E+01
#aMCatNLO 1  0  0  1  1 0.87391563D+03 0.00000000D+00  -5  7  0 0.00000000D+00 0.00000000D+00 0.00000000D+00 0.00000000D+00 0.00000000D+00
  <mgrwgt>
 0.2772569751D-03    3    2    0
 0.488390724879839D+03 0.000000000000000D+00 0.000000000000000D+00 0.488390724879839D+03
 0.488390724879839D+03 0.000000000000000D+00 0.000000000000000D+00 -.488390724879839D+03
 0.103186667653067D+03 0.304818918547579D+02 -.347681289283671D+02 -.139380241469051D+02
 0.258168037655941D+03 -.197274852375666D+03 0.929410038188540D+02 -.138185882406352D+03
 0.187906003873035D+03 -.112737280377326D+03 0.143350795305652D+02 -.149644503405603D+03
 0.427520740577635D+03 0.279530240898234D+03 -.725079544210521D+02 0.301768409958861D+03
 0.000000000000000D+00 -.000000000000000D+00 -.000000000000000D+00 -.000000000000000D+00
 0.920038265342501D+03 0.000000000000000D+00 0.000000000000000D+00 0.920038265342501D+03
 0.137662330599169D+04 0.000000000000000D+00 0.000000000000000D+00 -.137662330599169D+04
 0.111313163499425D+03 0.415344504928368D+02 0.464326386218587D+02 -.139380241469051D+02
 0.405002814834906D+03 -.163103567974938D+03 0.343990069684605D+03 -.138185882406352D+03
 0.251239745729696D+03 -.901093644387973D+02 0.180577503790613D+03 -.149644503405603D+03
 0.543104616500623D+03 0.329543770592283D+03 0.294930675134023D+03 0.301768409958861D+03
 0.986001230769539D+03 -.117865288671384D+03 -.865930887231099D+03 -.456585040649187D+03
0.116234727860D-04 0.000000000000D+00 0.000000000000D+00 0.623116829653D-07 0.000000000000D+00  7 -2 2 23 -11 11 23 21 0 0.24372024D-01 0.23164158D+00 0.13571645D+06 0.13571645D+06 0.13571645D+06 0.11109978D+01  1  2  2  1  7  1       -2 0.273337810151D-03 0.100000000000D+01
-.583331606108D-06 0.000000000000D+00 -.446371960290D-07 0.623116829653D-07 0.000000000000D+00  7 -2 2 23 -11 11 23 21 2 0.24372024D-01 0.23164158D+00 0.13571645D+06 0.13571645D+06 0.13571645D+06 0.11109978D+01  1  2  3  1  7  1       -2 -.169319014642D-04 0.100000000000D+01
0.718353226313D-06 0.000000000000D+00 0.000000000000D+00 0.623116829653D-07 0.000000000000D+00  7 -2 2 23 -11 11 23 21 2 0.24372024D-01 0.23164158D+00 0.13571645D+06 0.13571645D+06 0.13571645D+06 0.11109978D+01  1  2 15  1  7  1       -2 0.208510663867D-04 0.100000000000D+01
  </mgrwgt>
  </event>
  <event>
  9     66 0.53686478E-06 0.40261973E+03 0.75467711E-02 0.90739018E-01
       21 -1    0    0  502  501 0.00000000E+00 0.00000000E+00 0.57005732E+03 0.57005781E+03 0.75000000E+00 0.0000E+00 0.9000E+01
        2 -1    0    0  501    0 0.00000000E+00 0.00000000E+00 -.90199493E+03 0.90199499E+03 0.32000000E+00 0.0000E+00 0.9000E+01
       25  2    1    2    0    0 0.44049759E+03 0.46829865E+03 -.14331530E+03 0.72072814E+03 0.29252014E+03 0.0000E+00 0.0000E+00
       23  2    1    2    0    0 -.21595123E+03 -.33682761E+02 -.85133920E+02 0.25130267E+03 0.90198604E+02 0.0000E+00 0.0000E+00
       23  1    3    3    0    0 0.49721512E+02 0.19457637E+03 -.47936721E+02 0.22571082E+03 0.91188000E+02 0.0000E+00 0.9000E+01
      -11  1    4    4    0    0 -.53606842E+02 0.28430958E+02 -.82530923E+01 0.61238275E+02 0.51099893E-03 0.0000E+00 0.9000E+01
       11  1    4    4    0    0 -.16234438E+03 -.62113719E+02 -.76880827E+02 0.19006440E+03 0.51099893E-03 0.0000E+00 0.9000E+01
       23  1    3    3    0    0 0.39077608E+03 0.27372228E+03 -.95378580E+02 0.49501732E+03 0.91188000E+02 0.0000E+00 0.9000E+01
        2  1    1    2  502    0 -.22454636E+03 -.43461589E+03 -.10348839E+03 0.50002199E+03 0.32000000E+00 0.0000E+00 0.9000E+01
#aMCatNLO 2  0  0  1  2 0.48919530D+03 0.00000000D+00  -5  7  0 0.00000000D+00 0.00000000D+00 0.00000000D+00 0.00000000D+00 0.00000000D+00
  <mgrwgt>
 0.6770746196D-04    1    2    0
 0.404148123069475D+03 0.000000000000000D+00 0.000000000000000D+00 0.404148123069475D+03
 0.404148123069475D+03 0.000000000000000D+00 0.000000000000000D+00 -.404148123069475D+03
 0.139448869142919D+03 0.360143577363900D+01 0.105309648562998D+03 0.525769351949855D+01
 0.709155261531870D+02 -.705042319238071D+02 -.427442282529195D+01 0.631620455083475D+01
 0.285334166194500D+03 -.221556454399110D+03 -.176720366947861D+03 -.331396411842193D+02
 0.312597684648345D+03 0.288459250549278D+03 0.756851412101545D+02 0.215657431138860D+02
 0.000000000000000D+00 -.000000000000000D+00 -.000000000000000D+00 0.000000000000000D+00
 0.724322305192567D+03 0.000000000000000D+00 0.000000000000000D+00 0.724322305192567D+03
 0.709889974298253D+03 0.000000000000000D+00 0.000000000000000D+00 -.709889974298253D+03
 0.220624313040871D+03 0.497215120526915D+02 0.194576370761727D+03 0.525769351949855D+01
 0.610074361531088D+02 -.536068416554606D+02 0.284309576654400D+02 0.631620455083475D+01
 0.176952109750858D+03 -.162344384841326D+03 -.621137185970390D+02 -.331396411842193D+02
 0.486220278749368D+03 0.390776077316386D+03 0.273722275754601D+03 0.215657431138860D+02
 0.489408141796615D+03 -.224546362872290D+03 -.434615885584729D+03 0.144323308943132D+02
0.156627127984D-05 0.000000000000D+00 0.000000000000D+00 0.170378605106D-08 0.149797904694D-13  7 21 2 23 -11 11 23 2 2 0.87701162D-01 0.13876848D+00 0.51122467D+06 0.51122467D+06 0.51122467D+06 0.10678296D+01  1  2  1  3  7  1       -2 0.677074619588D-04 0.100000000000D+01
  </mgrwgt>
  </event>
  <event>
  8     66 0.53686478E-06 0.51103384E+03 0.75467711E-02 0.88644380E-01
       -4 -1    0    0    0  501 0.00000000E+00 0.00000000E+00 0.13923600E+04 0.13923609E+04 0.15500000E+01 0.0000E+00 0.9000E+01
        4 -1    0    0  501    0 0.00000000E+00 0.00000000E+00 -.21982011E+03 0.21982558E+03 0.15500000E+01 0.0000E+00 0.9000E+01
       25  2    1    2    0    0 -.11708374E+03 0.47170040E+03 0.43070474E+03 0.72078588E+03 0.31275526E+03 0.0000E+00 0.0000E+00
       23  2    1    2    0    0 0.11708374E+03 -.47170040E+03 0.74183515E+03 0.89140056E+03 0.89809262E+02 0.0000E+00 0.0000E+00
       23  1    3    3    0    0 -.35658599E+01 0.27471901E+03 0.36747825E+03 0.46780206E+03 0.91188000E+02 0.0000E+00 0.9000E+01
      -13  1    4    4    0    0 0.81712014E+02 -.39214695E+03 0.65921377E+03 0.77137468E+03 0.10565837E+00 0.0000E+00 0.9000E+01
       13  1    4    4    0    0 0.35371725E+02 -.79553441E+02 0.82621380E+02 0.12002588E+03 0.10565837E+00 0.0000E+00 0.9000E+01
       23  1    3    3    0    0 -.11351788E+03 0.19698138E+03 0.63226487E+02 0.25298382E+03 0.91188000E+02 0.0000E+00 0.9000E+01
#aMCatNLO 1  0  0  2  1 0.57764332D+03 0.00000000D+00  -5  7  0 0.00000000D+00 0.00000000D+00 0.00000000D+00 0.00000000D+00 0.00000000D+00
  <mgrwgt>
 0.1489161005D-04    3    2    0
 0.553239399978680D+03 0.000000000000000D+00 0.000000000000000D+00 0.553239399978680D+03
 0.553239399978680D+03 0.000000000000000D+00 0.000000000000000D+00 -.553239399978680D+03
 0.292189261188730D+03 -.356587364690877D+01 0.274719007803259D+03 0.396996764060224D+02
 0.425354635077953D+03 0.817120804165698D+02 -.392147397065548D+03 0.143073828742403D+03
 0.873281276956759D+02 0.353716612172089D+02 -.795530108074518D+02 -.680925407344406D+01
 0.301606775995001D+03 -.113517867986870D+03 0.196981400069740D+03 -.175964251074981D+03
 0.000000000000000D+00 0.000000000000000D+00 -.000000000000000D+00 0.000000000000000D+00
 0.120076040892093D+04 0.000000000000000D+00 0.000000000000000D+00 0.120076040892093D+04
 0.768747933280025D+03 0.000000000000000D+00 0.000000000000000D+00 -.768747933280025D+03
 0.378983903355296D+03 -.158876890836113D+03 0.329386728496950D+03 0.396996764060224D+02
 0.371619234129433D+03 -.102709509776039D+03 -.327233084063182D+03 0.143073828742403D+03
 0.673046144297368D+02 -.410711706728769D+00 -.669580204187128D+02 -.680925407344406D+01
 0.430277787668081D+03 -.282877642859296D+03 0.256594124505079D+03 -.175964251074981D+03
 0.721322802618412D+03 0.544874755178177D+03 -.191789748520134D+03 0.432012475640908D+03
0.120357247901D-03 0.000000000000D+00 0.000000000000D+00 0.228411841489D-08 0.000000000000D+00  7 -4 4 23 -13 13 23 21 0 0.21420972D+00 0.33818966D-01 0.26115558D+06 0.26115558D+06 0.26115558D+06 0.10890357D+01  1  2  2  2  7  2        4 0.148115850976D-04 0.100000000000D+01
-.663531848674D-05 0.000000000000D+00 -.462203522730D-06 0.228411841489D-08 0.000000000000D+00  7 -4 4 23 -13 13 23 21 2 0.21420972D+00 0.33818966D-01 0.26115558D+06 0.26115558D+06 0.26115558D+06 0.10890357D+01  1  2  3  2  7  2        4 -.968445687510D-06 0.100000000000D+01
0.718361050839D-05 0.000000000000D+00 0.000000000000D+00 0.228411841489D-08 0.000000000000D+00  7 -4 4 23 -13 13 23 21 2 0.21420972D+00 0.33818966D-01 0.26115558D+06 0.26115558D+06 0.26115558D+06 0.10890357D+01  1  2 15  2  7  2        4 0.104847063958D-05 0.100000000000D+01
  </mgrwgt>
  </event>
  <event>
  7     66 0.53686478E-06 0.22974334E+03 0.75467711E-02 0.95505006E-01
       -2 -1    0    0    0  501 0.00000000E+00 0.00000000E+00 0.30276706E+03 0.30276723E+03 0.32000000E+00 0.0000E+00 0.9000E+01
        2 -1    0    0  501    0 0.00000000E+00 0.00000000E+00 -.17132188E+04 0.17132188E+04 0.32000000E+00 0.0000E+00 0.9000E+01
       23  2    1    2    0    0 0.60511662E+02 -.39235979E+02 -.16113472E+04 0.16155742E+04 0.91863259E+02 0.0000E+00 0.0000E+00
       23  1    1    2    0    0 -.13701309E+03 0.11827815E+03 0.13122157E+03 0.24144701E+03 0.91188000E+02 0.0000E+00 0.9000E+01
      -13  1    3    3    0    0 0.41588067E+02 -.67874551E+02 -.12741863E+04 0.12766703E+04 0.10565837E+00 0.0000E+00 0.9000E+01
       13  1    3    3    0    0 0.18923594E+02 0.28638572E+02 -.33716097E+03 0.33890382E+03 0.10565837E+00 0.0000E+00 0.9000E+01
       23  1    1    2    0    0 0.76501432E+02 -.79042171E+02 0.69673913E+02 0.15896490E+03 0.91188000E+02 0.0000E+00 0.9000E+01
#aMCatNLO 1  0  0  2  2 0.35035370D+03 0.00000000D+00  -5  7  0 0.00000000D+00 0.00000000D+00 0.00000000D+00 0.00000000D+00 0.00000000D+00
  <mgrwgt>
 0.4169724837D-03    4    2    0
 0.720212767126357D+03 0.000000000000000D+00 0.000000000000000D+00 0.720212767126357D+03
 0.720212767126357D+03 0.000000000000000D+00 0.000000000000000D+00 -.720212767126357D+03
 0.466414571088984D+03 -.137013022859469D+03 0.118278083085882D+03 0.420077406448574D+03
 0.539126926419778D+03 0.415881002561341D+02 -.678746806850598D+02 -.533217873321800D+03
 0.144176398194113D+03 0.189235650846334D+02 0.286386994818788D+02 -.140030558710239D+03
 0.290707638549839D+03 0.765013575187015D+02 -.790421018827014D+02 0.253171025583466D+03
 0.000000000000000D+00 0.000000000000000D+00 0.000000000000000D+00 0.000000000000000D+00
 0.102490597416327D+04 0.000000000000000D+00 0.000000000000000D+00 0.102490597416327D+04
 0.849379382227557D+03 0.000000000000000D+00 0.000000000000000D+00 -.849379382227557D+03
 0.469162629369310D+03 -.187112892568929D+03 0.179460156762762D+02 0.420077406448574D+03
 0.565096400520370D+03 -.175427173639927D+02 -.186292497215378D+03 -.533217873321800D+03
 0.140091630176509D+03 0.370110008980780D+01 -.184643736295459D+01 -.140030558710239D+03
 0.308070816867389D+03 0.444369564339593D+02 -.143255595245849D+03 0.253171025583466D+03
 0.391863879457245D+03 0.156517553409155D+03 0.313448514147905D+03 0.175526591935708D+03
0.808940297147D-04 0.000000000000D+00 0.000000000000D+00 0.116444656259D-08 0.000000000000D+00  7 -2 2 23 -13 13 23 21 0 0.46579564D-01 0.26357214D+00 0.52782003D+05 0.52782003D+05 0.52782003D+05 0.11452327D+01  1  2  2  2  7  2        2 0.476879377171D-03 0.100000000000D+01
0.263937080938D-05 0.000000000000D+00 -.310654373992D-06 0.116444656259D-08 0.000000000000D+00  7 -2 2 23 -13 13 23 21 2 0.46579564D-01 0.26357214D+00 0.52782003D+05 0.52782003D+05 0.52782003D+05 0.11452327D+01  1  2  3  2  7  2        2 0.204070363955D-04 0.100000000000D+01
0.473092692219D-05 0.000000000000D+00 0.000000000000D+00 0.116444656259D-08 0.000000000000D+00  7 -2 2 23 -13 13 23 21 2 0.46579564D-01 0.26357214D+00 0.52782003D+05 0.52782003D+05 0.52782003D+05 0.11452327D+01  1  2 15  2  7  2        2 0.365784896698D-04 0.100000000000D+01
-.151184343474D-04 0.000000000000D+00 0.000000000000D+00 0.116444656259D-08 0.000000000000D+00  7 -2 2 23 -13 13 23 21 2 0.46579564D-01 0.26357214D+00 0.52782003D+05 0.52782003D+05 0.52782003D+05 0.11452327D+01  1  2  4  2  7  2        2 -.116892419540D-03 0.100000000000D+01
  </mgrwgt>
  </event>
  <event>
  8     66 0.53686478E-06 0.42331259E+03 0.75467711E-02 0.94761894E-01
       -2 -1    0    0    0  501 0.00000000E+00 0.00000000E+00 0.54570166E+03 0.54570175E+03 0.32000000E+00 0.0000E+00 0.9000E+01
        2 -1    0    0  501    0 0.00000000E+00 0.00000000E+00 -.31078357E+04 0.31078358E+04 0.32000000E+00 0.0000E+00 0.9000E+01
       25  2    1    2    0    0 -.33041968E+03 -.16093718E+03 -.30214659E+04 0.30584717E+04 0.29985755E+03 0.0000E+00 0.0000E+00
       23  2    1    2    0    0 0.33041968E+03 0.16093718E+03 0.45933186E+03 0.59506585E+03 0.89664175E+02 0.0000E+00 0.0000E+00
       23  1    3    3    0    0 -.33954216E+03 -.13119316E+03 -.25264452E+04 0.25541615E+04 0.91188000E+02 0.0000E+00 0.9000E+01
      -11  1    4    4    0    0 0.33457582E+03 0.15909031E+03 0.45981552E+03 0.59049219E+03 0.51099893E-03 0.0000E+00 0.9000E+01
       11  1    4    4    0    0 -.41561395E+01 0.18468693E+01 -.48366679E+00 0.45736589E+01 0.51099893E-03 0.0000E+00 0.9000E+01
       23  1    3    3    0    0 0.91224781E+01 -.29744027E+02 -.49502076E+03 0.50431016E+03 0.91188000E+02 0.0000E+00 0.9000E+01
#aMCatNLO 1  0  0  2  1 0.15075632D+03 0.00000000D+00  -5  7  0 0.00000000D+00 0.00000000D+00 0.00000000D+00 0.00000000D+00 0.00000000D+00
  <mgrwgt>
 0.1985866499D-03    4    2    0
 0.130228695976479D+04 0.000000000000000D+00 0.000000000000000D+00 0.130228695976479D+04
 0.130228695976479D+04 0.000000000000000D+00 0.000000000000000D+00 -.130228695976479D+04
 0.109754365778331D+04 -.339542162948874D+03 -.131193156102946D+03 -.103140016713598D+04
 0.128062957557850D+04 0.334575824402339D+03 0.159090313686358D+03 0.122587168972248D+04
 0.593986415483451D+01 -.415613955490376D+01 0.184686933737602D+01 0.382067583402613D+01
 0.220460822012938D+03 0.912247810143894D+01 -.297440269207884D+02 -.198292198420524D+03
 0.000000000000000D+00 0.000000000000000D+00 0.000000000000000D+00 0.000000000000000D+00
 0.149028797024381D+04 0.000000000000000D+00 0.000000000000000D+00 0.149028797024381D+04
 0.133504367519467D+04 0.000000000000000D+00 0.000000000000000D+00 -.133504367519467D+04
 0.112044577731791D+04 -.399809802354250D+03 -.153131661451430D+03 -.103140016713598D+04
 0.126142565253916D+04 0.265502606373347D+03 0.133946419249524D+03 0.122587168972248D+04
 0.613929177482495D+01 -.448435672418744D+01 0.172739238100544D+01 0.382067583402613D+01
 0.220922541418106D+03 -.287087631486848D+01 -.341098237663995D+02 -.198292198420524D+03
 0.216398382388474D+03 0.141662429019960D+03 0.515676735873002D+02 0.155244295049147D+03
0.972495405608D-03 0.000000000000D+00 0.000000000000D+00 0.115929183861D-04 0.000000000000D+00  7 -2 2 23 -11 11 23 21 0 0.83954110D-01 0.47812859D+00 0.17919355D+06 0.17919355D+06 0.17919355D+06 0.11015084D+01  1  2  2  2  7  2        2 0.248822184678D-03 0.100000000000D+01
0.289286245639D-04 0.000000000000D+00 -.373463842146D-05 0.115929183861D-04 0.000000000000D+00  7 -2 2 23 -11 11 23 21 2 0.83954110D-01 0.47812859D+00 0.17919355D+06 0.17919355D+06 0.17919355D+06 0.11015084D+01  1  2  3  2  7  2        2 0.898059103303D-05 0.100000000000D+01
0.554459982797D-04 0.000000000000D+00 0.000000000000D+00 0.115929183861D-04 0.000000000000D+00  7 -2 2 23 -11 11 23 21 2 0.83954110D-01 0.47812859D+00 0.17919355D+06 0.17919355D+06 0.17919355D+06 0.11015084D+01  1  2 15  2  7  2        2 0.172126342844D-04 0.100000000000D+01
-.246195255765D-03 0.000000000000D+00 0.000000000000D+00 0.115929183861D-04 0.000000000000D+00  7 -2 2 23 -11 11 23 21 2 0.83954110D-01 0.47812859D+00 0.17919355D+06 0.17919355D+06 0.17919355D+06 0.11015084D+01  1  2  4  2  7  2        2 -.764287600823D-04 0.100000000000D+01
  </mgrwgt>
  </event>
  <event>
  8     66 0.53686478E-06 0.15436731E+03 0.75467711E-02 0.98071484E-01
       -2 -1    0    0    0  501 0.00000000E+00 0.00000000E+00 0.32924204E+03 0.32924219E+03 0.32000000E+00 0.0000E+00 0.9000E+01
        2 -1    0    0  501    0 0.00000000E+00 0.00000000E+00 -.10219771E+04 0.10219771E+04 0.32000000E+00 0.0000E+00 0.9000E+01
       25  2    1    2    0    0 0.16329536E+03 0.14908582E+03 -.93734670E+03 0.10089933E+04 0.30092654E+03 0.0000E+00 0.0000E+00
       23  2    1    2    0    0 -.16329536E+03 -.14908582E+03 0.24461165E+03 0.34222598E+03 0.91606802E+02 0.0000E+00 0.0000E+00
       23  1    3    3    0    0 0.14380366E+03 -.53917807E+01 -.62966549E+03 0.65230548E+03 0.91188000E+02 0.0000E+00 0.9000E+01
      -13  1    4    4    0    0 -.83950992E+02 -.13467213E+03 0.16275313E+03 0.22731684E+03 0.10565837E+00 0.0000E+00 0.9000E+01
       13  1    4    4    0    0 -.79344367E+02 -.14413691E+02 0.81858518E+02 0.11490914E+03 0.10565837E+00 0.0000E+00 0.9000E+01
       23  1    3    3    0    0 0.19491701E+02 0.15447760E+03 -.30768122E+03 0.35668787E+03 0.91188000E+02 0.0000E+00 0.9000E+01
#aMCatNLO 1  0  0  1  2 0.13249353D+03 0.00000000D+00  -5  7  0 0.00000000D+00 0.00000000D+00 0.00000000D+00 0.00000000D+00 0.00000000D+00
  <mgrwgt>
 0.1814410803D-03    9    2    0
 0.580067198422768D+03 0.000000000000000D+00 0.000000000000000D+00 0.580067198422768D+03
 0.580067198422768D+03 0.000000000000000D+00 0.000000000000000D+00 -.580067198422768D+03
 0.383762794510040D+03 0.143803658090394D+03 -.539178057566488D+01 -.343875075758916D+03
 0.361940804797235D+03 -.839509986005689D+02 -.134672285443567D+03 0.325294868610994D+03
 0.182714557501151D+03 -.793443610109733D+02 -.144135308179121D+02 0.163955274474360D+03
 0.231716240037109D+03 0.194917015211484D+02 0.154477596837144D+03 -.145375067326438D+03
 0.000000000000000D+00 0.000000000000000D+00 0.000000000000000D+00 0.000000000000000D+00
 0.774738515015373D+03 0.000000000000000D+00 0.000000000000000D+00 0.774738515015373D+03
 0.606826901144632D+03 0.000000000000000D+00 0.000000000000000D+00 -.606826901144632D+03
 0.375712571861395D+03 0.114845224378627D+03 -.374858909448106D+02 -.343875075758916D+03
 0.382135387004823D+03 -.112322269126104D+03 -.166115653431713D+03 0.325294868610994D+03
 0.191194789130913D+03 -.936013461721735D+02 -.302142906189821D+02 0.163955274474360D+03
 0.218632872013894D+03 0.232010453994518D+01 0.135446625265457D+03 -.145375067326438D+03
 0.213889796148981D+03 0.887582863797048D+02 0.983692097300489D+02 0.167911613870740D+03
0.214939208552D-04 0.000000000000D+00 0.000000000000D+00 0.628453093335D-06 0.000000000000D+00  7 -2 2 23 -13 13 23 21 0 0.50652637D-01 0.15722726D+00 0.87066998D+05 0.87066998D+05 0.87066998D+05 0.11266914D+01  1  2  2  1  7  1       -2 0.253716356614D-03 0.100000000000D+01
-.530784266698D-06 0.000000000000D+00 -.825423155633D-07 0.628453093335D-06 0.000000000000D+00  7 -2 2 23 -13 13 23 21 2 0.50652637D-01 0.15722726D+00 0.87066998D+05 0.87066998D+05 0.87066998D+05 0.11266914D+01  1  2  3  1  7  1       -2 -.795354677633D-05 0.100000000000D+01
0.123356494753D-05 0.000000000000D+00 0.000000000000D+00 0.628453093335D-06 0.000000000000D+00  7 -2 2 23 -13 13 23 21 2 0.50652637D-01 0.15722726D+00 0.87066998D+05 0.87066998D+05 0.87066998D+05 0.11266914D+01  1  2 15  1  7  1       -2 0.184843770386D-04 0.100000000000D+01
0.282007342271D-04 0.000000000000D+00 0.000000000000D+00 0.628453093335D-06 0.000000000000D+00  7 -2 2 23 -13 13 23 21 2 0.68529669D-01 0.15722726D+00 0.13914217D+06 0.13914217D+06 0.13914217D+06 0.11101363D+01  1  2 12  1  7  1       -2 0.217435750671D-03 0.100000000000D+01
-.391963949728D-04 0.000000000000D+00 0.000000000000D+00 0.628453093335D-06 0.000000000000D+00  7 -2 2 23 -13 13 23 21 2 0.50652637D-01 0.15722726D+00 0.87066998D+05 0.87066998D+05 0.87066998D+05 0.11266914D+01  1  2  4  1  7  1       -2 -.587339113909D-03 0.100000000000D+01
-.396448042175D-04 0.000000000000D+00 -.100969006128D-04 0.628453093335D-06 0.000000000000D+00  7 -2 2 23 -13 13 23 21 2 0.69775423D-01 0.15722726D+00 0.87066998D+05 0.87066998D+05 0.87066998D+05 0.11266914D+01  1  2  5  1  7  1       -2 -.308447925055D-03 0.100000000000D+01
0.412418316527D-04 0.000000000000D+00 0.960025068791D-05 0.628453093335D-06 0.000000000000D+00  7 -2 2 23 -13 13 23 21 2 0.50652637D-01 0.15722726D+00 0.87066998D+05 0.87066998D+05 0.87066998D+05 0.11266914D+01  1  2  6  1  7  1       -2 0.617988998113D-03 0.100000000000D+01
0.109607324625D-05 0.000000000000D+00 0.000000000000D+00 0.628453093335D-06 0.000000000000D+00  7 21 2 23 -13 13 23 2 2 0.68529669D-01 0.15722726D+00 0.13914217D+06 0.13914217D+06 0.13914217D+06 0.11101363D+01  1  2 12  3  7  1       -2 0.851889953176D-04 0.100000000000D+01
-.135628322332D-05 0.000000000000D+00 -.409165230129D-06 0.628453093335D-06 0.000000000000D+00  7 21 2 23 -13 13 23 2 2 0.69775423D-01 0.15722726D+00 0.87066998D+05 0.87066998D+05 0.87066998D+05 0.11266914D+01  1  2  5  3  7  1       -2 -.107632811671D-03 0.100000000000D+01
  </mgrwgt>
  </event>
  <event>
  8     66 0.53686478E-06 0.67603735E+03 0.75467711E-02 0.90433457E-01
       -2 -1    0    0    0  502 0.00000000E+00 0.00000000E+00 0.38276084E+03 0.38276097E+03 0.32000000E+00 0.0000E+00 0.9000E+01
        2 -1    0    0  501    0 0.00000000E+00 0.00000000E+00 -.16106633E+04 0.16106633E+04 0.32000000E+00 0.0000E+00 0.9000E+01
       23  2    1    2    0    0 0.29747711E+03 -.61206218E+03 -.30187859E+03 0.75004961E+03 0.91274229E+02 0.0000E+00 0.0000E+00
       23  1    1    2    0    0 -.29200640E+03 0.34234993E+03 -.69034237E+03 0.82907119E+03 0.91188000E+02 0.0000E+00 0.9000E+01
      -13  1    3    3    0    0 0.30367614E+02 -.30973464E+02 -.39881242E+02 0.58924291E+02 0.10565837E+00 0.0000E+00 0.9000E+01
       13  1    3    3    0    0 0.26710949E+03 -.58108872E+03 -.26199734E+03 0.69112532E+03 0.10565837E+00 0.0000E+00 0.9000E+01
       23  1    1    2    0    0 -.77085524E+02 0.17805793E+03 -.10297466E+03 0.23783573E+03 0.91188000E+02 0.0000E+00 0.9000E+01
       21  1    1    2  501  502 0.71614820E+02 0.91654329E+02 -.13270680E+03 0.17646772E+03 0.75000000E+00 0.0000E+00 0.9000E+01
#aMCatNLO 2  0  0  1  1 0.11631508D+03 0.00000000D+00  -5  7  0 0.00000000D+00 0.00000000D+00 0.00000000D+00 0.00000000D+00 0.00000000D+00
  <mgrwgt>
 0.1029819210D-03    1    2    0
 0.722555953616846D+03 0.000000000000000D+00 0.000000000000000D+00 0.722555953616846D+03
 0.722555953616846D+03 0.000000000000000D+00 0.000000000000000D+00 -.722555953616846D+03
 0.526459051539505D+03 -.266179563293476D+03 0.375403714058342D+03 -.238881504432579D+03
 0.434013903499675D+02 0.325225196096718D+02 -.282144228715116D+02 -.546925448084939D+01
 0.646785342136610D+03 0.299641347890622D+03 -.539454844091292D+03 0.193739032266353D+03
 0.228466123207609D+03 -.659843042068173D+02 0.192265552904461D+03 0.506117266470757D+02
 0.000000000000000D+00 0.000000000000000D+00 0.000000000000000D+00 -.000000000000000D+00
 0.768842339600473D+03 0.000000000000000D+00 0.000000000000000D+00 0.768842339600473D+03
 0.801851190403438D+03 0.000000000000000D+00 0.000000000000000D+00 -.801851190403438D+03
 0.517543073130918D+03 -.292006394930263D+03 0.342349928233750D+03 -.238881504432579D+03
 0.437195072008386D+02 0.303672972208279D+02 -.309727271128939D+02 -.546925448084939D+01
 0.668242046365592D+03 0.267109813559376D+03 -.581089465923834D+03 0.193739032266353D+03
 0.220280744667258D+03 -.770855362160894D+02 0.178057935400929D+03 0.506117266470757D+02
 0.120908158639304D+03 0.716148203661477D+02 0.916543294020484D+02 -.330088508029648D+02
0.241385407698D-04 0.000000000000D+00 0.000000000000D+00 0.415593155591D-08 0.187600120789D-11  7 -2 2 23 -13 13 23 21 2 0.58886208D-01 0.24779399D+00 0.54223679D+06 0.54223679D+06 0.54223679D+06 0.10660302D+01  1  2  1  1  7  1       -2 0.102981921002D-03 0.100000000000D+01
  </mgrwgt>
  </event>
  <event>
  8     66 0.53686478E-06 0.31072101E+03 0.75467711E-02 0.89024063E-01
       -2 -1    0    0    0  501 0.00000000E+00 0.00000000E+00 0.26470030E+03 0.26470049E+03 0.32000000E+00 0.0000E+00 0.9000E+01
        2 -1    0    0  501    0 0.00000000E+00 0.00000000E+00 -.55935150E+03 0.55935159E+03 0.32000000E+00 0.0000E+00 0.9000E+01
       25  2    1    2    0    0 0.17060845E+03 -.15939613E+03 -.40040052E+03 0.55190933E+03 0.29961469E+03 0.0000E+00 0.0000E+00
       23  2    1    2    0    0 -.17060845E+03 0.15939613E+03 0.10574932E+03 0.27214275E+03 0.91457001E+02 0.0000E+00 0.0000E+00
       23  1    3    3    0    0 -.48218621E+02 -.65999233E+02 -.16105864E+03 0.20232664E+03 0.91188000E+02 0.0000E+00 0.9000E+01
      -11  1    4    4    0    0 -.17753802E+03 0.15651153E+03 0.87366513E+02 0.25228658E+03 0.51099893E-03 0.0000E+00 0.9000E+01
       11  1    4    4    0    0 0.69295666E+01 0.28846008E+01 0.18382810E+02 0.19856170E+02 0.51099893E-03 0.0000E+00 0.9000E+01
       23  1    3    3    0    0 0.21882707E+03 -.93396902E+02 -.23934188E+03 0.34958269E+03 0.91188000E+02 0.0000E+00 0.9000E+01
#aMCatNLO 1  0  0  1  2 0.78806986D+03 0.00000000D+00  -5  7  0 0.00000000D+00 0.00000000D+00 0.00000000D+00 0.00000000D+00 0.00000000D+00
  <mgrwgt>
 0.3237900285D-03    5    2    0
 0.384786467354013D+03 0.000000000000000D+00 0.000000000000000D+00 0.384786467354013D+03
 0.384786467354013D+03 0.000000000000000D+00 0.000000000000000D+00 -.384786467354013D+03
 0.154984101341522D+03 -.482186210522941D+02 -.659992330429150D+02 -.949941374306928D+02
 0.303596858349489D+03 -.177538019957261D+03 0.156511533807706D+03 0.190145848375646D+03
 0.283001576847042D+02 0.692956663315377D+01 0.288460077670274D+01 0.272866104456903D+02
 0.282691817332311D+03 0.218827074376401D+03 -.933969015414939D+02 -.122438321390643D+03
 0.000000000000000D+00 -.000000000000000D+00 0.000000000000000D+00 0.000000000000000D+00
 0.146877734783156D+04 0.000000000000000D+00 0.000000000000000D+00 0.146877734783156D+04
 0.719875827540363D+03 0.000000000000000D+00 0.000000000000000D+00 -.719875827540363D+03
 0.219118367579794D+03 0.819550503619238D+02 -.154780784468897D+03 -.949941374306928D+02
 0.194036707787253D+03 -.438014556591460D+01 0.384137298272781D+02 0.190145848375646D+03
 0.447043446938728D+02 0.323324038071211D+02 -.144407405955165D+02 0.272866104456903D+02
 0.643638019337378D+03 0.541155221869029D+03 -.313232392787634D+03 -.122438321390643D+03
 0.108715573597362D+04 -.651062530472160D+03 0.444040188024769D+03 0.748901520291196D+03
0.824690664077D-05 0.000000000000D+00 0.000000000000D+00 0.867964610952D-06 0.000000000000D+00  7 -2 2 23 -11 11 23 21 0 0.40723145D-01 0.86054098D-01 0.96547543D+05 0.96547543D+05 0.96547543D+05 0.11229764D+01  1  2  2  1  7  1       -2 0.312462980656D-03 0.100000000000D+01
-.432699770572D-06 0.000000000000D+00 -.316702929610D-07 0.867964610952D-06 0.000000000000D+00  7 -2 2 23 -11 11 23 21 2 0.40723145D-01 0.86054098D-01 0.96547543D+05 0.96547543D+05 0.96547543D+05 0.11229764D+01  1  2  3  1  7  1       -2 -.206745175383D-04 0.100000000000D+01
0.513757052983D-06 0.000000000000D+00 0.000000000000D+00 0.867964610952D-06 0.000000000000D+00  7 -2 2 23 -11 11 23 21 2 0.40723145D-01 0.86054098D-01 0.96547543D+05 0.96547543D+05 0.96547543D+05 0.11229764D+01  1  2 15  1  7  1       -2 0.245474574398D-04 0.100000000000D+01
0.497105053595D-05 0.000000000000D+00 -.369618461249D-05 0.867964610952D-06 0.000000000000D+00  7 -2 2 23 -11 11 23 21 2 0.23754595D+00 0.86054098D-01 0.96547543D+05 0.96547543D+05 0.96547543D+05 0.11229764D+01  1  2  5  1  7  1       -2 0.315615360827D-05 0.100000000000D+01
0.858468590997D-06 0.000000000000D+00 -.798717734950D-06 0.867964610952D-06 0.000000000000D+00  7 21 2 23 -11 11 23 2 2 0.23754595D+00 0.86054098D-01 0.96547543D+05 0.96547543D+05 0.96547543D+05 0.11229764D+01  1  2  5  3  7  1       -2 0.429795436764D-05 0.100000000000D+01
  </mgrwgt>
  </event>
  <event>
  8     66 0.53686478E-06 0.38227988E+02 0.75467711E-02 0.10793963E+00
       -2 -1    0    0    0  501 0.00000000E+00 0.00000000E+00 0.37904693E+02 0.37906044E+02 0.32000000E+00 0.0000E+00 0.9000E+01
        2 -1    0    0  501    0 0.00000000E+00 0.00000000E+00 -.22609458E+04 0.22609458E+04 0.32000000E+00 0.0000E+00 0.9000E+01
       25  2    1    2    0    0 0.40432603E+02 0.45320580E+02 -.21394167E+04 0.21613354E+04 0.30096216E+03 0.0000E+00 0.0000E+00
       23  2    1    2    0    0 -.40432603E+02 -.45320580E+02 -.83624378E+02 0.13751642E+03 0.90713720E+02 0.0000E+00 0.0000E+00
       23  1    3    3    0    0 0.73685779E+02 -.15906252E+02 -.17825197E+04 0.17864418E+04 0.91188000E+02 0.0000E+00 0.9000E+01
      -13  1    4    4    0    0 -.81213924E+01 0.17501120E+02 0.87830807E+01 0.21199054E+02 0.10565837E+00 0.0000E+00 0.9000E+01
       13  1    4    4    0    0 -.32311211E+02 -.62821699E+02 -.92407459E+02 0.11631737E+03 0.10565837E+00 0.0000E+00 0.9000E+01
       23  1    3    3    0    0 -.33253175E+02 0.61226832E+02 -.35689701E+03 0.37489362E+03 0.91188000E+02 0.0000E+00 0.9000E+01
#aMCatNLO 1  0  0  2  1 0.35251896D+02 0.00000000D+00  -5  7  0 0.00000000D+00 0.00000000D+00 0.00000000D+00 0.00000000D+00 0.00000000D+00
  <mgrwgt>
 0.3228091842D-03    9    2    0
 0.292749099109825D+03 0.000000000000000D+00 0.000000000000000D+00 0.292749099109825D+03
 0.292749099109825D+03 0.000000000000000D+00 0.000000000000000D+00 -.292749099109825D+03
 0.246201474464297D+03 0.736857789541879D+02 -.159062521703034D+02 -.215910425422681D+03
 0.116582153684958D+03 -.812136009618301D+01 0.175012272914417D+02 0.114974558539290D+03
 0.105842866500355D+03 -.323112435005673D+02 -.628218071675230D+02 0.788169808903239D+02
 0.116871703570039D+03 -.332531753574376D+02 0.612268320463847D+02 0.221188859930668D+02
 0.000000000000000D+00 -.000000000000000D+00 0.000000000000000D+00 -.000000000000000D+00
 0.301390391337356D+03 0.000000000000000D+00 0.000000000000000D+00 0.301390391337356D+03
 0.331581294360399D+03 0.000000000000000D+00 0.000000000000000D+00 -.331581294360399D+03
 0.249861912173891D+03 0.817927428389572D+02 -.284316588307877D+02 -.215910425422681D+03
 0.115642983413498D+03 -.432619832794324D+01 0.116376333288694D+02 0.114974558539290D+03
 0.108152804874133D+03 -.288139985394202D+02 -.682251142442934D+02 0.788169808903239D+02
 0.112900767449739D+03 -.294980965218569D+02 0.554251669438437D+02 0.221188859930668D+02
 0.464132177864948D+02 -.191544494497369D+02 0.295939728023680D+02 -.301909030230429D+02
0.213652580735D-05 0.000000000000D+00 0.000000000000D+00 0.968135444708D-07 0.000000000000D+00  7 -2 2 23 -13 13 23 21 0 0.58315969D-02 0.34783792D+00 0.26083861D+05 0.26083861D+05 0.26083861D+05 0.11730146D+01  1  2  2  2  7  2        2 0.193649439314D-03 0.100000000000D+01
-.676418865209D-07 0.000000000000D+00 -.820482166040D-08 0.968135444708D-07 0.000000000000D+00  7 -2 2 23 -13 13 23 21 2 0.58315969D-02 0.34783792D+00 0.26083861D+05 0.26083861D+05 0.26083861D+05 0.11730146D+01  1  2  3  2  7  2        2 -.843588565523D-05 0.100000000000D+01
0.128194419539D-06 0.000000000000D+00 0.000000000000D+00 0.968135444708D-07 0.000000000000D+00  7 -2 2 23 -13 13 23 21 2 0.58315969D-02 0.34783792D+00 0.26083861D+05 0.26083861D+05 0.26083861D+05 0.11730146D+01  1  2 15  2  7  2        2 0.159876301577D-04 0.100000000000D+01
0.447092396774D-05 0.000000000000D+00 0.000000000000D+00 0.968135444708D-07 0.000000000000D+00  7 -2 2 23 -13 13 23 21 2 0.58315969D-02 0.39864953D+00 0.32075571D+05 0.32075571D+05 0.32075571D+05 0.11646499D+01  1  2 12  2  7  2        2 0.360003796997D-03 0.100000000000D+01
-.461732737050D-05 0.000000000000D+00 0.000000000000D+00 0.968135444708D-07 0.000000000000D+00  7 -2 2 23 -13 13 23 21 2 0.58315969D-02 0.34783792D+00 0.26083861D+05 0.26083861D+05 0.26083861D+05 0.11730146D+01  1  2  4  2  7  2        2 -.575845053025D-03 0.100000000000D+01
-.757804470138D-05 0.000000000000D+00 -.158857851181D-05 0.968135444708D-07 0.000000000000D+00  7 -2 2 23 -13 13 23 21 2 0.58315969D-02 0.39778082D+00 0.26083861D+05 0.26083861D+05 0.26083861D+05 0.11730146D+01  1  2  5  2  7  2        2 -.626689221401D-03 0.100000000000D+01
0.773564071904D-05 0.000000000000D+00 0.157438765836D-05 0.968135444708D-07 0.000000000000D+00  7 -2 2 23 -13 13 23 21 2 0.58315969D-02 0.34783792D+00 0.26083861D+05 0.26083861D+05 0.26083861D+05 0.11730146D+01  1  2  6  2  7  2        2 0.964742172819D-03 0.100000000000D+01
0.943412049583D-07 0.000000000000D+00 0.000000000000D+00 0.968135444708D-07 0.000000000000D+00  7 -2 21 23 -13 13 23 -2 2 0.58315969D-02 0.39864953D+00 0.32075571D+05 0.32075571D+05 0.32075571D+05 0.11646499D+01  1  2 12  4  7  2        2 0.925365597595D-06 0.100000000000D+01
-.148781230484D-06 0.000000000000D+00 -.330779163472D-07 0.968135444708D-07 0.000000000000D+00  7 -2 21 23 -13 13 23 -2 2 0.58315969D-02 0.39778082D+00 0.26083861D+05 0.26083861D+05 0.26083861D+05 0.11730146D+01  1  2  5  4  7  2        2 -.152906062709D-05 0.100000000000D+01
  </mgrwgt>
  </event>
  <event>
  8     66 0.53686478E-06 0.34682385E+03 0.75467711E-02 0.93434294E-01
       -2 -1    0    0    0  501 0.00000000E+00 0.00000000E+00 0.95569139E+03 0.95569144E+03 0.32000000E+00 0.0000E+00 0.9000E+01
        2 -1    0    0  501    0 0.00000000E+00 0.00000000E+00 -.13876577E+03 0.13876614E+03 0.32000000E+00 0.0000E+00 0.9000E+01
       25  2    1    2    0    0 0.27346959E+03 0.95744501E+02 0.38942426E+03 0.57010578E+03 0.29902629E+03 0.0000E+00 0.0000E+00
       23  2    1    2    0    0 -.27346959E+03 -.95744501E+02 0.42750135E+03 0.52435180E+03 0.90745670E+02 0.0000E+00 0.0000E+00
       23  1    3    3    0    0 0.68690039E+01 -.97145337E+01 0.20781188E+02 0.94279714E+02 0.91188000E+02 0.0000E+00 0.9000E+01
      -13  1    4    4    0    0 0.40766594E+01 0.41873462E+01 0.22884977E+02 0.23619618E+02 0.10565837E+00 0.0000E+00 0.9000E+01
       13  1    4    4    0    0 -.27754625E+03 -.99931847E+02 0.40461638E+03 0.50073218E+03 0.10565837E+00 0.0000E+00 0.9000E+01
       23  1    3    3    0    0 0.26660058E+03 0.10545903E+03 0.36864307E+03 0.47582607E+03 0.91188000E+02 0.0000E+00 0.9000E+01
#aMCatNLO 1  0  0  1  1 0.33978089D+03 0.00000000D+00  -5  7  0 0.00000000D+00 0.00000000D+00 0.00000000D+00 0.00000000D+00 0.00000000D+00
  <mgrwgt>
 0.4186975777D-03    3    2    0
 0.364166835095592D+03 0.000000000000000D+00 0.000000000000000D+00 0.364166835095592D+03
 0.364166835095592D+03 0.000000000000000D+00 0.000000000000000D+00 -.364166835095592D+03
 0.118363967426758D+03 0.686900395158321D+01 -.971453373682338D+01 -.745199440417923D+02
 0.982387763442401D+01 0.407704108866686D+01 0.418748731975740D+01 0.789628125666317D+01
 0.298611671008629D+03 -.277546629740286D+03 -.999319878613381D+02 0.463723644475411D+02
 0.301534154121374D+03 0.266600584700036D+03 0.105459034278404D+03 0.202512983375880D+02
 0.000000000000000D+00 -.000000000000000D+00 0.000000000000000D+00 -.000000000000000D+00
 0.491685107040955D+03 0.000000000000000D+00 0.000000000000000D+00 0.491685107040955D+03
 0.723117919371878D+03 0.000000000000000D+00 0.000000000000000D+00 -.723117919371878D+03
 0.134137007442713D+03 0.627210996240277D+02 -.137959060466251D+02 -.745199440417923D+02
 0.125949049238420D+02 0.903597635199126D+01 0.382511486396759D+01 0.789628125666317D+01
 0.203769566096399D+03 -.166422128405841D+03 -.108052371836665D+03 0.463723644475411D+02
 0.453190617719295D+03 0.433542356647648D+03 0.932598228222730D+02 0.202512983375880D+02
 0.411110930230584D+03 -.338877304217826D+03 0.247633401970490D+02 -.231432812330923D+03
0.407737365062D-04 0.000000000000D+00 0.000000000000D+00 0.157337306874D-06 0.000000000000D+00  7 -2 2 23 -13 13 23 21 0 0.14702948D+00 0.21348613D-01 0.12028678D+06 0.12028678D+06 0.12028678D+06 0.11151981D+01  1  2  2  1  7  1       -2 0.414299492869D-03 0.100000000000D+01
-.225865003320D-05 0.000000000000D+00 -.156581884155D-06 0.157337306874D-06 0.000000000000D+00  7 -2 2 23 -13 13 23 21 2 0.14702948D+00 0.21348613D-01 0.12028678D+06 0.12028678D+06 0.12028678D+06 0.11151981D+01  1  2  3  1  7  1       -2 -.285421616041D-04 0.100000000000D+01
0.260668724668D-05 0.000000000000D+00 0.000000000000D+00 0.157337306874D-06 0.000000000000D+00  7 -2 2 23 -13 13 23 21 2 0.14702948D+00 0.21348613D-01 0.12028678D+06 0.12028678D+06 0.12028678D+06 0.11151981D+01  1  2 15  1  7  1       -2 0.329402464093D-04 0.100000000000D+01
  </mgrwgt>
  </event>
  <event>
  8     66 0.53686478E-06 0.11241960E+03 0.75467711E-02 0.10146816E+00
       -2 -1    0    0    0  501 0.00000000E+00 0.00000000E+00 0.28750202E+03 0.28750220E+03 0.32000000E+00 0.0000E+00 0.9000E+01
        2 -1    0    0  501    0 0.00000000E+00 0.00000000E+00 -.78378728E+03 0.78378735E+03 0.32000000E+00 0.0000E+00 0.9000E+01
       25  2    1    2    0    0 0.94639362E+02 -.16462183E+03 0.15436206E+03 0.38712923E+03 0.29997406E+03 0.0000E+00 0.0000E+00
       23  2    1    2    0    0 -.94639362E+02 0.16462183E+03 -.65064732E+03 0.68416032E+03 0.93147468E+02 0.0000E+00 0.0000E+00
       23  1    3    3    0    0 0.13357063E+03 -.19251019E+03 0.99212883E+02 0.27029564E+03 0.91188000E+02 0.0000E+00 0.9000E+01
      -11  1    4    4    0    0 0.10044401E+02 -.56181428E+01 -.41545301E+02 0.43109924E+02 0.51099893E-03 0.0000E+00 0.9000E+01
       11  1    4    4    0    0 -.10468376E+03 0.17023997E+03 -.60910202E+03 0.64105040E+03 0.51099893E-03 0.0000E+00 0.9000E+01
       23  1    3    3    0    0 -.38931269E+02 0.27888354E+02 0.55149178E+02 0.11683359E+03 0.91188000E+02 0.0000E+00 0.9000E+01
#aMCatNLO 1  0  0  2  1 0.47800497D+01 0.00000000D+00  -5  7  0 0.00000000D+00 0.00000000D+00 0.00000000D+00 0.00000000D+00 0.00000000D+00
  <mgrwgt>
 0.2210232055D-03   11    2    0
 0.474700493309398D+03 0.000000000000000D+00 0.000000000000000D+00 0.474700493309398D+03
 0.474700493309398D+03 0.000000000000000D+00 0.000000000000000D+00 -.474700493309398D+03
 0.356859523844063D+03 0.133570630449128D+03 -.192510185234345D+03 0.253243328987501D+03
 0.269273896770624D+02 0.100444012858199D+02 -.561814283715873D+01 -.243440092977938D+02
 0.404952427146990D+03 -.104683762822077D+03 0.170239973960092D+03 -.352201830375307D+03
 0.160661645950682D+03 -.389312689128716D+02 0.278883541114115D+02 0.123302510685600D+03
 0.000000000000000D+00 -.000000000000000D+00 0.000000000000000D+00 -.000000000000000D+00
 0.474866103229776D+03 0.000000000000000D+00 0.000000000000000D+00 0.474866103229776D+03
 0.510498856507364D+03 0.000000000000000D+00 0.000000000000000D+00 -.510498856507364D+03
 0.357875123942609D+03 0.135211343261265D+03 -.193248704962674D+03 0.253243328987501D+03
 0.269854564990658D+02 0.101681611983047D+02 -.567384980566059D+01 -.243440092977938D+02
 0.404125129251914D+03 -.102826480658819D+03 0.169403971761235D+03 -.352201830375307D+03
 0.160427310160244D+03 -.381941915013339D+02 0.275565798937059D+02 0.123302510685600D+03
 0.359519398833060D+02 -.435883229941705D+01 0.196200311339343D+01 -.356327532775878D+02
0.807586866323D-05 0.000000000000D+00 0.000000000000D+00 0.877659807335D-06 0.000000000000D+00  7 -2 2 23 -11 11 23 21 0 0.44231099D-01 0.12058268D+00 0.80028719D+05 0.80028719D+05 0.80028719D+05 0.11297494D+01  1  2  2  2  7  2        2 0.176290198123D-03 0.100000000000D+01
-.302505715431D-06 0.000000000000D+00 -.310134620918D-07 0.877659807335D-06 0.000000000000D+00  7 -2 2 23 -11 11 23 21 2 0.44231099D-01 0.12058268D+00 0.80028719D+05 0.80028719D+05 0.80028719D+05 0.11297494D+01  1  2  3  2  7  2        2 -.842823676855D-05 0.100000000000D+01
0.495105226104D-06 0.000000000000D+00 0.000000000000D+00 0.877659807335D-06 0.000000000000D+00  7 -2 2 23 -11 11 23 21 2 0.44231099D-01 0.12058268D+00 0.80028719D+05 0.80028719D+05 0.80028719D+05 0.11297494D+01  1  2 15  2  7  2        2 0.137943313402D-04 0.100000000000D+01
0.399789494262D-03 0.000000000000D+00 0.000000000000D+00 0.877659807335D-06 0.000000000000D+00  7 -2 2 23 -11 11 23 21 2 0.44231099D-01 0.12969627D+00 0.81251794D+05 0.81251794D+05 0.81251794D+05 0.11291973D+01  1  2 12  2  7  2        2 0.101459287475D-01 0.100000000000D+01
-.143932796447D-02 0.000000000000D+00 0.000000000000D+00 0.877659807335D-06 0.000000000000D+00  7 -2 2 23 -11 11 23 21 2 0.44231099D-01 0.12058268D+00 0.80028719D+05 0.80028719D+05 0.80028719D+05 0.11297494D+01  1  2  4  2  7  2        2 -.401017113176D-01 0.100000000000D+01
-.148716707149D-02 0.000000000000D+00 -.143778826477D-04 0.877659807335D-06 0.000000000000D+00  7 -2 2 23 -11 11 23 21 2 0.44231099D-01 0.12969529D+00 0.80028719D+05 0.80028719D+05 0.80028719D+05 0.11297494D+01  1  2  5  2  7  2        2 -.377921563481D-01 0.100000000000D+01
0.148431191453D-02 0.000000000000D+00 0.143398120013D-04 0.877659807335D-06 0.000000000000D+00  7 -2 2 23 -11 11 23 21 2 0.44231099D-01 0.12058268D+00 0.80028719D+05 0.80028719D+05 0.80028719D+05 0.11297494D+01  1  2  6  2  7  2        2 0.413550277430D-01 0.100000000000D+01
0.104259795971D-02 0.000000000000D+00 0.000000000000D+00 0.877659807335D-06 0.261942328325D-06  7 -2 2 23 -11 11 23 21 2 0.44246530D-01 0.12967612D+00 0.81251794D+05 0.81251794D+05 0.81251794D+05 0.11291973D+01  1  2 11  2  7  2        2 0.264469867558D-01 0.100000000000D+01
0.577652566108D-05 0.000000000000D+00 0.000000000000D+00 0.877659807335D-06 0.000000000000D+00  7 -2 21 23 -11 11 23 -2 2 0.44231099D-01 0.12969627D+00 0.81251794D+05 0.81251794D+05 0.81251794D+05 0.11291973D+01  1  2 12  4  7  2        2 0.140877239819D-03 0.100000000000D+01
-.191072651434D-04 0.000000000000D+00 -.176643401201D-06 0.877659807335D-06 0.000000000000D+00  7 -2 21 23 -11 11 23 -2 2 0.44231099D-01 0.12969529D+00 0.80028719D+05 0.80028719D+05 0.80028719D+05 0.11297494D+01  1  2  5  4  7  2        2 -.466939574914D-03 0.100000000000D+01
0.127696784582D-04 0.000000000000D+00 0.000000000000D+00 0.877659807335D-06 0.320718984289D-08  7 -2 21 23 -11 11 23 -2 2 0.44246530D-01 0.12967612D+00 0.81251794D+05 0.81251794D+05 0.81251794D+05 0.11291973D+01  1  2 11  4  7  2        2 0.311353667258D-03 0.100000000000D+01
  </mgrwgt>
  </event>
  <event>
  8     66 0.53686478E-06 0.16561945E+03 0.75467711E-02 0.98282892E-01
       -2 -1    0    0    0  501 0.00000000E+00 0.00000000E+00 0.66428106E+02 0.66428876E+02 0.32000000E+00 0.0000E+00 0.9000E+01
        2 -1    0    0  501    0 0.00000000E+00 0.00000000E+00 -.13815348E+04 0.13815348E+04 0.32000000E+00 0.0000E+00 0.9000E+01
       25  2    1    2    0    0 0.20601088E+03 0.54071844E+02 -.90802088E+03 0.97948672E+03 0.29921241E+03 0.0000E+00 0.0000E+00
       23  2    1    2    0    0 -.20601088E+03 -.54071844E+02 -.40708577E+03 0.46847695E+03 0.91583746E+02 0.0000E+00 0.0000E+00
       23  1    3    3    0    0 0.15203917E+03 0.14030223E+03 -.48851429E+03 0.53829554E+03 0.91188000E+02 0.0000E+00 0.9000E+01
      -11  1    4    4    0    0 -.20739082E+03 -.67137148E+02 -.37419282E+03 0.43305729E+03 0.51099893E-03 0.0000E+00 0.9000E+01
       11  1    4    4    0    0 0.13799372E+01 0.13065304E+02 -.32892955E+02 0.35419668E+02 0.51099893E-03 0.0000E+00 0.9000E+01
       23  1    3    3    0    0 0.53971716E+02 -.86230389E+02 -.41950659E+03 0.44119118E+03 0.91188000E+02 0.0000E+00 0.9000E+01
#aMCatNLO 1  0  0  2  1 0.12601558D+03 0.00000000D+00  -5  7  0 0.00000000D+00 0.00000000D+00 0.00000000D+00 0.00000000D+00 0.00000000D+00
  <mgrwgt>
 0.1088576694D-02    8    2    0
 0.302941119578461D+03 0.000000000000000D+00 0.000000000000000D+00 0.302941119578461D+03
 0.302941119578461D+03 0.000000000000000D+00 0.000000000000000D+00 -.302941119578461D+03
 0.226090127345167D+03 0.152039165264273D+03 0.140302233260549D+03 0.932687943288911D+00
 0.222729344803021D+03 -.207390818395528D+03 -.671371477793911D+02 0.457166585575148D+02
 0.132511699760107D+02 0.137993718856535D+01 0.130653037827276D+02 -.172832755974860D+01
 0.143811597032723D+03 0.539717159426901D+02 -.862303892638857D+02 -.449210189410552D+02
 0.000000000000000D+00 -.000000000000000D+00 0.000000000000000D+00 -.000000000000000D+00
 0.323530698870534D+03 0.000000000000000D+00 0.000000000000000D+00 0.323530698870534D+03
 0.590852408791485D+03 0.000000000000000D+00 0.000000000000000D+00 -.590852408791485D+03
 0.240913775816223D+03 0.191931243958586D+03 0.113515301698667D+03 0.932687943288911D+00
 0.199469780452558D+03 -.171326021901642D+03 -.913541168392818D+02 0.457166585575148D+02
 0.122581572764509D+02 0.355897698524671D+01 0.116021112940233D+02 -.172832755974860D+01
 0.166206583861589D+03 0.804538707709120D+02 -.104012758401141D+03 -.449210189410552D+02
 0.295534810255198D+03 -.104618069813103D+03 0.702494622477326D+02 -.267321709920951D+03
0.340852344296D-05 0.000000000000D+00 0.000000000000D+00 0.149296136269D-06 0.000000000000D+00  7 -2 2 23 -11 11 23 21 0 0.10219771D-01 0.21254387D+00 0.88158226D+05 0.88158226D+05 0.88158226D+05 0.11262417D+01  1  2  2  2  7  2        2 0.383944557158D-03 0.100000000000D+01
-.189269448965D-06 0.000000000000D+00 -.130896275058D-07 0.149296136269D-06 0.000000000000D+00  7 -2 2 23 -11 11 23 21 2 0.10219771D-01 0.21254387D+00 0.88158226D+05 0.88158226D+05 0.88158226D+05 0.11262417D+01  1  2  3  2  7  2        2 -.270424462981D-04 0.100000000000D+01
0.219104820400D-06 0.000000000000D+00 0.000000000000D+00 0.149296136269D-06 0.000000000000D+00  7 -2 2 23 -11 11 23 21 2 0.10219771D-01 0.21254387D+00 0.88158226D+05 0.88158226D+05 0.88158226D+05 0.11262417D+01  1  2 15  2  7  2        2 0.313052654389D-04 0.100000000000D+01
0.436474967748D-05 0.000000000000D+00 0.000000000000D+00 0.149296136269D-06 0.000000000000D+00  7 -2 2 23 -11 11 23 21 2 0.10219771D-01 0.41528977D+00 0.13441187D+06 0.13441187D+06 0.13441187D+06 0.11113322D+01  1  2 12  2  7  2        2 0.113493789857D-03 0.100000000000D+01
-.550005843398D-05 0.000000000000D+00 -.955684919934D-06 0.149296136269D-06 0.000000000000D+00  7 -2 2 23 -11 11 23 21 2 0.10219771D-01 0.42106478D+00 0.88158226D+05 0.88158226D+05 0.88158226D+05 0.11262417D+01  1  2  5  2  7  2        2 -.141883027421D-03 0.100000000000D+01
0.510102175410D-05 0.000000000000D+00 0.768900079080D-06 0.149296136269D-06 0.000000000000D+00  7 -2 2 23 -11 11 23 21 2 0.10219771D-01 0.21254387D+00 0.88158226D+05 0.88158226D+05 0.88158226D+05 0.11262417D+01  1  2  6  2  7  2        2 0.728823947050D-03 0.100000000000D+01
0.316785945017D-06 0.000000000000D+00 0.000000000000D+00 0.149296136269D-06 0.000000000000D+00  7 -2 21 23 -11 11 23 -2 2 0.10219771D-01 0.41528977D+00 0.13441187D+06 0.13441187D+06 0.13441187D+06 0.11113322D+01  1  2 12  4  7  2        2 0.813168058225D-06 0.100000000000D+01
-.350147164172D-06 0.000000000000D+00 -.707264480340D-07 0.149296136269D-06 0.000000000000D+00  7 -2 21 23 -11 11 23 -2 2 0.10219771D-01 0.42106478D+00 0.88158226D+05 0.88158226D+05 0.88158226D+05 0.11262417D+01  1  2  5  4  7  2        2 -.878560193034D-06 0.100000000000D+01
  </mgrwgt>
  </event>
  <event>
  8     66 0.53686478E-06 0.16169756E+03 0.75467711E-02 0.94931678E-01
       -2 -1    0    0    0  501 0.00000000E+00 0.00000000E+00 0.14300261E+03 0.14300297E+03 0.32000000E+00 0.0000E+00 0.9000E+01
        2 -1    0    0  501    0 0.00000000E+00 0.00000000E+00 -.14828064E+04 0.14828065E+04 0.32000000E+00 0.0000E+00 0.9000E+01
       25  2    1    2    0    0 -.37212532E+03 -.14015135E+02 -.44047012E+03 0.64814306E+03 0.29563798E+03 0.0000E+00 0.0000E+00
       23  2    1    2    0    0 0.37212532E+03 0.14015135E+02 -.89933371E+03 0.97766639E+03 0.91415392E+02 0.0000E+00 0.0000E+00
       23  1    3    3    0    0 -.32269980E+03 -.89618669E+02 -.32404042E+03 0.47485167E+03 0.91188000E+02 0.0000E+00 0.9000E+01
      -13  1    4    4    0    0 0.47303029E+02 0.20719324E+02 -.70180574E+02 0.87133180E+02 0.10565837E+00 0.0000E+00 0.9000E+01
       13  1    4    4    0    0 0.32482229E+03 -.67041890E+01 -.82915313E+03 0.89053321E+03 0.10565837E+00 0.0000E+00 0.9000E+01
       23  1    3    3    0    0 -.49425522E+02 0.75603534E+02 -.11642970E+03 0.17329138E+03 0.91188000E+02 0.0000E+00 0.9000E+01
#aMCatNLO 1  0  0  2  1 0.11641429D+03 0.00000000D+00  -5  7  0 0.00000000D+00 0.00000000D+00 0.00000000D+00 0.00000000D+00 0.00000000D+00
  <mgrwgt>
 0.6748069367D-03    9    2    0
 0.460483999212220D+03 0.000000000000000D+00 0.000000000000000D+00 0.460483999212220D+03
 0.460483999212220D+03 0.000000000000000D+00 0.000000000000000D+00 -.460483999212220D+03
 0.366861543292556D+03 -.322699799758503D+03 -.896186687519936D+02 0.118766468542004D+03
 0.517209712674022D+02 0.473026585857736D+02 0.207193609334716D+02 0.286800315022725D+01
 0.365848920247608D+03 0.324822663240966D+03 -.670422556652810D+01 -.168198463878064D+03
 0.136536563616873D+03 -.494255220682367D+02 0.756035333850501D+02 0.465639921858324D+02
 0.000000000000000D+00 0.000000000000000D+00 0.000000000000000D+00 -.000000000000000D+00
 0.484810606168397D+03 0.000000000000000D+00 0.000000000000000D+00 0.484810606168397D+03
 0.628121295721292D+03 0.000000000000000D+00 0.000000000000000D+00 -.628121295721292D+03
 0.410937780352920D+03 -.365497287968273D+03 -.113405760062192D+03 0.118766468542004D+03
 0.456339325485641D+02 0.419458201037100D+02 0.177419991433995D+02 0.286800315022725D+01
 0.333283620529697D+03 0.286353721752632D+03 -.280854855905864D+02 -.168198463878064D+03
 0.138441139658147D+03 -.645558450912822D+02 0.671940123977924D+02 0.465639921858324D+02
 0.184635428800361D+03 0.101753591203213D+03 0.565552341115863D+02 -.143310689552895D+03
0.179243047006D-04 0.000000000000D+00 0.000000000000D+00 0.239829611108D-07 0.000000000000D+00  7 -2 2 23 -13 13 23 21 0 0.22000432D-01 0.22812410D+00 0.18147152D+06 0.18147152D+06 0.18147152D+06 0.11010829D+01  1  2  2  2  7  2        2 0.511897198818D-03 0.100000000000D+01
-.988456650589D-06 0.000000000000D+00 -.688340496281D-07 0.239829611108D-07 0.000000000000D+00  7 -2 2 23 -13 13 23 21 2 0.22000432D-01 0.22812410D+00 0.18147152D+06 0.18147152D+06 0.18147152D+06 0.11010829D+01  1  2  3  2  7  2        2 -.342245779432D-04 0.100000000000D+01
0.114206007809D-05 0.000000000000D+00 0.000000000000D+00 0.239829611108D-07 0.000000000000D+00  7 -2 2 23 -13 13 23 21 2 0.22000432D-01 0.22812410D+00 0.18147152D+06 0.18147152D+06 0.18147152D+06 0.11010829D+01  1  2 15  2  7  2        2 0.395429826236D-04 0.100000000000D+01
0.260999215544D-04 0.000000000000D+00 0.000000000000D+00 0.239829611108D-07 0.000000000000D+00  7 -2 2 23 -13 13 23 21 2 0.22000432D-01 0.31554535D+00 0.23690716D+06 0.23690716D+06 0.23690716D+06 0.10922210D+01  1  2 12  2  7  2        2 0.433185493093D-03 0.100000000000D+01
-.272318267538D-04 0.000000000000D+00 0.000000000000D+00 0.239829611108D-07 0.000000000000D+00  7 -2 2 23 -13 13 23 21 2 0.22000432D-01 0.22812410D+00 0.18147152D+06 0.18147152D+06 0.18147152D+06 0.11010829D+01  1  2  4  2  7  2        2 -.942881791238D-03 0.100000000000D+01
-.360287134551D-04 0.000000000000D+00 -.738653271393D-05 0.239829611108D-07 0.000000000000D+00  7 -2 2 23 -13 13 23 21 2 0.22000432D-01 0.31693386D+00 0.18147152D+06 0.18147152D+06 0.18147152D+06 0.11010829D+01  1  2  5  2  7  2        2 -.607134793104D-03 0.100000000000D+01
0.368305778605D-04 0.000000000000D+00 0.700447647916D-05 0.239829611108D-07 0.000000000000D+00  7 -2 2 23 -13 13 23 21 2 0.22000432D-01 0.22812410D+00 0.18147152D+06 0.18147152D+06 0.18147152D+06 0.11010829D+01  1  2  6  2  7  2        2 0.127523142459D-02 0.100000000000D+01
0.106745751331D-05 0.000000000000D+00 0.000000000000D+00 0.239829611108D-07 0.000000000000D+00  7 -2 21 23 -13 13 23 -2 2 0.22000432D-01 0.31554535D+00 0.23690716D+06 0.23690716D+06 0.23690716D+06 0.10922210D+01  1  2 12  4  7  2        2 0.336931703612D-05 0.100000000000D+01
-.129740089590D-05 0.000000000000D+00 -.305040418897D-06 0.239829611108D-07 0.000000000000D+00  7 -2 21 23 -13 13 23 -2 2 0.22000432D-01 0.31693386D+00 0.18147152D+06 0.18147152D+06 0.18147152D+06 0.11010829D+01  1  2  5  4  7  2        2 -.417831717093D-05 0.100000000000D+01
  </mgrwgt>
  </event>
  <event>
  8     66 0.53686478E-06 0.20880575E+03 0.75467711E-02 0.96650184E-01
       -2 -1    0    0    0  501 0.00000000E+00 0.00000000E+00 0.25497532E+03 0.25497552E+03 0.32000000E+00 0.0000E+00 0.9000E+01
        2 -1    0    0  501    0 0.00000000E+00 0.00000000E+00 -.70782238E+03 0.70782245E+03 0.32000000E+00 0.0000E+00 0.9000E+01
       25  2    1    2    0    0 -.29683113E+03 -.83825347E+02 -.46969411E+03 0.63827257E+03 0.30272746E+03 0.0000E+00 0.0000E+00
       23  2    1    2    0    0 0.29683113E+03 0.83825347E+02 0.16847052E+02 0.32452540E+03 0.99486206E+02 0.0000E+00 0.0000E+00
       23  1    3    3    0    0 -.23140420E+03 0.51112415E+02 -.31252008E+03 0.40267162E+03 0.91188000E+02 0.0000E+00 0.9000E+01
      -13  1    4    4    0    0 0.11195997E+03 -.17243727E+02 0.99757874E+01 0.11371855E+03 0.10565837E+00 0.0000E+00 0.9000E+01
       13  1    4    4    0    0 0.18487116E+03 0.10106907E+03 0.68712648E+01 0.21080685E+03 0.10565837E+00 0.0000E+00 0.9000E+01
       23  1    3    3    0    0 -.65426928E+02 -.13493776E+03 -.15717403E+03 0.23560096E+03 0.91188000E+02 0.0000E+00 0.9000E+01
#aMCatNLO 1  0  0  1  2 0.81546592D+02 0.00000000D+00  -5  7  0 0.00000000D+00 0.00000000D+00 0.00000000D+00 0.00000000D+00 0.00000000D+00
  <mgrwgt>
 0.1241925403D-03    9    2    0
 0.424826283220055D+03 0.000000000000000D+00 0.000000000000000D+00 0.424826283220055D+03
 0.424826283220055D+03 0.000000000000000D+00 0.000000000000000D+00 -.424826283220055D+03
 0.289727391848539D+03 -.231404200308071D+03 0.511124113101202D+02 -.139521782289375D+03
 0.134178837296519D+03 0.111959890915992D+03 -.172438519589520D+02 0.719137870922022D+02
 0.242541659150714D+03 0.184871241167767D+03 0.101069199929184D+03 0.120141988656528D+03
 0.183204678144338D+03 -.654269317756877D+02 -.134937759280352D+03 -.525339934593549D+02
 0.000000000000000D+00 -.000000000000000D+00 0.000000000000000D+00 0.000000000000000D+00
 0.498120311334968D+03 0.000000000000000D+00 0.000000000000000D+00 0.498120311334968D+03
 0.450081181503034D+03 0.000000000000000D+00 0.000000000000000D+00 -.450081181503034D+03
 0.268370348074644D+03 -.204971803274800D+03 0.471977172199918D+02 -.139521782289375D+03
 0.145667441005755D+03 0.125213855960515D+03 -.192067923069368D+02 0.719137870922022D+02
 0.259786880033715D+03 0.208662320111561D+03 0.975456906529795D+02 0.120141988656528D+03
 0.179732200870703D+03 -.482376636638653D+02 -.137483526363311D+03 -.525339934593549D+02
 0.946446228531853D+02 -.806667091334104D+02 0.119469107972760D+02 0.480391298319336D+02
0.290508416640D-05 0.000000000000D+00 0.000000000000D+00 0.423265399849D-09 0.000000000000D+00  7 -2 2 23 -13 13 23 21 0 0.39226994D-01 0.10889577D+00 0.14190537D+06 0.14190537D+06 0.14190537D+06 0.11094582D+01  1  2  2  1  7  1       -2 0.890781344023D-04 0.100000000000D+01
-.158557349352D-06 0.000000000000D+00 -.111562881252D-07 0.423265399849D-09 0.000000000000D+00  7 -2 2 23 -13 13 23 21 2 0.39226994D-01 0.10889577D+00 0.14190537D+06 0.14190537D+06 0.14190537D+06 0.11094582D+01  1  2  3  1  7  1       -2 -.598440023479D-05 0.100000000000D+01
0.183588506259D-06 0.000000000000D+00 0.000000000000D+00 0.423265399849D-09 0.000000000000D+00  7 -2 2 23 -13 13 23 21 2 0.39226994D-01 0.10889577D+00 0.14190537D+06 0.14190537D+06 0.14190537D+06 0.11094582D+01  1  2 15  1  7  1       -2 0.692914648517D-05 0.100000000000D+01
0.400259304162D-05 0.000000000000D+00 0.000000000000D+00 0.423265399849D-09 0.000000000000D+00  7 -2 2 23 -13 13 23 21 2 0.47012821D-01 0.10889577D+00 0.17627269D+06 0.17627269D+06 0.17627269D+06 0.11020626D+01  1  2 12  1  7  1       -2 0.105225437718D-03 0.100000000000D+01
-.402827830951D-05 0.000000000000D+00 0.000000000000D+00 0.423265399849D-09 0.000000000000D+00  7 -2 2 23 -13 13 23 21 2 0.39226994D-01 0.10889577D+00 0.14190537D+06 0.14190537D+06 0.14190537D+06 0.11094582D+01  1  2  4  1  7  1       -2 -.152038551096D-03 0.100000000000D+01
-.793596697004D-05 0.000000000000D+00 -.195436191197D-05 0.423265399849D-09 0.000000000000D+00  7 -2 2 23 -13 13 23 21 2 0.48318780D-01 0.10889577D+00 0.14190537D+06 0.14190537D+06 0.14190537D+06 0.11094582D+01  1  2  5  1  7  1       -2 -.201384423103D-03 0.100000000000D+01
0.820613100630D-05 0.000000000000D+00 0.191265537073D-05 0.423265399849D-09 0.000000000000D+00  7 -2 2 23 -13 13 23 21 2 0.39226994D-01 0.10889577D+00 0.14190537D+06 0.14190537D+06 0.14190537D+06 0.11094582D+01  1  2  6  1  7  1       -2 0.309722460178D-03 0.100000000000D+01
0.106047566993D-06 0.000000000000D+00 0.000000000000D+00 0.423265399849D-09 0.000000000000D+00  7 21 2 23 -13 13 23 2 2 0.47012821D-01 0.10889577D+00 0.17627269D+06 0.17627269D+06 0.17627269D+06 0.11020626D+01  1  2 12  3  7  1       -2 0.298731576307D-04 0.100000000000D+01
-.210238969534D-06 0.000000000000D+00 -.577251610396D-07 0.423265399849D-09 0.000000000000D+00  7 21 2 23 -13 13 23 2 2 0.48318780D-01 0.10889577D+00 0.14190537D+06 0.14190537D+06 0.14190537D+06 0.11094582D+01  1  2  5  3  7  1       -2 -.572284216688D-04 0.100000000000D+01
  </mgrwgt>
  </event>
  <event>
  8     66 0.53686478E-06 0.13517659E+03 0.75467711E-02 0.99903639E-01
       -2 -1    0    0    0  501 0.00000000E+00 0.00000000E+00 0.57157861E+02 0.57158757E+02 0.32000000E+00 0.0000E+00 0.9000E+01
        2 -1    0    0  501    0 0.00000000E+00 0.00000000E+00 -.14104059E+04 0.14104059E+04 0.32000000E+00 0.0000E+00 0.9000E+01
       25  2    1    2    0    0 0.15929472E+03 -.93014720E+02 -.72852915E+03 0.80953135E+03 0.30093144E+03 0.0000E+00 0.0000E+00
       23  2    1    2    0    0 -.15929472E+03 0.93014720E+02 -.62471886E+03 0.65803332E+03 0.93314799E+02 0.0000E+00 0.0000E+00
       23  1    3    3    0    0 0.67031992E+02 -.30389425E+02 -.61516146E+03 0.62622335E+03 0.91188000E+02 0.0000E+00 0.9000E+01
      -11  1    4    4    0    0 -.95846750E+02 0.54940318E+02 -.21538930E+03 0.24206939E+03 0.51099893E-03 0.0000E+00 0.9000E+01
       11  1    4    4    0    0 -.63447966E+02 0.38074402E+02 -.40932956E+03 0.41596393E+03 0.51099893E-03 0.0000E+00 0.9000E+01
       23  1    3    3    0    0 0.92262725E+02 -.62625295E+02 -.11336769E+03 0.18330800E+03 0.91188000E+02 0.0000E+00 0.9000E+01
#aMCatNLO 1  0  0  1  2 0.17313772D+03 0.00000000D+00  -5  7  0 0.00000000D+00 0.00000000D+00 0.00000000D+00 0.00000000D+00 0.00000000D+00
  <mgrwgt>
 0.2043345632D-03    9    2    0
 0.283930391085796D+03 0.000000000000000D+00 0.000000000000000D+00 0.283930391085796D+03
 0.283930391085796D+03 0.000000000000000D+00 0.000000000000000D+00 -.283930391085796D+03
 0.152426853391168D+03 0.670319915330215D+02 -.303894250601804D+02 -.974776345956401D+02
 0.112311574270585D+03 -.958467501917919D+02 0.549403177354990D+02 0.202200811059632D+02
 0.995482663537653D+02 -.634479665126345D+02 0.380744020287581D+02 -.665924379310768D+02
 0.203574088156075D+03 0.922627251714048D+02 -.626252947040768D+02 0.143849991420754D+03
 0.000000000000000D+00 0.000000000000000D+00 -.000000000000000D+00 0.000000000000000D+00
 0.436251585131589D+03 0.000000000000000D+00 0.000000000000000D+00 0.436251585131589D+03
 0.350587880891848D+03 0.000000000000000D+00 0.000000000000000D+00 -.350587880891848D+03
 0.149487759576083D+03 0.656997466378451D+02 0.145942784829716D+02 -.974776345956401D+02
 0.135024636405072D+03 -.969381594509411D+02 0.917921238377998D+02 0.202200811059632D+02
 0.116248765731946D+03 -.644002042713997D+02 0.702270349252939D+02 -.665924379310768D+02
 0.192907549210889D+03 0.905131886643043D+02 -.355159747447750D+01 0.143849991420754D+03
 0.193170755099448D+03 0.512542842019130D+01 -.173061839771588D+03 0.856637042397411D+02
0.160887551877D-05 0.000000000000D+00 0.000000000000D+00 0.349549757782D-07 0.000000000000D+00  7 -2 2 23 -11 11 23 21 0 0.87935888D-02 0.21698559D+00 0.49662735D+05 0.49662735D+05 0.49662735D+05 0.11475540D+01  1  2  2  1  7  1       -2 0.220808556469D-03 0.100000000000D+01
-.830057147137D-07 0.000000000000D+00 -.617850561873D-08 0.349549757782D-07 0.000000000000D+00  7 -2 2 23 -11 11 23 21 2 0.87935888D-02 0.21698559D+00 0.49662735D+05 0.49662735D+05 0.49662735D+05 0.11475540D+01  1  2  3  1  7  1       -2 -.150019505096D-04 0.100000000000D+01
0.101287705617D-06 0.000000000000D+00 0.000000000000D+00 0.349549757782D-07 0.000000000000D+00  7 -2 2 23 -11 11 23 21 2 0.87935888D-02 0.21698559D+00 0.49662735D+05 0.49662735D+05 0.49662735D+05 0.11475540D+01  1  2 15  1  7  1       -2 0.183061268990D-04 0.100000000000D+01
0.766770957544D-07 0.000000000000D+00 0.000000000000D+00 0.349549757782D-07 0.000000000000D+00  7 -2 2 23 -11 11 23 21 2 0.14096335D-01 0.21698559D+00 0.10361681D+06 0.10361681D+06 0.10361681D+06 0.11204580D+01  1  2 12  1  7  1       -2 0.630725547631D-05 0.100000000000D+01
-.733777535317D-06 0.000000000000D+00 0.000000000000D+00 0.349549757782D-07 0.000000000000D+00  7 -2 2 23 -11 11 23 21 2 0.87935888D-02 0.21698559D+00 0.49662735D+05 0.49662735D+05 0.49662735D+05 0.11475540D+01  1  2  4  1  7  1       -2 -.132618510760D-03 0.100000000000D+01
-.521878630647D-06 0.000000000000D+00 -.523295304318D-06 0.349549757782D-07 0.000000000000D+00  7 -2 2 23 -11 11 23 21 2 0.16910448D-01 0.21698559D+00 0.49662735D+05 0.49662735D+05 0.49662735D+05 0.11475540D+01  1  2  5  1  7  1       -2 -.340709939908D-04 0.100000000000D+01
0.785056207031D-06 0.000000000000D+00 0.428394719365D-06 0.349549757782D-07 0.000000000000D+00  7 -2 2 23 -11 11 23 21 2 0.87935888D-02 0.21698559D+00 0.49662735D+05 0.49662735D+05 0.49662735D+05 0.11475540D+01  1  2  6  1  7  1       -2 0.141886307536D-03 0.100000000000D+01
0.413200277691D-08 0.000000000000D+00 0.000000000000D+00 0.349549757782D-07 0.000000000000D+00  7 21 2 23 -11 11 23 2 2 0.14096335D-01 0.21698559D+00 0.10361681D+06 0.10361681D+06 0.10361681D+06 0.11204580D+01  1  2 12  3  7  1       -2 0.465505321585D-05 0.100000000000D+01
-.675192437933D-08 0.000000000000D+00 -.371306208443D-07 0.349549757782D-07 0.000000000000D+00  7 21 2 23 -11 11 23 2 2 0.16910448D-01 0.21698559D+00 0.49662735D+05 0.49662735D+05 0.49662735D+05 0.11475540D+01  1  2  5  3  7  1       -2 -.593728113176D-05 0.100000000000D+01
  </mgrwgt>
  </event>
  <event>
  8     66 0.53686478E-06 0.72362678E+03 0.75467711E-02 0.81189098E-01
       -2 -1    0    0    0  501 0.00000000E+00 0.00000000E+00 0.20265242E+04 0.20265243E+04 0.32000000E+00 0.0000E+00 0.9000E+01
        2 -1    0    0  501    0 0.00000000E+00 0.00000000E+00 -.19722706E+04 0.19722707E+04 0.32000000E+00 0.0000E+00 0.9000E+01
       25  2    1    2    0    0 -.35806137E+03 0.12611957E+04 -.14656239E+04 0.19892484E+04 0.30038823E+03 0.0000E+00 0.0000E+00
       23  2    1    2    0    0 0.35806137E+03 -.12611957E+04 0.15198775E+04 0.20095465E+04 0.97092601E+02 0.0000E+00 0.0000E+00
       23  1    3    3    0    0 -.27883128E+03 0.85262027E+03 -.11372466E+04 0.14513281E+04 0.91188000E+02 0.0000E+00 0.9000E+01
      -11  1    4    4    0    0 0.79159204E+02 -.32014200E+03 0.32206144E+03 0.46095624E+03 0.51099893E-03 0.0000E+00 0.9000E+01
       11  1    4    4    0    0 0.27890216E+03 -.94105370E+03 0.11978161E+04 0.15485903E+04 0.51099893E-03 0.0000E+00 0.9000E+01
       23  1    3    3    0    0 -.79230083E+02 0.40857544E+03 -.32837731E+03 0.53792026E+03 0.91188000E+02 0.0000E+00 0.9000E+01
#aMCatNLO 1  0  0  2  1 0.12289061D+04 0.00000000D+00  -5  7  0 0.00000000D+00 0.00000000D+00 0.00000000D+00 0.00000000D+00 0.00000000D+00
  <mgrwgt>
 0.1148321239D-03    7    2    0
 0.199921343636122D+04 0.000000000000000D+00 0.000000000000000D+00 0.199921343636122D+04
 0.199921343636122D+04 0.000000000000000D+00 0.000000000000000D+00 -.199921343636122D+04
 0.146689273675942D+04 -.278831282484232D+03 0.852620265031870D+03 -.115704401358752D+04
 0.456628702703038D+03 0.791592043900556D+02 -.320142002865684D+03 0.315836493290027D+03
 0.153247999551276D+04 0.278902161405275D+03 -.941053700540941D+03 0.117691395340036D+04
 0.542425437747216D+03 -.792300833110979D+02 0.408575438374756D+03 -.335706433102870D+03
 0.000000000000000D+00 -.000000000000000D+00 0.000000000000000D+00 -.000000000000000D+00
 0.220735920087688D+04 0.000000000000000D+00 0.000000000000000D+00 0.220735920087688D+04
 0.535046061070373D+04 0.000000000000000D+00 0.000000000000000D+00 -.535046061070373D+04
 0.125962412603278D+04 -.179960394698499D+03 0.455193469308473D+03 -.115704401358752D+04
 0.579067200664537D+03 0.116716343624886D+03 -.471108721552212D+03 0.315836493290027D+03
 0.190459749805049D+04 0.403539902625386D+03 -.144205434116084D+04 0.117691395340036D+04
 0.439727763679581D+03 -.436145474998790D+02 0.265413294366304D+03 -.335706433102870D+03
 0.337480322315322D+04 -.296681304051893D+03 0.119255629903828D+04 -.314310140982685D+04
0.636306129284D-02 0.000000000000D+00 0.000000000000D+00 0.104997735652D-05 0.000000000000D+00  7 -2 2 23 -11 11 23 21 0 0.31177296D+00 0.30342626D+00 0.17411254D+07 0.17411254D+07 0.17411254D+07 0.10321993D+01  1  2  2  2  7  2        2 0.113551668615D-03 0.100000000000D+01
-.279305432525D-03 0.000000000000D+00 -.244358307970D-04 0.104997735652D-05 0.000000000000D+00  7 -2 2 23 -11 11 23 21 2 0.31177296D+00 0.30342626D+00 0.17411254D+07 0.17411254D+07 0.17411254D+07 0.10321993D+01  1  2  3  2  7  2        2 -.531048123393D-05 0.100000000000D+01
0.356175440401D-03 0.000000000000D+00 0.000000000000D+00 0.104997735652D-05 0.000000000000D+00  7 -2 2 23 -11 11 23 21 2 0.31177296D+00 0.30342626D+00 0.17411254D+07 0.17411254D+07 0.17411254D+07 0.10321993D+01  1  2 15  2  7  2        2 0.677202364141D-05 0.100000000000D+01
0.648451179585D-04 0.000000000000D+00 0.000000000000D+00 0.104997735652D-05 0.000000000000D+00  7 -2 2 23 -11 11 23 21 2 0.31177296D+00 0.79907543D+00 0.39872468D+07 0.39872468D+07 0.39872468D+07 0.10100754D+01  1  2 12  2  7  2        2 0.226070431420D-08 0.100000000000D+01
-.669621900951D-02 0.000000000000D+00 -.153240585573D-02 0.104997735652D-05 0.000000000000D+00  7 -2 2 23 -11 11 23 21 2 0.31177296D+00 0.81687060D+00 0.17411254D+07 0.17411254D+07 0.17411254D+07 0.10321993D+01  1  2  5  2  7  2        2 -.183267454581D-06 0.100000000000D+01
0.697266574603D-05 0.000000000000D+00 0.000000000000D+00 0.104997735652D-05 0.000000000000D+00  7 -2 21 23 -11 11 23 -2 2 0.31177296D+00 0.79907543D+00 0.39872468D+07 0.39872468D+07 0.39872468D+07 0.10100754D+01  1  2 12  4  7  2        2 0.124785980125D-11 0.100000000000D+01
-.649854701279D-03 0.000000000000D+00 -.169192387123D-03 0.104997735652D-05 0.000000000000D+00  7 -2 21 23 -11 11 23 -2 2 0.31177296D+00 0.81687060D+00 0.17411254D+07 0.17411254D+07 0.17411254D+07 0.10321993D+01  1  2  5  4  7  2        2 -.815803249325D-10 0.100000000000D+01
  </mgrwgt>
  </event>
  <event>
  8     66 0.53686478E-06 0.19380229E+03 0.75467711E-02 0.10542058E+00
       -2 -1    0    0    0  501 0.00000000E+00 0.00000000E+00 0.14904468E+03 0.14904502E+03 0.32000000E+00 0.0000E+00 0.9000E+01
        2 -1    0    0  501    0 0.00000000E+00 0.00000000E+00 -.43166906E+03 0.43166918E+03 0.32000000E+00 0.0000E+00 0.9000E+01
       25  2    1    2    0    0 0.76936351E+02 -.91115582E+02 -.87088381E+02 0.33457199E+03 0.30022122E+03 0.0000E+00 0.0000E+00
       23  2    1    2    0    0 -.76936351E+02 0.91115582E+02 -.19553600E+03 0.24614221E+03 0.90168768E+02 0.0000E+00 0.0000E+00
       23  1    3    3    0    0 -.10798423E+02 -.87838902E+02 0.59990242E+02 0.14052174E+03 0.91188000E+02 0.0000E+00 0.9000E+01
      -11  1    4    4    0    0 -.87330742E+02 0.77072632E+02 -.11481554E+03 0.16355261E+03 0.51099893E-03 0.0000E+00 0.9000E+01
       11  1    4    4    0    0 0.10394391E+02 0.14042950E+02 -.80720467E+02 0.82589598E+02 0.51099893E-03 0.0000E+00 0.9000E+01
       23  1    3    3    0    0 0.87734774E+02 -.32766802E+01 -.14707862E+03 0.19405025E+03 0.91188000E+02 0.0000E+00 0.9000E+01
#aMCatNLO 1  0  0  1  1 0.35522371D+02 0.00000000D+00  -5  7  0 0.00000000D+00 0.00000000D+00 0.00000000D+00 0.00000000D+00 0.00000000D+00
  <mgrwgt>
 0.3762210672D-04    4    2    0
 0.253649579588530D+03 0.000000000000000D+00 0.000000000000000D+00 0.253649579588530D+03
 0.253649579588530D+03 0.000000000000000D+00 0.000000000000000D+00 -.253649579588530D+03
 0.194279198455826D+03 -.107984233221822D+02 -.878389016193999D+02 0.146958759605171D+03
 0.123255975841093D+03 -.873307419017298D+02 0.770726318808386D+02 -.403136021014532D+02
 0.495711043224980D+02 0.103943911906096D+02 0.140429499276836D+02 -.463901559908686D+02
 0.140192880557644D+03 0.877347740333024D+02 -.327668018912234D+01 -.602550015128491D+02
 0.000000000000000D+00 -.000000000000000D+00 0.000000000000000D+00 -.000000000000000D+00
 0.267059180418924D+03 0.000000000000000D+00 0.000000000000000D+00 0.267059180418924D+03
 0.278938075521170D+03 0.000000000000000D+00 0.000000000000000D+00 -.278938075521170D+03
 0.195576545392421D+03 0.239236673431976D+01 -.912816154565182D+02 0.146958759605171D+03
 0.116277979137709D+03 -.792260976547571D+02 0.749573703404413D+02 -.403136021014532D+02
 0.501484109805677D+02 0.137684063530253D+02 0.131623530387528D+02 -.463901559908686D+02
 0.146538386085198D+03 0.974363418583306D+02 -.580872881167650D+01 -.602550015128491D+02
 0.374559343441994D+02 -.343710172909187D+02 0.897062088900071D+01 -.118788951022462D+02
0.119537390299D-05 0.000000000000D+00 0.000000000000D+00 0.126498635948D-06 0.000000000000D+00  7 -2 2 23 -11 11 23 21 0 0.22929986D-01 0.66410660D-01 0.37559327D+05 0.37559327D+05 0.37559327D+05 0.11583876D+01  1  2  2  1  7  1       -2 0.165701312392D-03 0.100000000000D+01
-.605619055504D-07 0.000000000000D+00 -.459055053667D-08 0.126498635948D-06 0.000000000000D+00  7 -2 2 23 -11 11 23 21 2 0.22929986D-01 0.66410660D-01 0.37559327D+05 0.37559327D+05 0.37559327D+05 0.11583876D+01  1  2  3  1  7  1       -2 -.112649565393D-04 0.100000000000D+01
0.731589605037D-07 0.000000000000D+00 0.000000000000D+00 0.126498635948D-06 0.000000000000D+00  7 -2 2 23 -11 11 23 21 2 0.22929986D-01 0.66410660D-01 0.37559327D+05 0.37559327D+05 0.37559327D+05 0.11583876D+01  1  2 15  1  7  1       -2 0.136081007201D-04 0.100000000000D+01
-.701167910029D-06 0.000000000000D+00 0.000000000000D+00 0.126498635948D-06 0.000000000000D+00  7 -2 2 23 -11 11 23 21 2 0.22929986D-01 0.66410660D-01 0.37559327D+05 0.37559327D+05 0.37559327D+05 0.11583876D+01  1  2  4  1  7  1       -2 -.130422349849D-03 0.100000000000D+01
  </mgrwgt>
  </event>
  <event>
  8     66 0.53686478E-06 0.18880577E+03 0.75467711E-02 0.10172659E+00
       -2 -1    0    0    0  501 0.00000000E+00 0.00000000E+00 0.36372489E+02 0.36373897E+02 0.32000000E+00 0.0000E+00 0.9000E+01
        2 -1    0    0  501    0 0.00000000E+00 0.00000000E+00 -.20789388E+04 0.20789388E+04 0.32000000E+00 0.0000E+00 0.9000E+01
       25  2    1    2    0    0 0.46867068E+02 0.10801984E+02 -.19669103E+04 0.19904103E+04 0.30113785E+03 0.0000E+00 0.0000E+00
       23  2    1    2    0    0 -.46867068E+02 -.10801984E+02 -.75656042E+02 0.12490241E+03 0.86968787E+02 0.0000E+00 0.0000E+00
       23  1    3    3    0    0 0.13958894E+03 -.23202745E+02 -.97366745E+03 0.98811285E+03 0.91188000E+02 0.0000E+00 0.9000E+01
      -11  1    4    4    0    0 -.38701307E+02 0.19592163E+02 -.45384066E+00 0.43380295E+02 0.51099893E-03 0.0000E+00 0.9000E+01
       11  1    4    4    0    0 -.81657608E+01 -.30394147E+02 -.75202202E+02 0.81522113E+02 0.51099893E-03 0.0000E+00 0.9000E+01
       23  1    3    3    0    0 -.92721870E+02 0.34004729E+02 -.99324283E+03 0.10022975E+04 0.91188000E+02 0.0000E+00 0.9000E+01
#aMCatNLO 1  0  0  1  1 0.13928686D+03 0.00000000D+00  -5  7  0 0.00000000D+00 0.00000000D+00 0.00000000D+00 0.00000000D+00 0.00000000D+00
  <mgrwgt>
 0.3033746575D-03    7    2    0
 0.274986715681709D+03 0.000000000000000D+00 0.000000000000000D+00 0.274986715681709D+03
 0.274986715681709D+03 0.000000000000000D+00 0.000000000000000D+00 -.274986715681709D+03
 0.184349521163673D+03 0.139588937745142D+03 -.232027450033181D+02 -.751402401697596D+02
 0.165164144123009D+03 -.387013071728951D+02 0.195921632200530D+02 0.159366089452412D+03
 0.342548908469845D+02 -.816576079365306D+01 -.303941471132911D+02 0.135245598396134D+02
 0.166204875229751D+03 -.927218697785943D+02 0.340047288965561D+02 -.977504091222658D+02
 0.000000000000000D+00 0.000000000000000D+00 -.000000000000000D+00 0.000000000000000D+00
 0.354644168639256D+03 0.000000000000000D+00 0.000000000000000D+00 0.354644168639256D+03
 0.352004983045412D+03 0.000000000000000D+00 0.000000000000000D+00 -.352004983045412D+03
 0.176686336627121D+03 0.129722189719542D+03 0.207100943578363D+02 -.751402401697596D+02
 0.177368696612284D+03 -.480623862931491D+02 0.612544781578806D+02 0.159366089452412D+03
 0.282793565926255D+02 -.987475908050670D+01 -.227880982870343D+02 0.135245598396134D+02
 0.185002903059473D+03 -.102320026244866D+03 0.767221776418810D+02 -.977504091222658D+02
 0.139311858793164D+03 0.305349818989806D+02 -.135898651870564D+03 0.263918559384399D+01
0.239357861004D-05 0.000000000000D+00 0.000000000000D+00 0.851577382650D-08 0.000000000000D+00  7 -2 2 23 -11 11 23 21 0 0.55958777D-02 0.31983685D+00 0.35647620D+05 0.35647620D+05 0.35647620D+05 0.11604489D+01  1  2  2  1  7  1       -2 0.287120577023D-03 0.100000000000D+01
-.110118415147D-06 0.000000000000D+00 -.919197210628D-08 0.851577382650D-08 0.000000000000D+00  7 -2 2 23 -11 11 23 21 2 0.55958777D-02 0.31983685D+00 0.35647620D+05 0.35647620D+05 0.35647620D+05 0.11604489D+01  1  2  3  1  7  1       -2 -.177880602484D-04 0.100000000000D+01
0.143243699496D-06 0.000000000000D+00 0.000000000000D+00 0.851577382650D-08 0.000000000000D+00  7 -2 2 23 -11 11 23 21 2 0.55958777D-02 0.31983685D+00 0.35647620D+05 0.35647620D+05 0.35647620D+05 0.11604489D+01  1  2 15  1  7  1       -2 0.231389777399D-04 0.100000000000D+01
-.720932392690D-06 0.000000000000D+00 0.000000000000D+00 0.851577382650D-08 0.000000000000D+00  7 -2 2 23 -11 11 23 21 2 0.55958777D-02 0.31983685D+00 0.35647620D+05 0.35647620D+05 0.35647620D+05 0.11604489D+01  1  2  4  1  7  1       -2 -.116456351275D-03 0.100000000000D+01
-.425580281735D-06 0.000000000000D+00 -.823080999351D-06 0.851577382650D-08 0.000000000000D+00  7 -2 2 23 -11 11 23 21 2 0.99132537D-02 0.31983685D+00 0.35647620D+05 0.35647620D+05 0.35647620D+05 0.11604489D+01  1  2  5  1  7  1       -2 -.292279660653D-04 0.100000000000D+01
0.868698311445D-06 0.000000000000D+00 0.704688894097D-06 0.851577382650D-08 0.000000000000D+00  7 -2 2 23 -11 11 23 21 2 0.55958777D-02 0.31983685D+00 0.35647620D+05 0.35647620D+05 0.35647620D+05 0.11604489D+01  1  2  6  1  7  1       -2 0.140325829073D-03 0.100000000000D+01
0.158761695012D-07 0.000000000000D+00 -.518184667864D-07 0.851577382650D-08 0.000000000000D+00  7 21 2 23 -11 11 23 2 2 0.99132537D-02 0.31983685D+00 0.35647620D+05 0.35647620D+05 0.35647620D+05 0.11604489D+01  1  2  5  3  7  1       -2 0.162616512230D-04 0.100000000000D+01
  </mgrwgt>
  </event>
  <event>
  8     66 0.53686478E-06 0.10263865E+03 0.75467711E-02 0.10739521E+00
       -2 -1    0    0    0  501 0.00000000E+00 0.00000000E+00 0.68462574E+02 0.68463322E+02 0.32000000E+00 0.0000E+00 0.9000E+01
        2 -1    0    0  501    0 0.00000000E+00 0.00000000E+00 -.61544146E+03 0.61544154E+03 0.32000000E+00 0.0000E+00 0.9000E+01
       25  2    1    2    0    0 0.48905553E+02 0.36719228E+02 -.39035791E+03 0.49221059E+03 0.29351646E+03 0.0000E+00 0.0000E+00
       23  2    1    2    0    0 -.48905553E+02 -.36719228E+02 -.15662097E+03 0.19169427E+03 0.92067967E+02 0.0000E+00 0.0000E+00
       23  1    3    3    0    0 -.55133641E+02 0.87648848E+02 -.11395163E+03 0.17894766E+03 0.91188000E+02 0.0000E+00 0.9000E+01
      -11  1    4    4    0    0 -.20289094E+02 -.33845699E+02 -.79333659E+01 0.40250677E+02 0.51099893E-03 0.0000E+00 0.9000E+01
       11  1    4    4    0    0 -.28616459E+02 -.28735294E+01 -.14868760E+03 0.15144359E+03 0.51099893E-03 0.0000E+00 0.9000E+01
       23  1    3    3    0    0 0.10403919E+03 -.50929619E+02 -.27640629E+03 0.31326294E+03 0.91188000E+02 0.0000E+00 0.9000E+01
#aMCatNLO 1  0  0  2  1 0.17026231D+02 0.00000000D+00  -5  7  0 0.00000000D+00 0.00000000D+00 0.00000000D+00 0.00000000D+00 0.00000000D+00
  <mgrwgt>
 0.1391307821D-02    9    2    0
 0.205268094263260D+03 0.000000000000000D+00 0.000000000000000D+00 0.205268094263260D+03
 0.205268094263260D+03 0.000000000000000D+00 0.000000000000000D+00 -.205268094263260D+03
 0.146281960123819D+03 -.551336404273968D+02 0.876488484072830D+02 0.485913735118299D+02
 0.564828396228356D+02 -.202890954141573D+02 -.338456992068766D+02 0.404120331625597D+02
 0.541828751328666D+02 -.286164594009513D+02 -.287353056933408D+01 -.459197673239383D+02
 0.153588513646999D+03 0.104039195242505D+03 -.509296186310723D+02 -.430836393504514D+02
 0.000000000000000D+00 0.000000000000000D+00 0.000000000000000D+00 -.000000000000000D+00
 0.209053049463832D+03 0.000000000000000D+00 0.000000000000000D+00 0.209053049463832D+03
 0.225528567192690D+03 0.000000000000000D+00 0.000000000000000D+00 -.225528567192690D+03
 0.142836844616880D+03 -.552983240874567D+02 0.816583529680782D+02 0.485913735118299D+02
 0.579576759343967D+02 -.203542813607373D+02 -.362168884040673D+02 0.404120331625597D+02
 0.543811965648731D+02 -.286782980928144D+02 -.512296078868660D+01 -.459197673239383D+02
 0.155713385475030D+03 0.103863015180968D+03 -.573383045610299D+02 -.430836393504514D+02
 0.236925140653427D+02 0.467888360040595D+00 0.170198007857056D+02 -.164755177288575D+02
0.272328274921D-05 0.000000000000D+00 0.000000000000D+00 0.880387696377D-09 0.000000000000D+00  7 -2 2 23 -11 11 23 21 0 0.10532768D-01 0.94683365D-01 0.31261619D+05 0.31261619D+05 0.31261619D+05 0.11656797D+01  1  2  2  2  7  2        2 0.875953192640D-03 0.100000000000D+01
-.147196223956D-06 0.000000000000D+00 -.104581228138D-07 0.880387696377D-09 0.000000000000D+00  7 -2 2 23 -11 11 23 21 2 0.10532768D-01 0.94683365D-01 0.31261619D+05 0.31261619D+05 0.31261619D+05 0.11656797D+01  1  2  3  2  7  2        2 -.643344031065D-04 0.100000000000D+01
0.172071393850D-06 0.000000000000D+00 0.000000000000D+00 0.880387696377D-09 0.000000000000D+00  7 -2 2 23 -11 11 23 21 2 0.10532768D-01 0.94683365D-01 0.31261619D+05 0.31261619D+05 0.31261619D+05 0.11656797D+01  1  2 15  2  7  2        2 0.752064836824D-04 0.100000000000D+01
0.116561517769D-04 0.000000000000D+00 0.000000000000D+00 0.880387696377D-09 0.000000000000D+00  7 -2 2 23 -11 11 23 21 2 0.10532768D-01 0.10484598D+00 0.34531913D+05 0.34531913D+05 0.34531913D+05 0.11617091D+01  1  2 12  2  7  2        2 0.450710344042D-02 0.100000000000D+01
-.118318382371D-04 0.000000000000D+00 0.000000000000D+00 0.880387696377D-09 0.000000000000D+00  7 -2 2 23 -11 11 23 21 2 0.10532768D-01 0.94683365D-01 0.31261619D+05 0.31261619D+05 0.31261619D+05 0.11656797D+01  1  2  4  2  7  2        2 -.517128925038D-02 0.100000000000D+01
-.231088570328D-04 0.000000000000D+00 -.351233009683D-05 0.880387696377D-09 0.000000000000D+00  7 -2 2 23 -11 11 23 21 2 0.10532768D-01 0.10521960D+00 0.31261619D+05 0.31261619D+05 0.31261619D+05 0.11656797D+01  1  2  5  2  7  2        2 -.894606858236D-02 0.100000000000D+01
0.233687095990D-04 0.000000000000D+00 0.349286964352D-05 0.880387696377D-09 0.000000000000D+00  7 -2 2 23 -11 11 23 21 2 0.10532768D-01 0.94683365D-01 0.31261619D+05 0.31261619D+05 0.31261619D+05 0.11656797D+01  1  2  6  2  7  2        2 0.102136586321D-01 0.100000000000D+01
0.192510002625D-06 0.000000000000D+00 0.000000000000D+00 0.880387696377D-09 0.000000000000D+00  7 -2 21 23 -11 11 23 -2 2 0.10532768D-01 0.10484598D+00 0.34531913D+05 0.34531913D+05 0.34531913D+05 0.11617091D+01  1  2 12  4  7  2        2 0.101300990134D-03 0.100000000000D+01
-.380274024258D-06 0.000000000000D+00 -.597440013993D-07 0.880387696377D-09 0.000000000000D+00  7 -2 21 23 -11 11 23 -2 2 0.10532768D-01 0.10521960D+00 0.31261619D+05 0.31261619D+05 0.31261619D+05 0.11656797D+01  1  2  5  4  7  2        2 -.200222682588D-03 0.100000000000D+01
  </mgrwgt>
  </event>
  <event>
  8     66 0.53686478E-06 0.12478763E+03 0.75467711E-02 0.10705374E+00
       -2 -1    0    0    0  501 0.00000000E+00 0.00000000E+00 0.20817511E+02 0.20819971E+02 0.32000000E+00 0.0000E+00 0.9000E+01
        2 -1    0    0  501    0 0.00000000E+00 0.00000000E+00 -.28678432E+04 0.28678433E+04 0.32000000E+00 0.0000E+00 0.9000E+01
       25  2    1    2    0    0 0.27721329E+02 -.62281971E+02 -.25930853E+04 0.26112361E+04 0.29969190E+03 0.0000E+00 0.0000E+00
       23  2    1    2    0    0 -.27721329E+02 0.62281971E+02 -.25394044E+03 0.27742711E+03 0.88501630E+02 0.0000E+00 0.0000E+00
       23  1    3    3    0    0 -.84212862E+02 0.15003620E+02 -.15862740E+04 0.15911937E+04 0.91188000E+02 0.0000E+00 0.9000E+01
      -11  1    4    4    0    0 0.11063531E+02 0.17641713E+02 -.18680059E+03 0.18795769E+03 0.51099893E-03 0.0000E+00 0.9000E+01
       11  1    4    4    0    0 -.38784861E+02 0.44640258E+02 -.67139846E+02 0.89469419E+02 0.51099893E-03 0.0000E+00 0.9000E+01
       23  1    3    3    0    0 0.11193419E+03 -.77285591E+02 -.10068113E+04 0.10200424E+04 0.91188000E+02 0.0000E+00 0.9000E+01
#aMCatNLO 1  0  0  2  1 0.14470702D+02 0.00000000D+00  -5  7  0 0.00000000D+00 0.00000000D+00 0.00000000D+00 0.00000000D+00 0.00000000D+00
  <mgrwgt>
 0.6640185993D-03    9    2    0
 0.244345937281331D+03 0.000000000000000D+00 0.000000000000000D+00 0.244345937281331D+03
 0.244345937281331D+03 0.000000000000000D+00 0.000000000000000D+00 -.244345937281331D+03
 0.164234000236224D+03 -.842128619384142D+02 0.150036196375127D+02 -.106492444668654D+03
 0.227553892633116D+02 0.110635312909791D+02 0.176417130031757D+02 -.917474676554852D+01
 0.137710806755083D+03 -.387848607463049D+02 0.446402579560195D+02 0.124367392204088D+03
 0.163991678308043D+03 0.111934191393740D+03 -.772855905967079D+02 -.870020076988519D+01
 0.000000000000000D+00 -.000000000000000D+00 0.000000000000000D+00 -.000000000000000D+00
 0.249386773304344D+03 0.000000000000000D+00 0.000000000000000D+00 0.249386773304344D+03
 0.255063719428035D+03 0.000000000000000D+00 0.000000000000000D+00 -.255063719428035D+03
 0.162220695293942D+03 -.807773307070707D+02 0.116053741854472D+02 -.106492444668654D+03
 0.226309092184155D+02 0.115411658541942D+02 0.171692622021507D+02 -.917474676554852D+01
 0.136025089605096D+03 -.359041295638113D+02 0.417907913145232D+02 0.124367392204088D+03
 0.168029380185757D+03 0.115428301699204D+03 -.807417793649048D+02 -.870020076988519D+01
 0.155444184291677D+02 -.102880072825165D+02 0.101763516627837D+02 -.567694612369146D+01
0.205891946519D-05 0.000000000000D+00 0.000000000000D+00 0.439529114511D-07 0.000000000000D+00  7 -2 2 23 -11 11 23 21 0 0.32028846D-02 0.44120684D+00 0.33993921D+05 0.33993921D+05 0.33993921D+05 0.11623330D+01  1  2  2  2  7  2        2 0.203474602153D-03 0.100000000000D+01
-.103354693278D-06 0.000000000000D+00 -.790679287229D-08 0.439529114511D-07 0.000000000000D+00  7 -2 2 23 -11 11 23 21 2 0.32028846D-02 0.44120684D+00 0.33993921D+05 0.33993921D+05 0.33993921D+05 0.11623330D+01  1  2  3  2  7  2        2 -.137994626654D-04 0.100000000000D+01
0.124119218591D-06 0.000000000000D+00 0.000000000000D+00 0.439529114511D-07 0.000000000000D+00  7 -2 2 23 -11 11 23 21 2 0.32028846D-02 0.44120684D+00 0.33993921D+05 0.33993921D+05 0.33993921D+05 0.11623330D+01  1  2 15  2  7  2        2 0.165718504761D-04 0.100000000000D+01
0.443269337611D-05 0.000000000000D+00 0.000000000000D+00 0.439529114511D-07 0.000000000000D+00  7 -2 2 23 -11 11 23 21 2 0.32028846D-02 0.46496147D+00 0.36181844D+05 0.36181844D+05 0.36181844D+05 0.11598608D+01  1  2 12  2  7  2        2 0.474529965852D-03 0.100000000000D+01
-.417565805745D-05 0.000000000000D+00 0.000000000000D+00 0.439529114511D-07 0.000000000000D+00  7 -2 2 23 -11 11 23 21 2 0.32028846D-02 0.44120684D+00 0.33993921D+05 0.33993921D+05 0.33993921D+05 0.11623330D+01  1  2  4  2  7  2        2 -.557515441626D-03 0.100000000000D+01
-.213464839431D-04 0.000000000000D+00 -.338512212683D-05 0.439529114511D-07 0.000000000000D+00  7 -2 2 23 -11 11 23 21 2 0.32028846D-02 0.46358665D+00 0.33993921D+05 0.33993921D+05 0.33993921D+05 0.11623330D+01  1  2  5  2  7  2        2 -.232769020459D-02 0.100000000000D+01
0.214918039774D-04 0.000000000000D+00 0.338098258266D-05 0.439529114511D-07 0.000000000000D+00  7 -2 2 23 -11 11 23 21 2 0.32028846D-02 0.44120684D+00 0.33993921D+05 0.33993921D+05 0.33993921D+05 0.11623330D+01  1  2  6  2  7  2        2 0.286949084934D-02 0.100000000000D+01
0.563246317556D-07 0.000000000000D+00 0.000000000000D+00 0.439529114511D-07 0.000000000000D+00  7 -2 21 23 -11 11 23 -2 2 0.32028846D-02 0.46496147D+00 0.36181844D+05 0.36181844D+05 0.36181844D+05 0.11598608D+01  1  2 12  4  7  2        2 0.448350060904D-06 0.100000000000D+01
-.181221276090D-06 0.000000000000D+00 -.292009477825D-07 0.439529114511D-07 0.000000000000D+00  7 -2 21 23 -11 11 23 -2 2 0.32028846D-02 0.46358665D+00 0.33993921D+05 0.33993921D+05 0.33993921D+05 0.11623330D+01  1  2  5  4  7  2        2 -.149190974862D-05 0.100000000000D+01
  </mgrwgt>
  </event>
  <event>
  8     66 0.53686478E-06 0.51463930E+03 0.75467711E-02 0.90088722E-01
       -2 -1    0    0    0  501 0.00000000E+00 0.00000000E+00 0.52781737E+03 0.52781746E+03 0.32000000E+00 0.0000E+00 0.9000E+01
        2 -1    0    0  501    0 0.00000000E+00 0.00000000E+00 -.12251691E+04 0.12251692E+04 0.32000000E+00 0.0000E+00 0.9000E+01
       25  2    1    2    0    0 0.17508292E+03 -.72605794E+03 -.57361762E+03 0.98754154E+03 0.29729944E+03 0.0000E+00 0.0000E+00
       23  2    1    2    0    0 -.17508292E+03 0.72605794E+03 -.12373413E+03 0.76544509E+03 0.11305700E+03 0.0000E+00 0.0000E+00
       23  1    3    3    0    0 0.10909701E+03 -.42576021E+03 -.18973593E+03 0.48732831E+03 0.91188000E+02 0.0000E+00 0.9000E+01
      -13  1    4    4    0    0 -.71784454E+02 0.26901199E+03 0.85502900E+01 0.27855624E+03 0.10565837E+00 0.0000E+00 0.9000E+01
       13  1    4    4    0    0 -.10329846E+03 0.45704595E+03 -.13228442E+03 0.48688885E+03 0.10565837E+00 0.0000E+00 0.9000E+01
       23  1    3    3    0    0 0.65985907E+02 -.30029773E+03 -.38388169E+03 0.50021322E+03 0.91188000E+02 0.0000E+00 0.9000E+01
#aMCatNLO 1  0  0  1  2 0.61852488D+01 0.00000000D+00  -5  7  0 0.00000000D+00 0.00000000D+00 0.00000000D+00 0.00000000D+00 0.00000000D+00
  <mgrwgt>
 0.4529343630D-03   11    2    0
 0.804155244853472D+03 0.000000000000000D+00 0.000000000000000D+00 0.804155244853472D+03
 0.804155244853472D+03 0.000000000000000D+00 0.000000000000000D+00 -.804155244853472D+03
 0.448897980255001D+03 0.109097008780408D+03 -.425760206107830D+03 0.449832226560225D+01
 0.307321061313864D+03 -.717844260486736D+02 0.269011831147532D+03 0.130099445066434D+03
 0.473329681624436D+03 -.103298489482393D+03 0.457046108218134D+03 0.669273078795463D+02
 0.378761766513642D+03 0.659859067506591D+02 -.300297733257836D+03 -.201525075211582D+03
 0.000000000000000D+00 -.000000000000000D+00 0.000000000000000D+00 0.000000000000000D+00
 0.815890128251062D+03 0.000000000000000D+00 0.000000000000000D+00 0.815890128251062D+03
 0.804976638607641D+03 0.000000000000000D+00 0.000000000000000D+00 -.804976638607641D+03
 0.450590587656304D+03 0.109468360273417D+03 -.427449493550171D+03 0.449832226560225D+01
 0.306253620903340D+03 -.715311133525015D+02 0.267859505211901D+03 0.130099445066434D+03
 0.471531168380621D+03 -.102908406161880D+03 0.455271609213239D+03 0.669273078795463D+02
 0.379947006353647D+03 0.662991376750023D+02 -.301722628746363D+03 -.201525075211582D+03
 0.125443835647897D+02 -.132797843403744D+01 0.604100787139415D+01 0.109134896434207D+02
0.413467604868D-04 0.000000000000D+00 0.000000000000D+00 0.746188225296D-09 0.000000000000D+00  7 -2 2 23 -13 13 23 21 0 0.81202682D-01 0.18848757D+00 0.57499902D+06 0.57499902D+06 0.57499902D+06 0.10642469D+01  1  2  2  1  7  1       -2 0.127019280220D-03 0.100000000000D+01
-.228740887752D-05 0.000000000000D+00 -.158782447121D-06 0.746188225296D-09 0.000000000000D+00  7 -2 2 23 -13 13 23 21 2 0.81202682D-01 0.18848757D+00 0.57499902D+06 0.57499902D+06 0.57499902D+06 0.10642469D+01  1  2  3  1  7  1       -2 -.795896799175D-05 0.100000000000D+01
0.244756904539D-05 0.000000000000D+00 0.000000000000D+00 0.746188225296D-09 0.000000000000D+00  7 -2 2 23 -13 13 23 21 2 0.81202682D-01 0.18848757D+00 0.57499902D+06 0.57499902D+06 0.57499902D+06 0.10642469D+01  1  2 15  1  7  1       -2 0.851624031073D-05 0.100000000000D+01
0.685411758884D-04 0.000000000000D+00 0.000000000000D+00 0.746188225296D-09 0.000000000000D+00  7 -2 2 23 -13 13 23 21 2 0.82428799D-01 0.18848757D+00 0.57977199D+06 0.57977199D+06 0.57977199D+06 0.10639964D+01  1  2 12  1  7  1       -2 0.230279301152D-03 0.100000000000D+01
-.510822475468D-03 0.000000000000D+00 0.000000000000D+00 0.746188225296D-09 0.000000000000D+00  7 -2 2 23 -13 13 23 21 2 0.81202682D-01 0.18848757D+00 0.57499902D+06 0.57499902D+06 0.57499902D+06 0.10642469D+01  1  2  4  1  7  1       -2 -.177739090360D-02 0.100000000000D+01
-.497781765332D-02 0.000000000000D+00 -.327971823670D-03 0.746188225296D-09 0.000000000000D+00  7 -2 2 23 -13 13 23 21 2 0.82434002D-01 0.18848757D+00 0.57499902D+06 0.57499902D+06 0.57499902D+06 0.10642469D+01  1  2  5  1  7  1       -2 -.167359311286D-01 0.100000000000D+01
0.498222644101D-02 0.000000000000D+00 0.327934685371D-03 0.746188225296D-09 0.000000000000D+00  7 -2 2 23 -13 13 23 21 2 0.81202682D-01 0.18848757D+00 0.57499902D+06 0.57499902D+06 0.57499902D+06 0.10642469D+01  1  2  6  1  7  1       -2 0.173355018254D-01 0.100000000000D+01
0.441185065454D-03 0.000000000000D+00 0.000000000000D+00 0.746188225296D-09 0.117776012405D-09  7 -2 2 23 -13 13 23 21 2 0.82387658D-01 0.18868010D+00 0.57977199D+06 0.57977199D+06 0.57977199D+06 0.10639964D+01  1  2 11  1  7  1       -2 0.148146013565D-02 0.100000000000D+01
0.588216977251D-05 0.000000000000D+00 0.000000000000D+00 0.746188225296D-09 0.000000000000D+00  7 21 2 23 -13 13 23 2 2 0.82428799D-01 0.18848757D+00 0.57977199D+06 0.57977199D+06 0.57977199D+06 0.10639964D+01  1  2 12  3  7  1       -2 0.184681662466D-03 0.100000000000D+01
-.137073666353D-04 0.000000000000D+00 -.904933752608D-06 0.746188225296D-09 0.000000000000D+00  7 21 2 23 -13 13 23 2 2 0.82434002D-01 0.18848757D+00 0.57499902D+06 0.57499902D+06 0.57499902D+06 0.10642469D+01  1  2  5  3  7  1       -2 -.430773413637D-03 0.100000000000D+01
0.119588967486D-05 0.000000000000D+00 0.000000000000D+00 0.746188225296D-09 0.313385100990D-12  7 21 2 23 -13 13 23 2 2 0.82387658D-01 0.18868010D+00 0.57977199D+06 0.57977199D+06 0.57977199D+06 0.10639964D+01  1  2 11  3  7  1       -2 0.375303317344D-04 0.100000000000D+01
  </mgrwgt>
  </event>
  <event>
  7     66 0.53686478E-06 0.62957460E+03 0.75467711E-02 0.85921622E-01
       -2 -1    0    0    0  501 0.00000000E+00 0.00000000E+00 0.12017441E+04 0.12017442E+04 0.32000000E+00 0.0000E+00 0.9000E+01
        2 -1    0    0  501    0 0.00000000E+00 0.00000000E+00 -.75099131E+03 0.75099138E+03 0.32000000E+00 0.0000E+00 0.9000E+01
       25  2    1    2    0    0 -.86045735E+03 0.47102048E+01 -.81416519E+02 0.91495526E+03 0.30017569E+03 0.0000E+00 0.0000E+00
       23  1    3    3    0    0 -.55850761E+03 0.10222091E+03 -.10254599E+03 0.58413252E+03 0.91188000E+02 0.0000E+00 0.9000E+01
      -11  1    1    2    0    0 0.25771232E+03 -.10739938E+03 0.15400088E+03 0.31885191E+03 0.51099893E-03 0.0000E+00 0.9000E+01
       11  1    1    2    0    0 0.60274503E+03 0.10268918E+03 0.37816846E+03 0.71892838E+03 0.51099893E-03 0.0000E+00 0.9000E+01
       23  1    3    3    0    0 -.30194974E+03 -.97510704E+02 0.21129471E+02 0.33082274E+03 0.91188000E+02 0.0000E+00 0.9000E+01
#aMCatNLO 1  0  0  1  2 0.47458555D+03 0.00000000D+00  -5  7  0 0.00000000D+00 0.00000000D+00 0.00000000D+00 0.00000000D+00 0.00000000D+00
  <mgrwgt>
 0.3687263641D-03    9    2    0
 0.949999741079312D+03 0.000000000000000D+00 0.000000000000000D+00 0.949999741079312D+03
 0.949999741079312D+03 0.000000000000000D+00 0.000000000000000D+00 -.949999741079312D+03
 0.624673449725816D+03 -.558507612062837D+03 0.102220909037867D+03 -.243970900870762D+03
 0.291166989039049D+03 0.257712322286586D+03 -.107399383619214D+03 0.826313914074643D+02
 0.649166761764826D+03 0.602745026088730D+03 0.102689178812436D+03 0.218107429172767D+03
 0.334992281628934D+03 -.301949736312479D+03 -.975107042310888D+02 -.567679197094693D+02
 0.000000000000000D+00 -.000000000000000D+00 -.000000000000000D+00 0.000000000000000D+00
 0.128088915393271D+04 0.000000000000000D+00 0.000000000000000D+00 0.128088915393271D+04
 0.116582109103555D+04 0.000000000000000D+00 0.000000000000000D+00 -.116582109103555D+04
 0.593797769263701D+03 -.481216854079641D+03 0.230627574926655D+03 -.243970900870762D+03
 0.310325665236734D+03 0.295866545747731D+03 -.440120297872514D+02 0.826313914074643D+02
 0.768729421318975D+03 0.692685821590581D+03 0.252111929722563D+03 0.218107429172767D+03
 0.285521335739407D+03 -.262588964323899D+03 -.321188562308239D+02 -.567679197094693D+02
 0.488336053409444D+03 -.244746548934771D+03 -.406608618631143D+03 0.115068062897158D+03
0.393931382513D-03 0.000000000000D+00 0.000000000000D+00 0.304543725681D-09 0.000000000000D+00  7 -2 2 23 -11 11 23 21 0 0.18488372D+00 0.11553713D+00 0.80625494D+06 0.80625494D+06 0.80625494D+06 0.10541471D+01  1  2  2  1  7  1       -2 0.279420149375D-03 0.100000000000D+01
-.218004822359D-04 0.000000000000D+00 -.151280023336D-05 0.304543725681D-09 0.000000000000D+00  7 -2 2 23 -11 11 23 21 2 0.18488372D+00 0.11553713D+00 0.80625494D+06 0.80625494D+06 0.80625494D+06 0.10541471D+01  1  2  3  1  7  1       -2 -.171832646124D-04 0.100000000000D+01
0.250984569586D-04 0.000000000000D+00 0.000000000000D+00 0.304543725681D-09 0.000000000000D+00  7 -2 2 23 -11 11 23 21 2 0.18488372D+00 0.11553713D+00 0.80625494D+06 0.80625494D+06 0.80625494D+06 0.10541471D+01  1  2 15  1  7  1       -2 0.197827471254D-04 0.100000000000D+01
0.977723566566D-04 0.000000000000D+00 0.000000000000D+00 0.304543725681D-09 0.000000000000D+00  7 -2 2 23 -11 11 23 21 2 0.26425898D+00 0.11553713D+00 0.13595921D+07 0.13595921D+07 0.13595921D+07 0.10390972D+01  1  2 12  1  7  1       -2 0.212460548388D-04 0.100000000000D+01
-.162495896350D-03 0.000000000000D+00 0.000000000000D+00 0.304543725681D-09 0.000000000000D+00  7 -2 2 23 -11 11 23 21 2 0.18488372D+00 0.11553713D+00 0.80625494D+06 0.80625494D+06 0.80625494D+06 0.10541471D+01  1  2  4  1  7  1       -2 -.128080193603D-03 0.100000000000D+01
-.278818035745D-03 0.000000000000D+00 -.132774964538D-03 0.304543725681D-09 0.000000000000D+00  7 -2 2 23 -11 11 23 21 2 0.27966841D+00 0.11553713D+00 0.80625494D+06 0.80625494D+06 0.80625494D+06 0.10541471D+01  1  2  5  1  7  1       -2 -.512551071222D-04 0.100000000000D+01
0.316856180700D-03 0.000000000000D+00 0.122161916287D-03 0.304543725681D-09 0.000000000000D+00  7 -2 2 23 -11 11 23 21 2 0.18488372D+00 0.11553713D+00 0.80625494D+06 0.80625494D+06 0.80625494D+06 0.10541471D+01  1  2  6  1  7  1       -2 0.249747851361D-03 0.100000000000D+01
0.428621645986D-05 0.000000000000D+00 0.000000000000D+00 0.304543725681D-09 0.000000000000D+00  7 21 2 23 -11 11 23 2 2 0.26425898D+00 0.11553713D+00 0.13595921D+07 0.13595921D+07 0.13595921D+07 0.10390972D+01  1  2 12  3  7  1       -2 0.649885670454D-05 0.100000000000D+01
-.886531734007D-05 0.000000000000D+00 -.648086373874D-05 0.304543725681D-09 0.000000000000D+00  7 21 2 23 -11 11 23 2 2 0.27966841D+00 0.11553713D+00 0.80625494D+06 0.80625494D+06 0.80625494D+06 0.10541471D+01  1  2  5  3  7  1       -2 -.114507299907D-04 0.100000000000D+01
  </mgrwgt>
  </event>
  <event>
  9     66 0.53686478E-06 0.38878924E+03 0.75467711E-02 0.95403600E-01
       21 -1    0    0  502  501 0.00000000E+00 0.00000000E+00 0.16248736E+03 0.16248909E+03 0.75000000E+00 0.0000E+00 0.9000E+01
        2 -1    0    0  501    0 0.00000000E+00 0.00000000E+00 -.33234442E+04 0.33234442E+04 0.32000000E+00 0.0000E+00 0.9000E+01
       25  2    1    2    0    0 -.27152401E+03 -.65834683E+02 -.18218287E+03 0.44832322E+03 0.29957239E+03 0.0000E+00 0.0000E+00
       23  2    1    2    0    0 0.39582007E+03 -.23695774E+01 -.26280822E+04 0.26593428E+04 0.92783810E+02 0.0000E+00 0.0000E+00
       23  1    3    3    0    0 -.35166176E+02 0.52580810E+02 0.61826991E+01 0.11115250E+03 0.91188000E+02 0.0000E+00 0.9000E+01
      -11  1    4    4    0    0 0.33848721E+03 0.22710303E+02 -.23460497E+04 0.23704511E+04 0.51099893E-03 0.0000E+00 0.9000E+01
       11  1    4    4    0    0 0.57332864E+02 -.25079880E+02 -.28203255E+03 0.28889170E+03 0.51099893E-03 0.0000E+00 0.9000E+01
       23  1    3    3    0    0 -.23635783E+03 -.11841549E+03 -.18836556E+03 0.33717072E+03 0.91188000E+02 0.0000E+00 0.9000E+01
        2  1    1    2  502    0 -.12429606E+03 0.68204260E+02 -.35069175E+03 0.37826728E+03 0.32000000E+00 0.0000E+00 0.9000E+01
#aMCatNLO 2  0  0  1  2 0.14177917D+03 0.00000000D+00  -5  7  0 0.00000000D+00 0.00000000D+00 0.00000000D+00 0.00000000D+00 0.00000000D+00
  <mgrwgt>
 0.2793768328D-04    1    2    0
 0.659525758951823D+03 0.000000000000000D+00 0.000000000000000D+00 0.659525758951823D+03
 0.659525758951823D+03 0.000000000000000D+00 0.000000000000000D+00 -.659525758951823D+03
 0.281078581405256D+03 -.612191253248923D+02 0.668766949327412D+02 0.249939280526529D+03
 0.555721404137716D+03 0.284985650244508D+03 0.520679032703653D+02 -.474234532294452D+03
 0.730493836914018D+02 0.501758047978936D+02 -.211526283538347D+02 -.486946340401267D+02
 0.409202148669272D+03 -.273942329717509D+03 -.977919698492718D+02 0.272989885808050D+03
 0.000000000000000D+00 -.000000000000000D+00 0.000000000000000D+00 -.000000000000000D+00
 0.724829067496291D+03 0.000000000000000D+00 0.000000000000000D+00 0.724829067496291D+03
 0.745031458402206D+03 0.000000000000000D+00 0.000000000000000D+00 -.745031458402206D+03
 0.273470833614224D+03 -.351661758002522D+02 0.525808104076494D+02 0.249939280526529D+03
 0.583084675806545D+03 0.338487207572990D+03 0.227103027131925D+02 -.474234532294452D+03
 0.792920239880701D+02 0.573328640198323D+02 -.250798801254359D+02 -.486946340401267D+02
 0.390801719075925D+03 -.236357833509628D+03 -.118415493385962D+03 0.272989885808050D+03
 0.143211273413734D+03 -.124296062282942D+03 0.682042603905563D+02 -.202023909059156D+02
0.998055707653D-06 0.000000000000D+00 0.000000000000D+00 0.941453486699D-06 0.492958905031D-11  7 21 2 23 -11 11 23 2 2 0.24998184D-01 0.51129912D+00 0.21819797D+06 0.21819797D+06 0.21819797D+06 0.10949324D+01  1  2  1  3  7  1       -2 0.279376832800D-04 0.100000000000D+01
  </mgrwgt>
  </event>
  <event>
  9     66 0.53686478E-06 0.19820481E+03 0.75467711E-02 0.96547927E-01
       -2 -1    0    0    0  501 0.00000000E+00 0.00000000E+00 0.15722036E+03 0.15722068E+03 0.32000000E+00 0.0000E+00 0.9000E+01
        2 -1    0    0  502    0 0.00000000E+00 0.00000000E+00 -.16025201E+04 0.16025201E+04 0.32000000E+00 0.0000E+00 0.9000E+01
       25  2    1    2    0    0 0.91450998E+02 0.10824335E+03 -.19421531E+03 0.38421309E+03 0.29970019E+03 0.0000E+00 0.0000E+00
       23  2    1    2    0    0 0.66552546E+02 0.18428717E+03 -.69600017E+03 0.72848960E+03 0.88824897E+02 0.0000E+00 0.0000E+00
       23  1    3    3    0    0 -.57760101E+02 0.24662707E+02 -.12708908E+01 0.11073096E+03 0.91188000E+02 0.0000E+00 0.9000E+01
      -11  1    4    4    0    0 0.46004584E+02 0.31370955E+02 -.12185803E+03 0.13397738E+03 0.51099893E-03 0.0000E+00 0.9000E+01
       11  1    4    4    0    0 0.20547962E+02 0.15291621E+03 -.57414214E+03 0.59451222E+03 0.51099893E-03 0.0000E+00 0.9000E+01
       23  1    3    3    0    0 0.14921110E+03 0.83580646E+02 -.19294442E+03 0.27348214E+03 0.91188000E+02 0.0000E+00 0.9000E+01
       21  1    1    2  502  501 -.15800354E+03 -.29253052E+03 -.55508422E+03 0.64703808E+03 0.75000000E+00 0.0000E+00 0.9000E+01
#aMCatNLO 2  0  0  2  2 0.33247440D+03 0.00000000D+00  -5  7  0 0.00000000D+00 0.00000000D+00 0.00000000D+00 0.00000000D+00 0.00000000D+00
  <mgrwgt>
 0.1341862095D-04    1    2    0
 0.289432398668199D+03 0.000000000000000D+00 0.000000000000000D+00 0.289432398668199D+03
 0.289432398668199D+03 0.000000000000000D+00 0.000000000000000D+00 -.289432398668199D+03
 0.214196777362503D+03 -.108095633041003D+03 -.685293758768359D+02 0.145547472832330D+03
 0.417217228502337D+02 0.330063757226315D+02 0.730584458602725D+01 -.244521155349188D+02
 0.176942560487071D+03 -.304440071487300D+02 0.585087910405630D+02 -.164190601166512D+03
 0.146003736636590D+03 0.105533264467102D+03 0.271474025024563D+01 0.430952438691005D+02
 0.000000000000000D+00 -.000000000000000D+00 -.000000000000000D+00 -.000000000000000D+00
 0.471724017098243D+03 0.000000000000000D+00 0.000000000000000D+00 0.471724017098243D+03
 0.534101850041474D+03 0.000000000000000D+00 0.000000000000000D+00 -.534101850041474D+03
 0.182876451735124D+03 -.577601011353927D+02 0.246627071543330D+02 0.145547472832330D+03
 0.608150024709182D+02 0.460045841906989D+02 0.313709547965259D+02 -.244521155349188D+02
 0.225308988583313D+03 0.205479615828999D+02 0.152916212678064D+03 -.164190601166512D+03
 0.198550063929440D+03 0.149211099059488D+03 0.835806461790476D+02 0.430952438691005D+02
 0.338275360420922D+03 -.158003543697694D+03 -.292530520807970D+03 -.623778329432304D+02
0.528205424364D-06 0.000000000000D+00 0.000000000000D+00 0.102874769926D-06 0.693587687007D-11  7 -2 2 23 -11 11 23 21 2 0.24187755D-01 0.24654137D+00 0.17934719D+06 0.17934719D+06 0.17934719D+06 0.11014795D+01  1  2  1  2  7  2        2 0.134186209457D-04 0.100000000000D+01
  </mgrwgt>
  </event>
  <event>
  8     66 0.53686478E-06 0.41187738E+03 0.75467711E-02 0.88712060E-01
       -2 -1    0    0    0  501 0.00000000E+00 0.00000000E+00 0.30507579E+03 0.30507595E+03 0.32000000E+00 0.0000E+00 0.9000E+01
        2 -1    0    0  501    0 0.00000000E+00 0.00000000E+00 -.13515126E+04 0.13515127E+04 0.32000000E+00 0.0000E+00 0.9000E+01
       25  2    1    2    0    0 0.47796581E+03 0.36072619E+03 -.64495780E+03 0.92992591E+03 0.30036135E+03 0.0000E+00 0.0000E+00
       23  2    1    2    0    0 -.47796581E+03 -.36072619E+03 -.40147905E+03 0.72666271E+03 0.90986672E+02 0.0000E+00 0.0000E+00
       23  1    3    3    0    0 0.15018781E+03 0.14856341E+03 -.39591454E+03 0.45792034E+03 0.91188000E+02 0.0000E+00 0.9000E+01
      -11  1    4    4    0    0 -.96896331E+02 -.34504178E+02 -.51660885E+02 0.11510119E+03 0.51099893E-03 0.0000E+00 0.9000E+01
       11  1    4    4    0    0 -.38106948E+03 -.32622201E+03 -.34981816E+03 0.61156152E+03 0.51099893E-03 0.0000E+00 0.9000E+01
       23  1    3    3    0    0 0.32777800E+03 0.21216278E+03 -.24904326E+03 0.47200557E+03 0.91188000E+02 0.0000E+00 0.9000E+01
#aMCatNLO 1  0  0  2  1 0.43093031D+03 0.00000000D+00  -5  7  0 0.00000000D+00 0.00000000D+00 0.00000000D+00 0.00000000D+00 0.00000000D+00
  <mgrwgt>
 0.2492479463D-03    9    2    0
 0.642116772047749D+03 0.000000000000000D+00 0.000000000000000D+00 0.642116772047749D+03
 0.642116772047749D+03 0.000000000000000D+00 0.000000000000000D+00 -.642116772047749D+03
 0.268086802889362D+03 0.150187811537601D+03 0.148563408093022D+03 -.137578405212343D+03
 0.106378992546750D+03 -.968963307154367D+02 -.345041777190513D+02 0.271487176322990D+02
 0.503836119669383D+03 -.381069480694569D+03 -.326222009234916D+03 0.470753338533677D+02
 0.405931628990003D+03 0.327777999872405D+03 0.212162778860946D+03 0.633543537266768D+02
 0.000000000000000D+00 -.000000000000000D+00 -.000000000000000D+00 -.000000000000000D+00
 0.836475855892258D+03 0.000000000000000D+00 0.000000000000000D+00 0.836475855892258D+03
 0.968968156161725D+03 0.000000000000000D+00 0.000000000000000D+00 -.968968156161725D+03
 0.341781108678003D+03 0.247940776092647D+03 0.167620490617851D+03 -.137578405212343D+03
 0.780795958392344D+02 -.673302992676957D+02 -.287402369138187D+02 0.271487176322990D+02
 0.384991967404377D+03 -.238603253429138D+03 -.298448011153564D+03 0.470753338533677D+02
 0.549753074408424D+03 0.480960371276424D+03 0.242025904818129D+03 0.633543537266768D+02
 0.450838265723944D+03 -.422967594672237D+03 -.824581473685973D+02 -.132492300269466D+03
0.259589282230D-04 0.000000000000D+00 0.000000000000D+00 0.122270893796D-05 0.000000000000D+00  7 -2 2 23 -11 11 23 21 0 0.46934752D-01 0.20792504D+00 0.38163889D+06 0.38163889D+06 0.38163889D+06 0.10769019D+01  1  2  2  2  7  2        2 0.217862654994D-03 0.100000000000D+01
-.143954262813D-05 0.000000000000D+00 -.996891195191D-07 0.122270893796D-05 0.000000000000D+00  7 -2 2 23 -11 11 23 21 2 0.46934752D-01 0.20792504D+00 0.38163889D+06 0.38163889D+06 0.38163889D+06 0.10769019D+01  1  2  3  2  7  2        2 -.140111190681D-04 0.100000000000D+01
0.163110492191D-05 0.000000000000D+00 0.000000000000D+00 0.122270893796D-05 0.000000000000D+00  7 -2 2 23 -11 11 23 21 2 0.46934752D-01 0.20792504D+00 0.38163889D+06 0.38163889D+06 0.38163889D+06 0.10769019D+01  1  2 15  2  7  2        2 0.158756016160D-04 0.100000000000D+01
0.218331514454D-05 0.000000000000D+00 0.000000000000D+00 0.122270893796D-05 0.000000000000D+00  7 -2 2 23 -11 11 23 21 2 0.46934752D-01 0.33227775D+00 0.76143042D+06 0.76143042D+06 0.76143042D+06 0.10558355D+01  1  2 12  2  7  2        2 0.704866113198D-05 0.100000000000D+01
-.983187770563D-05 0.000000000000D+00 0.000000000000D+00 0.122270893796D-05 0.000000000000D+00  7 -2 2 23 -11 11 23 21 2 0.46934752D-01 0.20792504D+00 0.38163889D+06 0.38163889D+06 0.38163889D+06 0.10769019D+01  1  2  4  2  7  2        2 -.956940117676D-04 0.100000000000D+01
-.129425606875D-04 0.000000000000D+00 -.805072620583D-05 0.122270893796D-05 0.000000000000D+00  7 -2 2 23 -11 11 23 21 2 0.46934752D-01 0.35604202D+00 0.38163889D+06 0.38163889D+06 0.38163889D+06 0.10769019D+01  1  2  5  2  7  2        2 -.369697397162D-04 0.100000000000D+01
0.159486073828D-04 0.000000000000D+00 0.701176565880D-05 0.122270893796D-05 0.000000000000D+00  7 -2 2 23 -11 11 23 21 2 0.46934752D-01 0.20792504D+00 0.38163889D+06 0.38163889D+06 0.38163889D+06 0.10769019D+01  1  2  6  2  7  2        2 0.155228357010D-03 0.100000000000D+01
0.117059122898D-06 0.000000000000D+00 0.000000000000D+00 0.122270893796D-05 0.000000000000D+00  7 -2 21 23 -11 11 23 -2 2 0.46934752D-01 0.33227775D+00 0.76143042D+06 0.76143042D+06 0.76143042D+06 0.10558355D+01  1  2 12  4  7  2        2 0.602643456532D-07 0.100000000000D+01
-.381125390273D-06 0.000000000000D+00 -.481483797709D-06 0.122270893796D-05 0.000000000000D+00  7 -2 21 23 -11 11 23 -2 2 0.46934752D-01 0.35604202D+00 0.38163889D+06 0.38163889D+06 0.38163889D+06 0.10769019D+01  1  2  5  4  7  2        2 -.152722213528D-06 0.100000000000D+01
  </mgrwgt>
  </event>
  <event>
  8     66 0.53686478E-06 0.48827274E+03 0.75467711E-02 0.90780381E-01
       -2 -1    0    0    0  501 0.00000000E+00 0.00000000E+00 0.61119151E+03 0.61119160E+03 0.32000000E+00 0.0000E+00 0.9000E+01
        2 -1    0    0  501    0 0.00000000E+00 0.00000000E+00 -.59502689E+03 0.59502697E+03 0.32000000E+00 0.0000E+00 0.9000E+01
       25  2    1    2    0    0 -.99110987E+02 -.43241008E+03 -.33671246E+03 0.63197185E+03 0.29868324E+03 0.0000E+00 0.0000E+00
       23  2    1    2    0    0 0.99110987E+02 0.43241008E+03 0.35287709E+03 0.57424672E+03 0.91845466E+02 0.0000E+00 0.0000E+00
       23  1    3    3    0    0 0.65585897E+02 -.11258186E+03 -.14033477E+03 0.21209734E+03 0.91188000E+02 0.0000E+00 0.9000E+01
      -11  1    4    4    0    0 0.56259838E+02 0.33881351E+03 0.31023913E+03 0.46282619E+03 0.51099893E-03 0.0000E+00 0.9000E+01
       11  1    4    4    0    0 0.42851148E+02 0.93596568E+02 0.42637957E+02 0.11142053E+03 0.51099893E-03 0.0000E+00 0.9000E+01
       23  1    3    3    0    0 -.16469688E+03 -.31982822E+03 -.19637769E+03 0.41987451E+03 0.91188000E+02 0.0000E+00 0.9000E+01
#aMCatNLO 1  0  0  1  2 0.38193348D+03 0.00000000D+00  -5  7  0 0.00000000D+00 0.00000000D+00 0.00000000D+00 0.00000000D+00 0.00000000D+00
  <mgrwgt>
 0.4422393441D-03    3    2    0
 0.603055127042199D+03 0.000000000000000D+00 0.000000000000000D+00 0.603055127042199D+03
 0.603055127042199D+03 0.000000000000000D+00 0.000000000000000D+00 -.603055127042199D+03
 0.213997195989270D+03 0.655858967951606D+02 -.112581855012444D+03 -.143189959881277D+03
 0.458709843397589D+03 0.562598384267202D+02 0.338813511805936D+03 0.304064064347908D+03
 0.110859087324032D+03 0.428511483691637D+02 0.935965680203317D+02 0.411484966988683D+02
 0.422544127373507D+03 -.164696883591044D+03 -.319828224813824D+03 -.202022601165499D+03
 0.000000000000000D+00 -.000000000000000D+00 0.000000000000000D+00 -.000000000000000D+00
 0.658821959868139D+03 0.000000000000000D+00 0.000000000000000D+00 0.658821959868139D+03
 0.202169105480095D+04 0.000000000000000D+00 0.000000000000000D+00 -.202169105480095D+04
 0.262594609956189D+03 0.124180829641442D+03 -.157214613738051D+03 -.143189959881277D+03
 0.430319286282981D+03 0.165562183750681D+03 0.255556053011920D+03 0.304064064347908D+03
 0.109119608344155D+03 0.698965921629773D+02 0.729955926656365D+02 0.411484966988683D+02
 0.463104877468555D+03 -.558101102208048D+02 -.402769135369919D+03 -.202022601165499D+03
 0.141537463261721D+04 -.303829495334296D+03 0.231432103430414D+03 -.136286909493281D+04
0.728047940355D-04 0.000000000000D+00 0.000000000000D+00 0.382840091491D-06 0.000000000000D+00  7 -2 2 23 -11 11 23 21 0 0.94029477D-01 0.91542611D-01 0.23841027D+06 0.23841027D+06 0.23841027D+06 0.10920134D+01  1  2  2  1  7  1       -2 0.437583616985D-03 0.100000000000D+01
-.382548722284D-05 0.000000000000D+00 -.279589579039D-06 0.382840091491D-06 0.000000000000D+00  7 -2 2 23 -11 11 23 21 2 0.94029477D-01 0.91542611D-01 0.23841027D+06 0.23841027D+06 0.23841027D+06 0.10920134D+01  1  2  3  1  7  1       -2 -.274185030636D-04 0.100000000000D+01
0.447506406476D-05 0.000000000000D+00 0.000000000000D+00 0.382840091491D-06 0.000000000000D+00  7 -2 2 23 -11 11 23 21 2 0.94029477D-01 0.91542611D-01 0.23841027D+06 0.23841027D+06 0.23841027D+06 0.10920134D+01  1  2 15  1  7  1       -2 0.320742301887D-04 0.100000000000D+01
  </mgrwgt>
  </event>
  <event>
  8     66 0.53686478E-06 0.18120029E+03 0.75467711E-02 0.10710846E+00
       -2 -1    0    0    0  501 0.00000000E+00 0.00000000E+00 0.14469027E+02 0.14472565E+02 0.32000000E+00 0.0000E+00 0.9000E+01
        2 -1    0    0  501    0 0.00000000E+00 0.00000000E+00 -.30609259E+04 0.30609259E+04 0.32000000E+00 0.0000E+00 0.9000E+01
       25  2    1    2    0    0 -.32574107E+02 0.58843959E+02 -.23162871E+04 0.23365045E+04 0.29923871E+03 0.0000E+00 0.0000E+00
       23  2    1    2    0    0 0.32574107E+02 -.58843959E+02 -.73016971E+03 0.73889389E+03 0.91064194E+02 0.0000E+00 0.0000E+00
       23  1    3    3    0    0 -.83846634E+02 -.18377254E+02 -.49550729E+03 0.51108777E+03 0.91188000E+02 0.0000E+00 0.9000E+01
      -11  1    4    4    0    0 0.49250176E+02 -.35407710E+01 -.45850813E+03 0.46115922E+03 0.51099893E-03 0.0000E+00 0.9000E+01
       11  1    4    4    0    0 -.16676069E+02 -.55303188E+02 -.27166158E+03 0.27773468E+03 0.51099893E-03 0.0000E+00 0.9000E+01
       23  1    3    3    0    0 0.51272526E+02 0.77221213E+02 -.18207798E+04 0.18254168E+04 0.91188000E+02 0.0000E+00 0.9000E+01
#aMCatNLO 1  0  0  1  2 0.16347172D+02 0.00000000D+00  -5  7  0 0.00000000D+00 0.00000000D+00 0.00000000D+00 0.00000000D+00 0.00000000D+00
  <mgrwgt>
 0.4101804355D-03    4    2    0
 0.210461597010159D+03 0.000000000000000D+00 0.000000000000000D+00 0.210461597010159D+03
 0.210461597010159D+03 0.000000000000000D+00 0.000000000000000D+00 -.210461597010159D+03
 0.147905741177280D+03 -.838466336179960D+02 -.183772534409516D+02 0.786948252180358D+02
 0.508955256688736D+02 0.492501760637447D+02 -.354077111272059D+01 -.123384614408946D+02
 0.630506951230483D+02 -.166760685201059D+02 -.553031883220679D+02 0.252756059398427D+02
 0.159071232051117D+03 0.512725260743572D+02 0.772212128757401D+02 -.916319697169839D+02
 0.000000000000000D+00 0.000000000000000D+00 0.000000000000000D+00 -.000000000000000D+00
 0.214910988414867D+03 0.000000000000000D+00 0.000000000000000D+00 0.214910988414867D+03
 0.226190433240645D+03 0.000000000000000D+00 0.000000000000000D+00 -.226190433240645D+03
 0.151120161103464D+03 -.886698341033833D+02 -.216064053446674D+02 0.786948252180358D+02
 0.494210142912802D+02 0.476320995675691D+02 -.462407976095396D+01 -.123384614408946D+02
 0.648312668089110D+02 -.187387672233220D+02 -.566841733058898D+02 0.252756059398427D+02
 0.155868065456087D+03 0.461926471708295D+02 0.738202137504352D+02 -.916319697169839D+02
 0.198609139957708D+02 0.135838545883067D+02 0.909444466107597D+01 -.112794448257779D+02
0.592509016815D-05 0.000000000000D+00 0.000000000000D+00 0.265164546433D-07 0.000000000000D+00  7 -2 2 23 -11 11 23 21 0 0.22262775D-02 0.47091194D+00 0.32833546D+05 0.32833546D+05 0.32833546D+05 0.11637166D+01  1  2  2  1  7  1       -2 0.759408626845D-03 0.100000000000D+01
-.320202579376D-06 0.000000000000D+00 -.227539063578D-07 0.265164546433D-07 0.000000000000D+00  7 -2 2 23 -11 11 23 21 2 0.22262775D-02 0.47091194D+00 0.32833546D+05 0.32833546D+05 0.32833546D+05 0.11637166D+01  1  2  3  1  7  1       -2 -.555776053957D-04 0.100000000000D+01
0.371477434064D-06 0.000000000000D+00 0.000000000000D+00 0.265164546433D-07 0.000000000000D+00  7 -2 2 23 -11 11 23 21 2 0.22262775D-02 0.47091194D+00 0.32833546D+05 0.32833546D+05 0.32833546D+05 0.11637166D+01  1  2 15  1  7  1       -2 0.644773889207D-04 0.100000000000D+01
-.206330410393D-05 0.000000000000D+00 0.000000000000D+00 0.265164546433D-07 0.000000000000D+00  7 -2 2 23 -11 11 23 21 2 0.22262775D-02 0.47091194D+00 0.32833546D+05 0.32833546D+05 0.32833546D+05 0.11637166D+01  1  2  4  1  7  1       -2 -.358127974869D-03 0.100000000000D+01
  </mgrwgt>
  </event>
  <event>
  9     66 0.53686478E-06 0.19806546E+03 0.75467711E-02 0.10005116E+00
       21 -1    0    0  502  501 0.00000000E+00 0.00000000E+00 0.72767800E+02 0.72771665E+02 0.75000000E+00 0.0000E+00 0.9000E+01
        2 -1    0    0  501    0 0.00000000E+00 0.00000000E+00 -.35765359E+04 0.35765359E+04 0.32000000E+00 0.0000E+00 0.9000E+01
       25  2    1    2    0    0 0.10976437E+03 -.73331188E+02 -.26978451E+04 0.27176577E+04 0.29978325E+03 0.0000E+00 0.0000E+00
       23  2    1    2    0    0 0.93092563E+02 0.62234674E+02 -.55278050E+02 0.15399819E+03 0.90113265E+02 0.0000E+00 0.0000E+00
       23  1    3    3    0    0 0.14500927E+03 -.11919948E+03 -.14193209E+04 0.14345812E+04 0.91188000E+02 0.0000E+00 0.9000E+01
      -11  1    4    4    0    0 0.36368502E+02 0.64196149E+01 -.64052166E+02 0.73936185E+02 0.51099893E-03 0.0000E+00 0.9000E+01
       11  1    4    4    0    0 0.56724061E+02 0.55815059E+02 0.87741165E+01 0.80062008E+02 0.51099893E-03 0.0000E+00 0.9000E+01
       23  1    3    3    0    0 -.35244907E+02 0.45868297E+02 -.12785242E+04 0.12830766E+04 0.91188000E+02 0.0000E+00 0.9000E+01
        2  1    1    2  502    0 -.20285693E+03 0.11096514E+02 -.75064500E+03 0.77765164E+03 0.32000000E+00 0.0000E+00 0.9000E+01
#aMCatNLO 2  0  0  1  1 0.20316020D+03 0.00000000D+00  -5  7  0 0.00000000D+00 0.00000000D+00 0.00000000D+00 0.00000000D+00 0.00000000D+00
  <mgrwgt>
 0.2671959204D-04    1    2    0
 0.395426012819380D+03 0.000000000000000D+00 0.000000000000000D+00 0.395426012819380D+03
 0.395426012819380D+03 0.000000000000000D+00 0.000000000000000D+00 -.395426012819380D+03
 0.229271305042980D+03 0.832985877731637D+02 -.115823837444643D+03 -.154584164540565D+03
 0.362513040452432D+02 0.262330291327563D+02 0.697403725348273D+01 0.240280675853815D+02
 0.307490198801131D+03 -.213509265829718D+02 0.600858533682348D+02 0.300805669025401D+03
 0.217839217749405D+03 -.881806903229483D+02 0.487639468229257D+02 -.170249572070217D+03
 0.000000000000000D+00 -.000000000000000D+00 0.000000000000000D+00 -.000000000000000D+00
 0.501284317685712D+03 0.000000000000000D+00 0.000000000000000D+00 0.501284317685712D+03
 0.519193582304414D+03 0.000000000000000D+00 0.000000000000000D+00 -.519193582304414D+03
 0.259706991601017D+03 0.145009272152794D+03 -.119199484921132D+03 -.154584164540565D+03
 0.440593623962872D+02 0.363685018584494D+02 0.641961489901609D+01 0.240280675853815D+02
 0.311154287261218D+03 0.567240613758238D+02 0.558150591171349D+02 0.300805669025401D+03
 0.201609206708851D+03 -.352449066431214D+02 0.458682968007113D+02 -.170249572070217D+03
 0.203948052022753D+03 -.202856928743946D+03 0.110965141042693D+02 -.179092646187021D+02
0.295964353391D-06 0.000000000000D+00 0.000000000000D+00 0.703762511059D-06 0.489467286974D-11  7 21 2 23 -11 11 23 2 2 0.11195342D-01 0.55023646D+00 0.10123480D+06 0.10123480D+06 0.10123480D+06 0.11212849D+01  1  2  1  3  7  1       -2 0.267195920391D-04 0.100000000000D+01
  </mgrwgt>
  </event>
  <event>
  8     66 0.53686478E-06 0.41945406E+03 0.75467711E-02 0.94715253E-01
       -2 -1    0    0    0  501 0.00000000E+00 0.00000000E+00 0.26011044E+03 0.26011064E+03 0.32000000E+00 0.0000E+00 0.9000E+01
        2 -1    0    0  501    0 0.00000000E+00 0.00000000E+00 -.14101327E+04 0.14101328E+04 0.32000000E+00 0.0000E+00 0.9000E+01
       25  2    1    2    0    0 0.39859514E+03 -.20054304E+03 -.10836207E+04 0.12097970E+04 0.30046532E+03 0.0000E+00 0.0000E+00
       23  2    1    2    0    0 -.39859514E+03 0.20054304E+03 -.66401580E+02 0.46044638E+03 0.92228506E+02 0.0000E+00 0.0000E+00
       23  1    3    3    0    0 0.66373250E+01 -.18251082E+02 -.14474798E+03 0.17217545E+03 0.91188000E+02 0.0000E+00 0.9000E+01
      -11  1    4    4    0    0 -.11739452E+03 0.10641811E+03 -.34851543E+02 0.16223722E+03 0.51099893E-03 0.0000E+00 0.9000E+01
       11  1    4    4    0    0 -.28120063E+03 0.94124933E+02 -.31550037E+02 0.29820916E+03 0.51099893E-03 0.0000E+00 0.9000E+01
       23  1    3    3    0    0 0.39195782E+03 -.18229196E+03 -.93887273E+03 0.10376216E+04 0.91188000E+02 0.0000E+00 0.9000E+01
#aMCatNLO 1  0  0  1  1 0.21629224D+01 0.00000000D+00  -5  7  0 0.00000000D+00 0.00000000D+00 0.00000000D+00 0.00000000D+00 0.00000000D+00
  <mgrwgt>
 0.1123098240D-03    7    2    0
 0.605632269447514D+03 0.000000000000000D+00 0.000000000000000D+00 0.605632269447514D+03
 0.605632269447514D+03 0.000000000000000D+00 0.000000000000000D+00 -.605632269447514D+03
 0.999876587704330D+02 0.663732497990267D+01 -.182510819572975D+02 -.361265067075646D+02
 0.190623597300776D+03 -.117394517865961D+03 0.106418109330408D+03 0.105976738152523D+03
 0.381253324289452D+03 -.281200626890540D+03 0.941249326718114D+02 0.239626379532080D+03
 0.539399958534367D+03 0.391957819776598D+03 -.182291960044922D+03 -.309476610977038D+03
 0.000000000000000D+00 -.000000000000000D+00 0.000000000000000D+00 -.000000000000000D+00
 0.606587590320850D+03 0.000000000000000D+00 0.000000000000000D+00 0.606587590320850D+03
 0.606858730703911D+03 0.000000000000000D+00 0.000000000000000D+00 -.606858730703911D+03
 0.100007216539316D+03 0.681056247063851D+01 -.182943643749528D+02 -.361265067075646D+02
 0.190374462976553D+03 -.117064493669914D+03 0.106335654631780D+03 0.105976738152523D+03
 0.380726033722674D+03 -.280540593018321D+03 0.939600269022656D+02 0.239626379532080D+03
 0.540158756791004D+03 0.392892943952432D+03 -.182525595587471D+03 -.309476610977038D+03
 0.217985099521373D+01 -.209841973483499D+01 0.524278428378322D+00 -.271140383061090D+00
0.100345207305D-04 0.000000000000D+00 0.000000000000D+00 0.465580367544D-06 0.000000000000D+00  7 -2 2 23 -11 11 23 21 0 0.40017009D-01 0.21694352D+00 0.24502802D+06 0.24502802D+06 0.24502802D+06 0.10911160D+01  1  2  2  1  7  1       -2 0.107793476142D-03 0.100000000000D+01
-.529895774365D-06 0.000000000000D+00 -.385352017551D-07 0.465580367544D-06 0.000000000000D+00  7 -2 2 23 -11 11 23 21 2 0.40017009D-01 0.21694352D+00 0.24502802D+06 0.24502802D+06 0.24502802D+06 0.10911160D+01  1  2  3  1  7  1       -2 -.677685475519D-05 0.100000000000D+01
0.640174239724D-06 0.000000000000D+00 0.000000000000D+00 0.465580367544D-06 0.000000000000D+00  7 -2 2 23 -11 11 23 21 2 0.40017009D-01 0.21694352D+00 0.24502802D+06 0.24502802D+06 0.24502802D+06 0.10911160D+01  1  2 15  1  7  1       -2 0.818720973161D-05 0.100000000000D+01
-.280005311523D-03 0.000000000000D+00 0.000000000000D+00 0.465580367544D-06 0.000000000000D+00  7 -2 2 23 -11 11 23 21 2 0.40017009D-01 0.21694352D+00 0.24502802D+06 0.24502802D+06 0.24502802D+06 0.10911160D+01  1  2  4  1  7  1       -2 -.358099728035D-02 0.100000000000D+01
0.280006238871D-03 0.000000000000D+00 0.000000000000D+00 0.465580367544D-06 0.631746349642D-06  7 -2 2 23 -11 11 23 21 2 0.40080132D-01 0.21738285D+00 0.24608449D+06 0.24608449D+06 0.24608449D+06 0.10909752D+01  1  2 11  1  7  1       -2 0.355595246109D-02 0.100000000000D+01
0.409035676759D-09 0.000000000000D+00 0.000000000000D+00 0.465580367544D-06 0.000000000000D+00  7 21 2 23 -11 11 23 2 2 0.40120578D-01 0.21694352D+00 0.24608449D+06 0.24608449D+06 0.24608449D+06 0.10909752D+01  1  2 12  3  7  1       -2 0.569416739228D-07 0.100000000000D+01
0.202123424471D-06 0.000000000000D+00 0.000000000000D+00 0.465580367544D-06 0.185818635717D-09  7 21 2 23 -11 11 23 2 2 0.40080132D-01 0.21738285D+00 0.24608449D+06 0.24608449D+06 0.24608449D+06 0.10909752D+01  1  2 11  3  7  1       -2 0.280938704597D-04 0.100000000000D+01
  </mgrwgt>
  </event>
  <event>
  8     66 0.53686478E-06 0.18397292E+03 0.75467711E-02 0.92858794E-01
       -2 -1    0    0    0  501 0.00000000E+00 0.00000000E+00 0.15071894E+03 0.15071928E+03 0.32000000E+00 0.0000E+00 0.9000E+01
        2 -1    0    0  501    0 0.00000000E+00 0.00000000E+00 -.35712629E+04 0.35712629E+04 0.32000000E+00 0.0000E+00 0.9000E+01
       25  2    1    2    0    0 -.31996965E+03 0.40721178E+03 -.29690554E+04 0.30287947E+04 0.30017482E+03 0.0000E+00 0.0000E+00
       23  2    1    2    0    0 0.31996965E+03 -.40721178E+03 -.45148848E+03 0.69318749E+03 0.92005651E+02 0.0000E+00 0.0000E+00
       23  1    3    3    0    0 -.11515276E+03 0.16826878E+03 -.66383629E+03 0.70040589E+03 0.91188000E+02 0.0000E+00 0.9000E+01
      -13  1    4    4    0    0 0.32425696E+03 -.38497941E+03 -.43285497E+03 0.66386381E+03 0.10565837E+00 0.0000E+00 0.9000E+01
       13  1    4    4    0    0 -.42873125E+01 -.22232372E+02 -.18633512E+02 0.29323682E+02 0.10565837E+00 0.0000E+00 0.9000E+01
       23  1    3    3    0    0 -.20481689E+03 0.23894300E+03 -.23052191E+04 0.23283888E+04 0.91188000E+02 0.0000E+00 0.9000E+01
#aMCatNLO 1  0  0  2  1 0.90505000D+02 0.00000000D+00  -5  7  0 0.00000000D+00 0.00000000D+00 0.00000000D+00 0.00000000D+00 0.00000000D+00
  <mgrwgt>
 0.3333361027D-03    9    2    0
 0.733660427212158D+03 0.000000000000000D+00 0.000000000000000D+00 0.733660427212158D+03
 0.733660427212158D+03 0.000000000000000D+00 0.000000000000000D+00 -.733660427212158D+03
 0.229136692661546D+03 -.115152758490112D+03 0.168268784737753D+03 -.511256381365510D+02
 0.674897428506397D+03 0.324257393194311D+03 -.384979888819914D+03 0.449593335323805D+03
 0.309436281277645D+02 -.428774578489646D+01 -.222318938032797D+02 0.210918528278852D+02
 0.532343105128610D+03 -.204816888919303D+03 0.238942997885441D+03 -.419559550015139D+03
 0.000000000000000D+00 0.000000000000000D+00 0.000000000000000D+00 -.000000000000000D+00
 0.741551913460561D+03 0.000000000000000D+00 0.000000000000000D+00 0.741551913460561D+03
 0.105023421732187D+04 0.000000000000000D+00 0.000000000000000D+00 -.105023421732187D+04
 0.232247064326955D+03 -.128323493077634D+03 0.162919298408672D+03 -.511256381365510D+02
 0.666585563093206D+03 0.285963204965068D+03 -.400533632998290D+03 0.449593335323805D+03
 0.317634869653739D+02 -.607779313080137D+01 -.229589476924682D+02 0.210918528278852D+02
 0.539513284573575D+03 -.235414273007661D+03 0.226515423189539D+03 -.419559550015139D+03
 0.321676731823325D+03 0.838523542510274D+02 0.340578590925476D+02 -.308682303861313D+03
0.187459518255D-03 0.000000000000D+00 0.000000000000D+00 0.422098118894D-05 0.000000000000D+00  7 -2 2 23 -13 13 23 21 0 0.23187557D-01 0.54942508D+00 0.28998215D+06 0.28998215D+06 0.28998215D+06 0.10856448D+01  1  2  2  2  7  2        2 0.271608513093D-03 0.100000000000D+01
-.920337044679D-05 0.000000000000D+00 -.719893909325D-06 0.422098118894D-05 0.000000000000D+00  7 -2 2 23 -13 13 23 21 2 0.23187557D-01 0.54942508D+00 0.28998215D+06 0.28998215D+06 0.28998215D+06 0.10856448D+01  1  2  3  2  7  2        2 -.157165897502D-04 0.100000000000D+01
0.113381181630D-04 0.000000000000D+00 0.000000000000D+00 0.422098118894D-05 0.000000000000D+00  7 -2 2 23 -13 13 23 21 2 0.23187557D-01 0.54942508D+00 0.28998215D+06 0.28998215D+06 0.28998215D+06 0.10856448D+01  1  2 15  2  7  2        2 0.193620970424D-04 0.100000000000D+01
0.747566598634D-03 0.000000000000D+00 0.000000000000D+00 0.422098118894D-05 0.000000000000D+00  7 -2 2 23 -13 13 23 21 2 0.23187557D-01 0.78847690D+00 0.34347043D+06 0.34347043D+06 0.34347043D+06 0.10802305D+01  1  2 12  2  7  2        2 0.377461614029D-04 0.100000000000D+01
-.755301238544D-03 0.000000000000D+00 0.000000000000D+00 0.422098118894D-05 0.000000000000D+00  7 -2 2 23 -13 13 23 21 2 0.23187557D-01 0.54942508D+00 0.28998215D+06 0.28998215D+06 0.28998215D+06 0.10856448D+01  1  2  4  2  7  2        2 -.128982743579D-02 0.100000000000D+01
-.772792716211D-03 0.000000000000D+00 -.422583891099D-04 0.422098118894D-05 0.000000000000D+00  7 -2 2 23 -13 13 23 21 2 0.23187557D-01 0.78725048D+00 0.28998215D+06 0.28998215D+06 0.28998215D+06 0.10856448D+01  1  2  5  2  7  2        2 -.412248267298D-04 0.100000000000D+01
0.791350530977D-03 0.000000000000D+00 0.424329872205D-04 0.422098118894D-05 0.000000000000D+00  7 -2 2 23 -13 13 23 21 2 0.23187557D-01 0.54942508D+00 0.28998215D+06 0.28998215D+06 0.28998215D+06 0.10856448D+01  1  2  6  2  7  2        2 0.135138878913D-02 0.100000000000D+01
0.330391126974D-04 0.000000000000D+00 0.000000000000D+00 0.422098118894D-05 0.000000000000D+00  7 -2 21 23 -13 13 23 -2 2 0.23187557D-01 0.78847690D+00 0.34347043D+06 0.34347043D+06 0.34347043D+06 0.10802305D+01  1  2 12  4  7  2        2 0.965192601267D-08 0.100000000000D+01
-.328043027300D-04 0.000000000000D+00 -.186180957156D-05 0.422098118894D-05 0.000000000000D+00  7 -2 21 23 -13 13 23 -2 2 0.23187557D-01 0.78725048D+00 0.28998215D+06 0.28998215D+06 0.28998215D+06 0.10856448D+01  1  2  5  4  7  2        2 -.102575821222D-07 0.100000000000D+01
  </mgrwgt>
  </event>
  <event>
  9     66 0.53686478E-06 0.20664210E+03 0.75467711E-02 0.10223866E+00
       -4 -1    0    0    0  501 0.00000000E+00 0.00000000E+00 0.14690739E+03 0.14691557E+03 0.15500000E+01 0.0000E+00 0.9000E+01
       21 -1    0    0  501  502 0.00000000E+00 0.00000000E+00 -.69896964E+03 0.69897004E+03 0.75000000E+00 0.0000E+00 0.9000E+01
       25  2    1    2    0    0 -.24326900E+02 -.34901342E+02 -.10598865E+03 0.32138033E+03 0.30040277E+03 0.0000E+00 0.0000E+00
       23  2    1    2    0    0 0.18553574E+02 0.13804675E+03 -.31093216E+03 0.35439380E+03 0.97544944E+02 0.0000E+00 0.0000E+00
       23  1    3    3    0    0 0.84503038E+02 0.44072216E+02 -.86525985E+02 0.15775019E+03 0.91188000E+02 0.0000E+00 0.9000E+01
      -11  1    4    4    0    0 -.24011181E+01 0.10103714E+02 0.59828588E+01 0.11985200E+02 0.51099893E-03 0.0000E+00 0.9000E+01
       11  1    4    4    0    0 0.20954692E+02 0.12794303E+03 -.31691502E+03 0.34240860E+03 0.51099893E-03 0.0000E+00 0.9000E+01
       23  1    3    3    0    0 -.10882994E+03 -.78973557E+02 -.19462665E+02 0.16363015E+03 0.91188000E+02 0.0000E+00 0.9000E+01
       -4  1    1    2    0  502 0.57733260E+01 -.10314540E+03 -.13514143E+03 0.17011148E+03 0.15500000E+01 0.0000E+00 0.9000E+01
#aMCatNLO 2  0  0  2  1 0.10330685D+03 0.00000000D+00  -5  7  0 0.00000000D+00 0.00000000D+00 0.00000000D+00 0.00000000D+00 0.00000000D+00
  <mgrwgt>
 0.2505015989D-05    2    2    0
 0.260852164515731D+03 0.000000000000000D+00 0.000000000000000D+00 0.260852164515731D+03
 0.260852164515731D+03 0.000000000000000D+00 0.000000000000000D+00 -.260852164515731D+03
 0.127411302041050D+03 0.859279642083966D+02 0.186146957475926D+02 0.137210281327839D+02
 0.182817190282779D+02 -.219177986681700D+01 0.636370891328617D+01 0.169976633838677D+02
 0.165202095480167D+03 0.228827735034990D+02 0.934962060173285D+02 -.134263064497244D+03
 0.210809212481968D+03 -.106618957845079D+03 -.118474610678207D+03 0.103544372980593D+03
 0.000000000000000D+00 0.000000000000000D+00 -.000000000000000D+00 -.000000000000000D+00
 0.301836252185429D+03 0.000000000000000D+00 0.000000000000000D+00 0.301836252185429D+03
 0.340197287445027D+03 0.000000000000000D+00 0.000000000000000D+00 -.340197287445027D+03
 0.132614635745529D+03 0.845030382769808D+02 0.440722154974955D+02 0.137210281327839D+02
 0.199191106340912D+02 -.240111803227412D+01 0.101037141753406D+02 0.169976633838677D+02
 0.186641605148813D+03 0.209546919547920D+02 0.127943030952897D+03 -.134263064497244D+03
 0.192658938863519D+03 -.108829938165913D+03 -.789735573649606D+02 0.103544372980593D+03
 0.110199249238504D+03 0.577332596641425D+01 -.103145403260772D+03 -.383610352595982D+02
-.243315496347D-07 0.000000000000D+00 0.000000000000D+00 0.143801104371D-07 0.000000000000D+00  7 -4 21 23 -11 11 23 -4 2 0.19532530D-01 0.11243055D+00 0.72283300D+05 0.72283300D+05 0.72283300D+05 0.11334765D+01  1  2 13  4  7  2        4 -.232703369809D-05 0.100000000000D+01
0.589209032327D-07 0.000000000000D+00 0.000000000000D+00 0.143801104371D-07 0.409580113166D-12  7 -4 21 23 -11 11 23 -4 2 0.22601405D-01 0.10753259D+00 0.72283300D+05 0.72283300D+05 0.72283300D+05 0.11334765D+01  1  2  1  4  7  2        4 0.483204968746D-05 0.100000000000D+01
  </mgrwgt>
  </event>
  <event>
  8     66 0.53686478E-06 0.20892249E+03 0.75467711E-02 0.10085922E+00
       -2 -1    0    0    0  501 0.00000000E+00 0.00000000E+00 0.27509731E+02 0.27511592E+02 0.32000000E+00 0.0000E+00 0.9000E+01
        2 -1    0    0  501    0 0.00000000E+00 0.00000000E+00 -.27426643E+04 0.27426643E+04 0.32000000E+00 0.0000E+00 0.9000E+01
       25  2    1    2    0    0 0.16019365E+03 -.66932671E+02 -.15185872E+04 0.15574595E+04 0.29905019E+03 0.0000E+00 0.0000E+00
       23  2    1    2    0    0 -.16019365E+03 0.66932671E+02 -.11965674E+04 0.12127164E+04 0.93624993E+02 0.0000E+00 0.0000E+00
       23  1    3    3    0    0 0.10661759E+03 0.80796625E+02 -.62834661E+03 0.64886833E+03 0.91188000E+02 0.0000E+00 0.9000E+01
      -11  1    4    4    0    0 -.81029396E+02 0.99165693E+01 -.80701963E+03 0.81113796E+03 0.51099893E-03 0.0000E+00 0.9000E+01
       11  1    4    4    0    0 -.79164254E+02 0.57016102E+02 -.38954775E+03 0.40157846E+03 0.51099893E-03 0.0000E+00 0.9000E+01
       23  1    3    3    0    0 0.53576059E+02 -.14772930E+03 -.89024056E+03 0.90859113E+03 0.91188000E+02 0.0000E+00 0.9000E+01
#aMCatNLO 1  0  0  1  2 0.71937029D+02 0.00000000D+00  -5  7  0 0.00000000D+00 0.00000000D+00 0.00000000D+00 0.00000000D+00 0.00000000D+00
  <mgrwgt>
 0.3578777783D-03    9    2    0
 0.274686294649561D+03 0.000000000000000D+00 0.000000000000000D+00 0.274686294649561D+03
 0.274686294649561D+03 0.000000000000000D+00 0.000000000000000D+00 -.274686294649561D+03
 0.166410318464428D+03 0.106617590893329D+03 0.807966250234693D+02 0.384933428575871D+02
 0.101591876062065D+03 -.810293958711685D+02 0.991656935753716D+01 -.604715465218195D+02
 0.996785078580099D+02 -.791642537881966D+02 0.570161020868950D+02 0.204448026102996D+02
 0.181691886914620D+03 0.535760587660357D+02 -.147729296467901D+03 0.153340105393284D+01
 0.000000000000000D+00 -.000000000000000D+00 -.000000000000000D+00 0.000000000000000D+00
 0.402263591673093D+03 0.000000000000000D+00 0.000000000000000D+00 0.402263591673093D+03
 0.287361883192169D+03 0.000000000000000D+00 0.000000000000000D+00 -.287361883192169D+03
 0.184894621539143D+03 0.127525010281774D+03 0.901465697538433D+02 0.384933428575871D+02
 0.933033797701460D+02 -.694304788435260D+02 0.151036864821206D+02 -.604715465218195D+02
 0.941144274840095D+02 -.676309398140970D+02 0.621738810653699D+02 0.204448026102996D+02
 0.181750002698107D+03 0.752057916396612D+02 -.138056328075976D+03 0.153340105393284D+01
 0.135563043373856D+03 -.656693832638127D+02 -.293678092253574D+02 0.114901708480925D+03
0.399972469770D-05 0.000000000000D+00 0.000000000000D+00 0.153131426011D-07 0.000000000000D+00  7 -2 2 23 -11 11 23 21 0 0.42324109D-02 0.42194849D+00 0.68323610D+05 0.68323610D+05 0.68323610D+05 0.11355556D+01  1  2  2  1  7  1       -2 0.306210071747D-03 0.100000000000D+01
-.221541610075D-06 0.000000000000D+00 -.153599959909D-07 0.153131426011D-07 0.000000000000D+00  7 -2 2 23 -11 11 23 21 2 0.42324109D-02 0.42194849D+00 0.68323610D+05 0.68323610D+05 0.68323610D+05 0.11355556D+01  1  2  3  1  7  1       -2 -.218706407678D-04 0.100000000000D+01
0.259814516649D-06 0.000000000000D+00 0.000000000000D+00 0.153131426011D-07 0.000000000000D+00  7 -2 2 23 -11 11 23 21 2 0.42324109D-02 0.42194849D+00 0.68323610D+05 0.68323610D+05 0.68323610D+05 0.11355556D+01  1  2 15  1  7  1       -2 0.256489512646D-04 0.100000000000D+01
0.736011828953D-05 0.000000000000D+00 0.000000000000D+00 0.153131426011D-07 0.000000000000D+00  7 -2 2 23 -11 11 23 21 2 0.62601011D-02 0.42194849D+00 0.89235150D+05 0.89235150D+05 0.89235150D+05 0.11258039D+01  1  2 12  1  7  1       -2 0.396050091781D-03 0.100000000000D+01
-.750711870390D-05 0.000000000000D+00 0.000000000000D+00 0.153131426011D-07 0.000000000000D+00  7 -2 2 23 -11 11 23 21 2 0.42324109D-02 0.42194849D+00 0.68323610D+05 0.68323610D+05 0.68323610D+05 0.11355556D+01  1  2  4  1  7  1       -2 -.741104555116D-03 0.100000000000D+01
-.887408960251D-05 0.000000000000D+00 -.158918014441D-05 0.153131426011D-07 0.000000000000D+00  7 -2 2 23 -11 11 23 21 2 0.65582067D-02 0.42194849D+00 0.68323610D+05 0.68323610D+05 0.68323610D+05 0.11355556D+01  1  2  5  1  7  1       -2 -.456835433323D-03 0.100000000000D+01
0.884892077358D-05 0.000000000000D+00 0.144807842668D-05 0.153131426011D-07 0.000000000000D+00  7 -2 2 23 -11 11 23 21 2 0.42324109D-02 0.42194849D+00 0.68323610D+05 0.68323610D+05 0.68323610D+05 0.11355556D+01  1  2  6  1  7  1       -2 0.873567576567D-03 0.100000000000D+01
0.344823040069D-06 0.000000000000D+00 0.000000000000D+00 0.153131426011D-07 0.000000000000D+00  7 21 2 23 -11 11 23 2 2 0.62601011D-02 0.42194849D+00 0.89235150D+05 0.89235150D+05 0.89235150D+05 0.11258039D+01  1  2 12  3  7  1       -2 0.293336579289D-03 0.100000000000D+01
-.390675853159D-06 0.000000000000D+00 -.809066814155D-07 0.153131426011D-07 0.000000000000D+00  7 21 2 23 -11 11 23 2 2 0.65582067D-02 0.42194849D+00 0.68323610D+05 0.68323610D+05 0.68323610D+05 0.11355556D+01  1  2  5  3  7  1       -2 -.317124863104D-03 0.100000000000D+01
  </mgrwgt>
  </event>
  <event>
  8     66 0.53686478E-06 0.14335002E+03 0.75467711E-02 0.10089108E+00
       -2 -1    0    0    0  501 0.00000000E+00 0.00000000E+00 0.31522110E+03 0.31522126E+03 0.32000000E+00 0.0000E+00 0.9000E+01
        2 -1    0    0  501    0 0.00000000E+00 0.00000000E+00 -.31984218E+03 0.31984234E+03 0.32000000E+00 0.0000E+00 0.9000E+01
       25  2    1    2    0    0 0.54577238E+02 -.11720631E+03 -.20024480E+03 0.38362846E+03 0.30059411E+03 0.0000E+00 0.0000E+00
       23  2    1    2    0    0 -.54577238E+02 0.11720631E+03 0.19562372E+03 0.25143514E+03 0.90746872E+02 0.0000E+00 0.0000E+00
       23  1    3    3    0    0 -.64812256E+02 -.13476934E+03 -.12089635E+03 0.21282524E+03 0.91188000E+02 0.0000E+00 0.9000E+01
      -13  1    4    4    0    0 -.52822877E+02 0.12790637E+03 0.14810669E+03 0.20269657E+03 0.10565837E+00 0.0000E+00 0.9000E+01
       13  1    4    4    0    0 -.17543615E+01 -.10700059E+02 0.47517026E+02 0.48738568E+02 0.10565837E+00 0.0000E+00 0.9000E+01
       23  1    3    3    0    0 0.11938949E+03 0.17563027E+02 -.79348446E+02 0.17080322E+03 0.91188000E+02 0.0000E+00 0.9000E+01
#aMCatNLO 1  0  0  1  2 0.11197359D+03 0.00000000D+00  -5  7  0 0.00000000D+00 0.00000000D+00 0.00000000D+00 0.00000000D+00 0.00000000D+00
  <mgrwgt>
 0.1557201580D-03    7    2    0
 0.317523391682463D+03 0.000000000000000D+00 0.000000000000000D+00 0.317523391682463D+03
 0.317523391682463D+03 0.000000000000000D+00 0.000000000000000D+00 -.317523391682463D+03
 0.211951142429272D+03 -.648122559946100D+02 -.134769340071035D+03 -.119350877176419D+03
 0.203779884054574D+03 -.528229460472399D+02 0.127906559201384D+03 0.149585726690245D+03
 0.490854178748319D+02 -.175429245198026D+01 -.107002464581485D+02 0.478728047191166D+02
 0.170230339006249D+03 0.119389494493830D+03 0.175630273277996D+02 -.781076542329433D+02
 0.000000000000000D+00 -.000000000000000D+00 0.000000000000000D+00 0.000000000000000D+00
 0.710694081668116D+03 0.000000000000000D+00 0.000000000000000D+00 0.710694081668116D+03
 0.330494493711071D+03 0.000000000000000D+00 0.000000000000000D+00 -.330494493711071D+03
 0.211070472168538D+03 -.293509593479964D+02 -.145359492913333D+03 -.119350877176419D+03
 0.191545378246735D+03 -.196833949827028D+02 0.118009771884328D+03 0.149585726690245D+03
 0.500861043861786D+02 0.655911435381027D+01 -.131829602063478D+02 0.478728047191166D+02
 0.192141050410424D+03 0.149766569548417D+03 0.849122516174029D+01 -.781076542329433D+02
 0.396345570167310D+03 -.107291329571528D+03 0.320414560736126D+02 0.380199587957045D+03
0.428110971473D-05 0.000000000000D+00 0.000000000000D+00 0.296583215771D-06 0.000000000000D+00  7 -2 2 23 -13 13 23 21 0 0.48495578D-01 0.49206513D-01 0.56557029D+05 0.56557029D+05 0.56557029D+05 0.11426176D+01  1  2  2  1  7  1       -2 0.215936111011D-03 0.100000000000D+01
-.213678778326D-06 0.000000000000D+00 -.164405885466D-07 0.296583215771D-06 0.000000000000D+00  7 -2 2 23 -13 13 23 21 2 0.48495578D-01 0.49206513D-01 0.56557029D+05 0.56557029D+05 0.56557029D+05 0.11426176D+01  1  2  3  1  7  1       -2 -.140712330704D-04 0.100000000000D+01
0.270102058821D-06 0.000000000000D+00 0.000000000000D+00 0.296583215771D-06 0.000000000000D+00  7 -2 2 23 -13 13 23 21 2 0.48495578D-01 0.49206513D-01 0.56557029D+05 0.56557029D+05 0.56557029D+05 0.11426176D+01  1  2 15  1  7  1       -2 0.177868342952D-04 0.100000000000D+01
0.992026054178D-05 0.000000000000D+00 0.000000000000D+00 0.296583215771D-06 0.000000000000D+00  7 -2 2 23 -13 13 23 21 2 0.10825835D+00 0.49206513D-01 0.88796100D+05 0.88796100D+05 0.88796100D+05 0.11259817D+01  1  2 12  1  7  1       -2 0.110519276172D-03 0.100000000000D+01
-.133359577035D-04 0.000000000000D+00 -.127201592769D-05 0.296583215771D-06 0.000000000000D+00  7 -2 2 23 -13 13 23 21 2 0.11034113D+00 0.49206513D-01 0.56557029D+05 0.56557029D+05 0.56557029D+05 0.11426176D+01  1  2  5  1  7  1       -2 -.147646072522D-03 0.100000000000D+01
0.864468504776D-06 0.000000000000D+00 0.000000000000D+00 0.296583215771D-06 0.000000000000D+00  7 21 2 23 -13 13 23 2 2 0.10825835D+00 0.49206513D-01 0.88796100D+05 0.88796100D+05 0.88796100D+05 0.11259817D+01  1  2 12  3  7  1       -2 0.910927855333D-04 0.100000000000D+01
-.111134312355D-05 0.000000000000D+00 -.113677733102D-06 0.296583215771D-06 0.000000000000D+00  7 21 2 23 -13 13 23 2 2 0.11034113D+00 0.49206513D-01 0.56557029D+05 0.56557029D+05 0.56557029D+05 0.11426176D+01  1  2  5  3  7  1       -2 -.117897543372D-03 0.100000000000D+01
  </mgrwgt>
  </event>
  <event>
  8     66 0.53686478E-06 0.84831776E+03 0.75467711E-02 0.85631147E-01
       -2 -1    0    0    0  501 0.00000000E+00 0.00000000E+00 0.33189713E+03 0.33189729E+03 0.32000000E+00 0.0000E+00 0.9000E+01
        2 -1    0    0  501    0 0.00000000E+00 0.00000000E+00 -.23169511E+04 0.23169511E+04 0.32000000E+00 0.0000E+00 0.9000E+01
       25  2    1    2    0    0 -.82507018E+03 -.13193812E+03 -.79100170E+03 0.11887728E+04 0.29891222E+03 0.0000E+00 0.0000E+00
       23  2    1    2    0    0 0.82507018E+03 0.13193812E+03 -.11940522E+04 0.14600756E+04 0.88947199E+02 0.0000E+00 0.0000E+00
       23  1    3    3    0    0 -.50480129E+03 -.34745337E+02 -.32657820E+03 0.60909782E+03 0.91188000E+02 0.0000E+00 0.9000E+01
      -13  1    4    4    0    0 0.28848667E+03 0.41978405E+02 -.34522726E+03 0.45185022E+03 0.10565837E+00 0.0000E+00 0.9000E+01
       13  1    4    4    0    0 0.53658351E+03 0.89959717E+02 -.84882499E+03 0.10082254E+04 0.10565837E+00 0.0000E+00 0.9000E+01
       23  1    3    3    0    0 -.32026890E+03 -.97192784E+02 -.46442350E+03 0.57967494E+03 0.91188000E+02 0.0000E+00 0.9000E+01
#aMCatNLO 1  0  0  2  2 0.61400504D+03 0.00000000D+00  -5  7  0 0.00000000D+00 0.00000000D+00 0.00000000D+00 0.00000000D+00 0.00000000D+00
  <mgrwgt>
 0.2639197957D-03    7    2    0
 0.876920554577268D+03 0.000000000000000D+00 0.000000000000000D+00 0.876920554577268D+03
 0.876920554577268D+03 0.000000000000000D+00 0.000000000000000D+00 -.876920554577268D+03
 0.550296388232892D+03 -.504801288584380D+03 -.347453374672167D+02 0.196161372665479D+03
 0.291695362384132D+03 0.288486322495101D+03 0.419783368578149D+02 -.998225447055696D+01
 0.562008462935952D+03 0.536583862099927D+03 0.899597848058180D+02 -.140849240194078D+03
 0.349840895601560D+03 -.320268896010648D+03 -.971927841964162D+02 -.453298780008438D+02
 0.000000000000000D+00 -.000000000000000D+00 -.000000000000000D+00 -.000000000000000D+00
 0.118973019267721D+04 0.000000000000000D+00 0.000000000000000D+00 0.118973019267721D+04
 0.129074279769091D+04 0.000000000000000D+00 0.000000000000000D+00 -.129074279769091D+04
 0.416577910813275D+03 -.354574830874326D+03 0.319266286662357D+02 0.196161372665479D+03
 0.407329746843437D+03 0.397096165691095D+03 0.901804438481755D+02 -.998225447055696D+01
 0.779933153514535D+03 0.745085769423285D+03 0.182494963466912D+03 -.140849240194078D+03
 0.254373606306936D+03 -.226390090453087D+03 -.555284552879688D+02 -.453298780008438D+02
 0.622258572889940D+03 -.561217013786967D+03 -.249073580693354D+03 -.101012605013705D+03
0.105880682362D-03 0.000000000000D+00 0.000000000000D+00 0.289294430289D-06 0.000000000000D+00  7 -2 2 23 -13 13 23 21 0 0.51061111D-01 0.35645403D+00 0.71964302D+06 0.71964302D+06 0.71964302D+06 0.10575097D+01  1  2  2  2  7  2        2 0.211786443665D-03 0.100000000000D+01
-.587439539786D-05 0.000000000000D+00 -.406609699294D-06 0.289294430289D-06 0.000000000000D+00  7 -2 2 23 -13 13 23 21 2 0.51061111D-01 0.35645403D+00 0.71964302D+06 0.71964302D+06 0.71964302D+06 0.10575097D+01  1  2  3  2  7  2        2 -.131405437239D-04 0.100000000000D+01
0.654765052210D-05 0.000000000000D+00 0.000000000000D+00 0.289294430289D-06 0.000000000000D+00  7 -2 2 23 -13 13 23 21 2 0.51061111D-01 0.35645403D+00 0.71964302D+06 0.71964302D+06 0.71964302D+06 0.10575097D+01  1  2 15  2  7  2        2 0.146465605645D-04 0.100000000000D+01
-.306215766468D-04 0.000000000000D+00 0.000000000000D+00 0.289294430289D-06 0.000000000000D+00  7 -2 2 23 -13 13 23 21 2 0.51061111D-01 0.35645403D+00 0.71964302D+06 0.71964302D+06 0.71964302D+06 0.10575097D+01  1  2  4  2  7  2        2 -.684979712072D-04 0.100000000000D+01
-.495335016392D-04 0.000000000000D+00 -.284572192357D-04 0.289294430289D-06 0.000000000000D+00  7 -2 2 23 -13 13 23 21 2 0.51061111D-01 0.57396877D+00 0.71964302D+06 0.71964302D+06 0.71964302D+06 0.10575097D+01  1  2  5  2  7  2        2 -.132782491855D-04 0.100000000000D+01
0.591945942296D-04 0.000000000000D+00 0.255078480790D-04 0.289294430289D-06 0.000000000000D+00  7 -2 2 23 -13 13 23 21 2 0.51061111D-01 0.35645403D+00 0.71964302D+06 0.71964302D+06 0.71964302D+06 0.10575097D+01  1  2  6  2  7  2        2 0.132413482752D-03 0.100000000000D+01
-.147521301222D-05 0.000000000000D+00 -.154475933306D-05 0.289294430289D-06 0.000000000000D+00  7 -2 21 23 -13 13 23 -2 2 0.51061111D-01 0.57396877D+00 0.71964302D+06 0.71964302D+06 0.71964302D+06 0.10575097D+01  1  2  5  4  7  2        2 -.992720112937D-08 0.100000000000D+01
  </mgrwgt>
  </event>
  <event>
  8     66 0.53686478E-06 0.21153498E+03 0.75467711E-02 0.92145072E-01
       -2 -1    0    0    0  501 0.00000000E+00 0.00000000E+00 0.77582699E+02 0.77583359E+02 0.32000000E+00 0.0000E+00 0.9000E+01
        2 -1    0    0  501    0 0.00000000E+00 0.00000000E+00 -.83695772E+03 0.83695778E+03 0.32000000E+00 0.0000E+00 0.9000E+01
       25  2    1    2    0    0 -.97193017E+02 0.29690166E+02 -.69347422E+03 0.76250043E+03 0.30028724E+03 0.0000E+00 0.0000E+00
       23  2    1    2    0    0 0.97193017E+02 -.29690166E+02 -.65900805E+02 0.15204071E+03 0.91899259E+02 0.0000E+00 0.0000E+00
       23  1    3    3    0    0 0.69795977E+02 -.25126374E+02 -.22374704E+03 0.25274652E+03 0.91188000E+02 0.0000E+00 0.9000E+01
      -13  1    4    4    0    0 0.26683440E+02 0.76111329E+01 -.66728697E+02 0.72268011E+02 0.10565837E+00 0.0000E+00 0.9000E+01
       13  1    4    4    0    0 0.70509578E+02 -.37301299E+02 0.82789176E+00 0.79772702E+02 0.10565837E+00 0.0000E+00 0.9000E+01
       23  1    3    3    0    0 -.16698899E+03 0.54816540E+02 -.46972717E+03 0.50975391E+03 0.91188000E+02 0.0000E+00 0.9000E+01
#aMCatNLO 1  0  0  1  2 0.55735312D+03 0.00000000D+00  -5  7  0 0.00000000D+00 0.00000000D+00 0.00000000D+00 0.00000000D+00 0.00000000D+00
  <mgrwgt>
 0.2842509883D-03    3    2    0
 0.254821052273999D+03 0.000000000000000D+00 0.000000000000000D+00 0.254821052273999D+03
 0.254821052273999D+03 0.000000000000000D+00 0.000000000000000D+00 -.254821052273999D+03
 0.120161137074241D+03 0.697959736101536D+02 -.251263730972726D+02 -.249125462721471D+02
 0.302563040463941D+02 0.266833816944324D+02 0.761119163574846D+01 -.120627873139250D+02
 0.144384020697729D+03 0.705096380244069D+02 -.373013580718516D+02 0.120348431915438D+03
 0.214840642729635D+03 -.166988993328993D+03 0.548165395333757D+02 -.833730983293657D+02
 0.000000000000000D+00 0.000000000000000D+00 0.000000000000000D+00 -.000000000000000D+00
 0.520818366239188D+03 0.000000000000000D+00 0.000000000000000D+00 0.520818366239188D+03
 0.919933330436571D+03 0.000000000000000D+00 0.000000000000000D+00 -.919933330436571D+03
 0.139108429639570D+03 -.157649000548914D+02 -.100830237613944D+03 -.249125462721471D+02
 0.174659863674148D+02 0.109346730709879D+02 -.632319277235347D+01 -.120627873139250D+02
 0.183242577354001D+03 -.376095613112988D+02 -.132964724603197D+03 0.120348431915438D+03
 0.415416464485037D+03 -.374978497883593D+03 -.129211610241395D+03 -.833730983293657D+02
 0.685518238829737D+03 0.417418286178795D+03 0.369329765230890D+03 -.399114964197383D+03
0.151659207056D-05 0.000000000000D+00 0.000000000000D+00 0.211506725685D-06 0.000000000000D+00  7 -2 2 23 -13 13 23 21 0 0.11935855D-01 0.12876278D+00 0.44747046D+05 0.44747046D+05 0.44747046D+05 0.11515598D+01  1  2  2  1  7  1       -2 0.280169209342D-03 0.100000000000D+01
-.807045072649D-07 0.000000000000D+00 -.582411287880D-08 0.211506725685D-06 0.000000000000D+00  7 -2 2 23 -13 13 23 21 2 0.11935855D-01 0.12876278D+00 0.44747046D+05 0.44747046D+05 0.44747046D+05 0.11515598D+01  1  2  3  1  7  1       -2 -.197707171628D-04 0.100000000000D+01
0.973664197857D-07 0.000000000000D+00 0.000000000000D+00 0.211506725685D-06 0.000000000000D+00  7 -2 2 23 -13 13 23 21 2 0.11935855D-01 0.12876278D+00 0.44747046D+05 0.44747046D+05 0.44747046D+05 0.11515598D+01  1  2 15  1  7  1       -2 0.238524961242D-04 0.100000000000D+01
  </mgrwgt>
  </event>
  <event>
  8     66 0.53686478E-06 0.40742668E+03 0.75467711E-02 0.87692851E-01
       -2 -1    0    0    0  501 0.00000000E+00 0.00000000E+00 0.78541246E+03 0.78541252E+03 0.32000000E+00 0.0000E+00 0.9000E+01
        2 -1    0    0  501    0 0.00000000E+00 0.00000000E+00 -.12658945E+04 0.12658945E+04 0.32000000E+00 0.0000E+00 0.9000E+01
       25  2    1    2    0    0 0.41932922E+03 -.81485236E+03 0.89712599E+02 0.96817161E+03 0.29914303E+03 0.0000E+00 0.0000E+00
       23  2    1    2    0    0 -.41932922E+03 0.81485236E+03 -.57019461E+03 0.10831354E+04 0.90769415E+02 0.0000E+00 0.0000E+00
       23  1    3    3    0    0 0.12387710E+02 -.16201408E+03 -.12714114E+02 0.18675898E+03 0.91188000E+02 0.0000E+00 0.9000E+01
      -13  1    4    4    0    0 -.19458712E+03 0.37249364E+03 -.31481974E+03 0.52509726E+03 0.10565837E+00 0.0000E+00 0.9000E+01
       13  1    4    4    0    0 -.22474211E+03 0.44235872E+03 -.25537488E+03 0.55803816E+03 0.10565837E+00 0.0000E+00 0.9000E+01
       23  1    3    3    0    0 0.40694151E+03 -.65283828E+03 0.10242671E+03 0.78141263E+03 0.91188000E+02 0.0000E+00 0.9000E+01
#aMCatNLO 1  0  0  1  2 0.57778165D+02 0.00000000D+00  -5  7  0 0.00000000D+00 0.00000000D+00 0.00000000D+00 0.00000000D+00 0.00000000D+00
  <mgrwgt>
 0.2598608281D-03    9    2    0
 0.997120554149046D+03 0.000000000000000D+00 0.000000000000000D+00 0.997120554149046D+03
 0.997120554149046D+03 0.000000000000000D+00 0.000000000000000D+00 -.997120554149046D+03
 0.189039887111800D+03 0.123877096603763D+02 -.162014081082647D+03 0.319187994065833D+02
 0.464272026319202D+03 -.194587076176392D+03 0.372493544587079D+03 -.197314326516387D+03
 0.512478005039089D+03 -.224742148090132D+03 0.442358814819071D+03 -.128231632105911D+03
 0.828451189828000D+03 0.406941514606147D+03 -.652838278323502D+03 0.293627159215714D+03
 0.000000000000000D+00 -.000000000000000D+00 0.000000000000000D+00 0.000000000000000D+00
 0.104419772092642D+04 0.000000000000000D+00 0.000000000000000D+00 0.104419772092642D+04
 0.101542582929893D+04 0.000000000000000D+00 0.000000000000000D+00 -.101542582929893D+04
 0.192730739640157D+03 0.162475514848389D+02 -.165973172450947D+03 0.319187994065833D+02
 0.452803931463485D+03 -.185315100047231D+03 0.362983154698201D+03 -.197314326516387D+03
 0.498970895114604D+03 -.214516026711086D+03 0.431869745389755D+03 -.128231632105911D+03
 0.850572355672352D+03 0.423917061835427D+03 -.670250324092233D+03 0.293627159215714D+03
 0.645456283347487D+02 -.403334865619490D+02 0.413705964552231D+02 0.287718916274839D+02
0.114168374376D-03 0.000000000000D+00 0.000000000000D+00 0.204509734475D-05 0.000000000000D+00  7 -2 2 23 -13 13 23 21 0 0.12083269D+00 0.19475300D+00 0.88118448D+06 0.88118448D+06 0.88118448D+06 0.10515404D+01  1  2  2  1  7  1       -2 0.123886716121D-03 0.100000000000D+01
-.631459039737D-05 0.000000000000D+00 -.438436618825D-06 0.204509734475D-05 0.000000000000D+00  7 -2 2 23 -13 13 23 21 2 0.12083269D+00 0.19475300D+00 0.88118448D+06 0.88118448D+06 0.88118448D+06 0.10515404D+01  1  2  3  1  7  1       -2 -.757662869988D-05 0.100000000000D+01
0.709223266328D-05 0.000000000000D+00 0.000000000000D+00 0.204509734475D-05 0.000000000000D+00  7 -2 2 23 -13 13 23 21 2 0.12083269D+00 0.19475300D+00 0.88118448D+06 0.88118448D+06 0.88118448D+06 0.10515404D+01  1  2 15  1  7  1       -2 0.850969107438D-05 0.100000000000D+01
0.340858265109D-03 0.000000000000D+00 0.000000000000D+00 0.204509734475D-05 0.000000000000D+00  7 -2 2 23 -13 13 23 21 2 0.12760945D+00 0.19475300D+00 0.93692221D+06 0.93692221D+06 0.93692221D+06 0.10497528D+01  1  2 12  1  7  1       -2 0.352158377936D-03 0.100000000000D+01
-.330010113099D-03 0.000000000000D+00 0.000000000000D+00 0.204509734475D-05 0.000000000000D+00  7 -2 2 23 -13 13 23 21 2 0.12083269D+00 0.19475300D+00 0.88118448D+06 0.88118448D+06 0.88118448D+06 0.10515404D+01  1  2  4  1  7  1       -2 -.395966157235D-03 0.100000000000D+01
-.151589266367D-02 0.000000000000D+00 -.228528121876D-03 0.204509734475D-05 0.000000000000D+00  7 -2 2 23 -13 13 23 21 2 0.12809972D+00 0.19475300D+00 0.88118448D+06 0.88118448D+06 0.88118448D+06 0.10515404D+01  1  2  5  1  7  1       -2 -.156094869459D-02 0.100000000000D+01
0.152702343651D-02 0.000000000000D+00 0.228138942404D-03 0.204509734475D-05 0.000000000000D+00  7 -2 2 23 -13 13 23 21 2 0.12083269D+00 0.19475300D+00 0.88118448D+06 0.88118448D+06 0.88118448D+06 0.10515404D+01  1  2  6  1  7  1       -2 0.183221537208D-02 0.100000000000D+01
0.439799429775D-05 0.000000000000D+00 0.000000000000D+00 0.204509734475D-05 0.000000000000D+00  7 21 2 23 -13 13 23 2 2 0.12760945D+00 0.19475300D+00 0.93692221D+06 0.93692221D+06 0.93692221D+06 0.10497528D+01  1  2 12  3  7  1       -2 0.385779349324D-04 0.100000000000D+01
-.149670842570D-04 0.000000000000D+00 -.229727701395D-05 0.204509734475D-05 0.000000000000D+00  7 21 2 23 -13 13 23 2 2 0.12809972D+00 0.19475300D+00 0.88118448D+06 0.88118448D+06 0.88118448D+06 0.10515404D+01  1  2  5  3  7  1       -2 -.130995783478D-03 0.100000000000D+01
  </mgrwgt>
  </event>
  <event>
  8     66 0.53686478E-06 0.68821424E+03 0.75467711E-02 0.88000896E-01
       -2 -1    0    0    0  501 0.00000000E+00 0.00000000E+00 0.29012368E+03 0.29012385E+03 0.32000000E+00 0.0000E+00 0.9000E+01
        2 -1    0    0  501    0 0.00000000E+00 0.00000000E+00 -.16549847E+04 0.16549847E+04 0.32000000E+00 0.0000E+00 0.9000E+01
       25  2    1    2    0    0 -.59651236E+03 0.27459637E+03 -.76106835E+03 0.10484734E+04 0.29806269E+03 0.0000E+00 0.0000E+00
       23  2    1    2    0    0 0.59651236E+03 -.27459637E+03 -.60379262E+03 0.89663509E+03 0.90326077E+02 0.0000E+00 0.0000E+00
       23  1    3    3    0    0 -.52918888E+03 0.27533848E+03 -.59543302E+03 0.84776641E+03 0.91188000E+02 0.0000E+00 0.9000E+01
      -11  1    4    4    0    0 0.31258384E+03 -.10968528E+03 -.34755213E+03 0.48013748E+03 0.51099893E-03 0.0000E+00 0.9000E+01
       11  1    4    4    0    0 0.28392851E+03 -.16491109E+03 -.25624049E+03 0.41649761E+03 0.51099893E-03 0.0000E+00 0.9000E+01
       23  1    3    3    0    0 -.67323478E+02 -.74210286E+00 -.16563533E+03 0.20070704E+03 0.91188000E+02 0.0000E+00 0.9000E+01
#aMCatNLO 1  0  0  1  2 0.43347788D+03 0.00000000D+00  -5  7  0 0.00000000D+00 0.00000000D+00 0.00000000D+00 0.00000000D+00 0.00000000D+00
  <mgrwgt>
 0.2045481551D-03    7    2    0
 0.692928881494239D+03 0.000000000000000D+00 0.000000000000000D+00 0.692928881494239D+03
 0.692928881494239D+03 0.000000000000000D+00 0.000000000000000D+00 -.692928881494239D+03
 0.603463356873274D+03 -.529188876639680D+03 0.275338475715483D+03 -.792701878537123D+00
 0.331606308130381D+03 0.312583841228136D+03 -.109685280893098D+03 -.149407145185957D+02
 0.332213320319612D+03 0.283928513891835D+03 -.164911091962653D+03 0.505432581522095D+02
 0.118574777665211D+03 -.673234784802918D+02 -.742102859732270D+00 -.348098417550767D+02
 0.000000000000000D+00 0.000000000000000D+00 -.000000000000000D+00 0.000000000000000D+00
 0.962090843542117D+03 0.000000000000000D+00 0.000000000000000D+00 0.962090843542117D+03
 0.925036994622483D+03 0.000000000000000D+00 0.000000000000000D+00 -.925036994622483D+03
 0.812937277679202D+03 -.740003474369112D+03 0.323953693669092D+03 -.792701878537123D+00
 0.244468309297193D+03 0.226841900867102D+03 -.899126315447508D+02 -.149407145185957D+02
 0.249956507264482D+03 0.197279373091971D+03 -.144929236290188D+03 0.505432581522095D+02
 0.144707055038834D+03 -.106509886829020D+03 0.829453788152011D+01 -.348098417550767D+02
 0.435058688884888D+03 0.422392087239059D+03 -.974063637156734D+02 0.370538489196337D+02
0.292142104522D-04 0.000000000000D+00 0.000000000000D+00 0.905789763025D-07 0.000000000000D+00  7 -2 2 23 -11 11 23 21 0 0.44634428D-01 0.25461304D+00 0.47363884D+06 0.47363884D+06 0.47363884D+06 0.10701768D+01  1  2  2  1  7  1       -2 0.181891241945D-03 0.100000000000D+01
-.162291971336D-05 0.000000000000D+00 -.112190260415D-06 0.905789763025D-07 0.000000000000D+00  7 -2 2 23 -11 11 23 21 2 0.44634428D-01 0.25461304D+00 0.47363884D+06 0.47363884D+06 0.47363884D+06 0.10701768D+01  1  2  3  1  7  1       -2 -.115724619454D-04 0.100000000000D+01
0.187428992512D-05 0.000000000000D+00 0.000000000000D+00 0.905789763025D-07 0.000000000000D+00  7 -2 2 23 -11 11 23 21 2 0.44634428D-01 0.25461304D+00 0.47363884D+06 0.47363884D+06 0.47363884D+06 0.10701768D+01  1  2 15  1  7  1       -2 0.133648933182D-04 0.100000000000D+01
-.850288002753D-05 0.000000000000D+00 0.000000000000D+00 0.905789763025D-07 0.000000000000D+00  7 -2 2 23 -11 11 23 21 2 0.44634428D-01 0.25461304D+00 0.47363884D+06 0.47363884D+06 0.47363884D+06 0.10701768D+01  1  2  4  1  7  1       -2 -.606310064107D-04 0.100000000000D+01
-.101036521612D-04 0.000000000000D+00 -.928420893524D-05 0.905789763025D-07 0.000000000000D+00  7 -2 2 23 -11 11 23 21 2 0.83718904D-01 0.25461304D+00 0.47363884D+06 0.47363884D+06 0.47363884D+06 0.10701768D+01  1  2  5  1  7  1       -2 -.192030724164D-04 0.100000000000D+01
0.145455486246D-04 0.000000000000D+00 0.770856333429D-05 0.905789763025D-07 0.000000000000D+00  7 -2 2 23 -11 11 23 21 2 0.44634428D-01 0.25461304D+00 0.47363884D+06 0.47363884D+06 0.47363884D+06 0.10701768D+01  1  2  6  1  7  1       -2 0.103719122115D-03 0.100000000000D+01
-.169530531266D-06 0.000000000000D+00 -.635599388572D-06 0.905789763025D-07 0.000000000000D+00  7 21 2 23 -11 11 23 2 2 0.83718904D-01 0.25461304D+00 0.47363884D+06 0.47363884D+06 0.47363884D+06 0.10701768D+01  1  2  5  3  7  1       -2 -.302056146918D-05 0.100000000000D+01
  </mgrwgt>
  </event>
  <event>
  8     66 0.53686478E-06 0.28831994E+03 0.75467711E-02 0.93261535E-01
       -2 -1    0    0    0  501 0.00000000E+00 0.00000000E+00 0.72200202E+02 0.72200911E+02 0.32000000E+00 0.0000E+00 0.9000E+01
        2 -1    0    0  501    0 0.00000000E+00 0.00000000E+00 -.14868826E+04 0.14868827E+04 0.32000000E+00 0.0000E+00 0.9000E+01
       25  2    1    2    0    0 -.23448507E+03 0.20197219E+02 -.64452158E+03 0.74868786E+03 0.29955679E+03 0.0000E+00 0.0000E+00
       23  2    1    2    0    0 0.23448507E+03 -.20197219E+02 -.77016087E+03 0.81039574E+03 0.90566578E+02 0.0000E+00 0.0000E+00
       23  1    3    3    0    0 -.13076046E+03 -.72282994E+02 -.16259914E+03 0.23890764E+03 0.91188000E+02 0.0000E+00 0.9000E+01
      -11  1    4    4    0    0 0.11946642E+03 -.82324249E+01 -.24558582E+03 0.27322591E+03 0.51099893E-03 0.0000E+00 0.9000E+01
       11  1    4    4    0    0 0.11501865E+03 -.11964794E+02 -.52457505E+03 0.53716983E+03 0.51099893E-03 0.0000E+00 0.9000E+01
       23  1    3    3    0    0 -.10372462E+03 0.92480213E+02 -.48192243E+03 0.50978022E+03 0.91188000E+02 0.0000E+00 0.9000E+01
#aMCatNLO 1  0  0  2  2 0.42429486D+03 0.00000000D+00  -5  7  0 0.00000000D+00 0.00000000D+00 0.00000000D+00 0.00000000D+00 0.00000000D+00
  <mgrwgt>
 0.2467787565D-03    5    2    0
 0.327648908884041D+03 0.000000000000000D+00 0.000000000000000D+00 0.327648908884041D+03
 0.327648908884041D+03 0.000000000000000D+00 0.000000000000000D+00 -.327648908884041D+03
 0.217383345396650D+03 -.130760458300421D+03 -.722829939513900D+02 0.128907481715866D+03
 0.119878430911248D+03 0.119466423072371D+03 -.823242490504742D+01 0.555329957942360D+01
 0.145560623388466D+03 0.115018651551356D+03 -.119647943872695D+02 -.884050257158322D+02
 0.172475418071717D+03 -.103724616323307D+03 0.924802132437069D+02 -.460557555794579D+02
 0.000000000000000D+00 0.000000000000000D+00 -.000000000000000D+00 -.000000000000000D+00
 0.454655731822189D+03 0.000000000000000D+00 0.000000000000000D+00 0.454655731822189D+03
 0.109003913912627D+04 0.000000000000000D+00 0.000000000000000D+00 -.109003913912627D+04
 0.281220946511609D+03 -.229778456974098D+03 0.368061310267865D+02 0.128907481715866D+03
 0.868775369743734D+02 0.784066839443331D+02 0.370035026364837D+02 0.555329957942360D+01
 0.117619286418467D+03 0.627536622941113D+02 0.456160699145490D+02 -.884050257158322D+02
 0.294949482051881D+03 -.196550688805246D+03 0.194747630863283D+03 -.460557555794579D+02
 0.764027618992127D+03 0.285168799540900D+03 -.314173334441102D+03 -.635383407304079D+03
0.281702256370D-05 0.000000000000D+00 0.000000000000D+00 0.354264297364D-06 0.000000000000D+00  7 -2 2 23 -11 11 23 21 0 0.11107781D-01 0.22875123D+00 0.83128388D+05 0.83128388D+05 0.83128388D+05 0.11283676D+01  1  2  2  2  7  2        2 0.244700719545D-03 0.100000000000D+01
-.153389900184D-06 0.000000000000D+00 -.108181083837D-07 0.354264297364D-06 0.000000000000D+00  7 -2 2 23 -11 11 23 21 2 0.11107781D-01 0.22875123D+00 0.83128388D+05 0.83128388D+05 0.83128388D+05 0.11283676D+01  1  2  3  2  7  2        2 -.169645727356D-04 0.100000000000D+01
0.173562432378D-06 0.000000000000D+00 0.000000000000D+00 0.354264297364D-06 0.000000000000D+00  7 -2 2 23 -11 11 23 21 2 0.11107781D-01 0.22875123D+00 0.83128388D+05 0.83128388D+05 0.83128388D+05 0.11283676D+01  1  2 15  2  7  2        2 0.191956087376D-04 0.100000000000D+01
-.659597275399D-06 0.000000000000D+00 -.809399470226D-06 0.354264297364D-06 0.000000000000D+00  7 -2 2 23 -11 11 23 21 2 0.11107781D-01 0.78427781D+00 0.83128388D+05 0.83128388D+05 0.83128388D+05 0.11283676D+01  1  2  5  2  7  2        2 -.152903715415D-06 0.100000000000D+01
-.666406502233D-07 0.000000000000D+00 -.116268466222D-06 0.354264297364D-06 0.000000000000D+00  7 -2 21 23 -11 11 23 -2 2 0.11107781D-01 0.78427781D+00 0.83128388D+05 0.83128388D+05 0.83128388D+05 0.11283676D+01  1  2  5  4  7  2        2 -.952926139929D-10 0.100000000000D+01
  </mgrwgt>
  </event>
  <event>
  9     66 -.53686478E-06 0.19050125E+03 0.75467711E-02 0.10586420E+00
       -2 -1    0    0    0  502 0.00000000E+00 0.00000000E+00 0.16285202E+03 0.16285233E+03 0.32000000E+00 0.0000E+00 0.9000E+01
        2 -1    0    0  501    0 0.00000000E+00 0.00000000E+00 -.48915015E+03 0.48915025E+03 0.32000000E+00 0.0000E+00 0.9000E+01
       25  2    1    2    0    0 0.19761990E+02 0.68495872E+02 -.41652336E+02 0.31122871E+03 0.30007695E+03 0.0000E+00 0.0000E+00
       23  2    1    2    0    0 0.39616198E+01 -.80859174E+02 -.28250394E+03 0.31392595E+03 0.11039530E+03 0.0000E+00 0.0000E+00
       23  1    3    3    0    0 0.98664488E+02 -.38051214E+02 0.15443416E+02 0.14048604E+03 0.91188000E+02 0.0000E+00 0.9000E+01
      -11  1    4    4    0    0 -.12198346E+02 -.27298381E+02 -.43656083E+01 0.30216879E+02 0.51099893E-03 0.0000E+00 0.9000E+01
       11  1    4    4    0    0 0.16159965E+02 -.53560793E+02 -.27813834E+03 0.28370907E+03 0.51099893E-03 0.0000E+00 0.9000E+01
       23  1    3    3    0    0 -.78902497E+02 0.10654709E+03 -.57095751E+02 0.17074268E+03 0.91188000E+02 0.0000E+00 0.9000E+01
       21  1    1    2  501  502 -.23723610E+02 0.12363302E+02 -.21418498E+01 0.26847922E+02 0.75000000E+00 0.0000E+00 0.9000E+01
#aMCatNLO 2  0  0  1  2 0.26751839D+02 0.00000000D+00  -5  7  0 0.00000000D+00 0.00000000D+00 0.00000000D+00 0.00000000D+00 0.00000000D+00
  <mgrwgt>
 -.1311117841D-04    2    2    0
 0.266938849356331D+03 0.000000000000000D+00 0.000000000000000D+00 0.266938849356331D+03
 0.266938849356331D+03 0.000000000000000D+00 0.000000000000000D+00 -.266938849356331D+03
 0.168616266769119D+03 0.910644050748411D+02 -.340905126868629D+02 0.103253596297015D+03
 0.326422575314454D+02 -.136490308764257D+02 -.265423711867876D+02 0.132183003698044D+02
 0.161378157282621D+03 0.895445333633161D+01 -.498057200288480D+02 -.153238760324501D+03
 0.171241017129476D+03 -.863698275347471D+02 0.110438603902498D+03 0.367668636576822D+02
 0.000000000000000D+00 -.000000000000000D+00 0.000000000000000D+00 0.000000000000000D+00
 0.289206863986289D+03 0.000000000000000D+00 0.000000000000000D+00 0.289206863986289D+03
 0.275431078867049D+03 0.000000000000000D+00 0.000000000000000D+00 -.275431078867049D+03
 0.173663849004402D+03 0.986644877189369D+02 -.380512131464526D+02 0.103253596297015D+03
 0.326913544365788D+02 -.121983452317976D+02 -.272983802420131D+02 0.132183003698044D+02
 0.163131912253391D+03 0.161599649441016D+02 -.535607940817130D+02 -.153238760324501D+03
 0.165060410802196D+03 -.789024973340663D+02 0.106547085935819D+03 0.367668636576822D+02
 0.300904163567695D+02 -.237236100971746D+02 0.123633015343593D+02 0.137757851192403D+02
-.289235308909D-05 0.000000000000D+00 0.000000000000D+00 0.323433924349D-08 0.000000000000D+00  7 -2 2 23 -11 11 23 21 2 0.25399497D-01 0.72932414D-01 0.42672259D+05 0.42672259D+05 0.42672259D+05 0.11533988D+01  1  2 13  1  7  1       -2 -.406123798245D-03 0.100000000000D+01
0.283026925204D-05 0.000000000000D+00 0.000000000000D+00 0.323433924349D-08 0.321569377534D-10  7 -2 2 23 -11 11 23 21 2 0.25053770D-01 0.75252641D-01 0.42672259D+05 0.42672259D+05 0.42672259D+05 0.11533988D+01  1  2  1  1  7  1       -2 0.393012619834D-03 0.100000000000D+01
  </mgrwgt>
  </event>
  <event>
  8     66 0.53686478E-06 0.20904990E+03 0.75467711E-02 0.96598333E-01
       -2 -1    0    0    0  501 0.00000000E+00 0.00000000E+00 0.15242460E+03 0.15242493E+03 0.32000000E+00 0.0000E+00 0.9000E+01
        2 -1    0    0  501    0 0.00000000E+00 0.00000000E+00 -.15943351E+04 0.15943351E+04 0.32000000E+00 0.0000E+00 0.9000E+01
       25  2    1    2    0    0 0.34067606E+03 -.11778651E+03 -.12362109E+04 0.13218118E+04 0.29838808E+03 0.0000E+00 0.0000E+00
       23  2    1    2    0    0 -.34067606E+03 0.11778651E+03 -.20569966E+03 0.42494823E+03 0.91295155E+02 0.0000E+00 0.0000E+00
       23  1    3    3    0    0 0.16767997E+03 -.17894569E+03 -.74366353E+03 0.78834563E+03 0.91188000E+02 0.0000E+00 0.9000E+01
      -11  1    4    4    0    0 -.27287972E+03 0.74338751E+02 -.11963242E+03 0.30708551E+03 0.51099893E-03 0.0000E+00 0.9000E+01
       11  1    4    4    0    0 -.67796336E+02 0.43447764E+02 -.86067232E+02 0.11786272E+03 0.51099893E-03 0.0000E+00 0.9000E+01
       23  1    3    3    0    0 0.17299609E+03 0.61159174E+02 -.49254732E+03 0.53346622E+03 0.91188000E+02 0.0000E+00 0.9000E+01
#aMCatNLO 1  0  0  1  2 0.13207285D+02 0.00000000D+00  -5  7  0 0.00000000D+00 0.00000000D+00 0.00000000D+00 0.00000000D+00 0.00000000D+00
  <mgrwgt>
 0.1758778625D-03    9    2    0
 0.492966743182097D+03 0.000000000000000D+00 0.000000000000000D+00 0.492966743182097D+03
 0.492966743182097D+03 0.000000000000000D+00 0.000000000000000D+00 -.492966743182097D+03
 0.309102401801781D+03 0.167679972687156D+03 -.178945688363675D+03 -.164593167632543D+03
 0.369097371892754D+03 -.272879723887005D+03 0.743387507392381D+02 0.237156649428220D+03
 0.829433639458473D+02 -.677963359832289D+02 0.434477639482668D+02 0.198884453338645D+02
 0.224790348723812D+03 0.172996087183078D+03 0.611591736761704D+02 -.924519271295406D+02
 0.000000000000000D+00 0.000000000000000D+00 0.000000000000000D+00 0.000000000000000D+00
 0.524366786268423D+03 0.000000000000000D+00 0.000000000000000D+00 0.524366786268423D+03
 0.494401721274695D+03 0.000000000000000D+00 0.000000000000000D+00 -.494401721274695D+03
 0.310704138564600D+03 0.166381203295151D+03 -.182888476225029D+03 -.164593167632543D+03
 0.369328318382164D+03 -.274427052968483D+03 0.696413884842238D+02 0.237156649428220D+03
 0.826821499196405D+02 -.681433948377812D+02 0.423941670223399D+02 0.198884453338645D+02
 0.223307336048227D+03 0.172057123942603D+03 0.583086808253274D+02 -.924519271295406D+02
 0.327465646284863D+02 0.413212056851056D+01 0.125442398931384D+02 0.299650649937276D+02
0.566891767927D-05 0.000000000000D+00 0.000000000000D+00 0.221102632037D-06 0.000000000000D+00  7 -2 2 23 -11 11 23 21 0 0.23449967D-01 0.24528235D+00 0.17217615D+06 0.17217615D+06 0.17217615D+06 0.11028572D+01  1  2  2  1  7  1       -2 0.126574272905D-03 0.100000000000D+01
-.303571319223D-06 0.000000000000D+00 -.217701365487D-07 0.221102632037D-06 0.000000000000D+00  7 -2 2 23 -11 11 23 21 2 0.23449967D-01 0.24528235D+00 0.17217615D+06 0.17217615D+06 0.17217615D+06 0.11028572D+01  1  2  3  1  7  1       -2 -.824412491799D-05 0.100000000000D+01
0.342770244175D-06 0.000000000000D+00 0.000000000000D+00 0.221102632037D-06 0.000000000000D+00  7 -2 2 23 -11 11 23 21 2 0.23449967D-01 0.24528235D+00 0.17217615D+06 0.17217615D+06 0.17217615D+06 0.11028572D+01  1  2 15  1  7  1       -2 0.930865510741D-05 0.100000000000D+01
0.970746601357D-04 0.000000000000D+00 0.000000000000D+00 0.221102632037D-06 0.000000000000D+00  7 -2 2 23 -11 11 23 21 2 0.24976535D-01 0.24528235D+00 0.17782419D+06 0.17782419D+06 0.17782419D+06 0.11017670D+01  1  2 12  1  7  1       -2 0.236003798647D-02 0.100000000000D+01
-.983008381333D-04 0.000000000000D+00 0.000000000000D+00 0.221102632037D-06 0.000000000000D+00  7 -2 2 23 -11 11 23 21 2 0.23449967D-01 0.24528235D+00 0.17217615D+06 0.17217615D+06 0.17217615D+06 0.11028572D+01  1  2  4  1  7  1       -2 -.266956836103D-02 0.100000000000D+01
-.180239316325D-03 0.000000000000D+00 -.115849273583D-04 0.221102632037D-06 0.000000000000D+00  7 -2 2 23 -11 11 23 21 2 0.24993061D-01 0.24528235D+00 0.17217615D+06 0.17217615D+06 0.17217615D+06 0.11028572D+01  1  2  5  1  7  1       -2 -.439000482907D-02 0.100000000000D+01
0.180634161337D-03 0.000000000000D+00 0.115614415518D-04 0.221102632037D-06 0.000000000000D+00  7 -2 2 23 -11 11 23 21 2 0.23449967D-01 0.24528235D+00 0.17217615D+06 0.17217615D+06 0.17217615D+06 0.11028572D+01  1  2  6  1  7  1       -2 0.490550488872D-02 0.100000000000D+01
0.142014613284D-05 0.000000000000D+00 0.000000000000D+00 0.221102632037D-06 0.000000000000D+00  7 21 2 23 -11 11 23 2 2 0.24976535D-01 0.24528235D+00 0.17782419D+06 0.17782419D+06 0.17782419D+06 0.11017670D+01  1  2 12  3  7  1       -2 0.418439154966D-03 0.100000000000D+01
-.195056457607D-05 0.000000000000D+00 -.126120491564D-06 0.221102632037D-06 0.000000000000D+00  7 21 2 23 -11 11 23 2 2 0.24993061D-01 0.24528235D+00 0.17217615D+06 0.17217615D+06 0.17217615D+06 0.11028572D+01  1  2  5  3  7  1       -2 -.576169780620D-03 0.100000000000D+01
  </mgrwgt>
  </event>
  <event>
  8     66 0.53686478E-06 0.13603481E+03 0.75467711E-02 0.95326991E-01
       -2 -1    0    0    0  501 0.00000000E+00 0.00000000E+00 0.12769581E+03 0.12769621E+03 0.32000000E+00 0.0000E+00 0.9000E+01
        2 -1    0    0  501    0 0.00000000E+00 0.00000000E+00 -.30186867E+03 0.30186884E+03 0.32000000E+00 0.0000E+00 0.9000E+01
       25  2    1    2    0    0 0.41461246E+01 -.77469006E+01 -.12872258E+03 0.32662519E+03 0.30006217E+03 0.0000E+00 0.0000E+00
       23  2    1    2    0    0 -.41461246E+01 0.77469006E+01 -.45450283E+02 0.10293986E+03 0.91943908E+02 0.0000E+00 0.0000E+00
       23  1    3    3    0    0 0.52132284E+01 0.26703646E+02 -.18928559E+03 0.21185974E+03 0.91188000E+02 0.0000E+00 0.9000E+01
      -13  1    4    4    0    0 -.39910564E+02 0.15474226E+02 0.21997560E+01 0.42862045E+02 0.10565837E+00 0.0000E+00 0.9000E+01
       13  1    4    4    0    0 0.35764440E+02 -.77273258E+01 -.47650039E+02 0.60077817E+02 0.10565837E+00 0.0000E+00 0.9000E+01
       23  1    3    3    0    0 -.10671039E+01 -.34450546E+02 0.60563012E+02 0.11476545E+03 0.91188000E+02 0.0000E+00 0.9000E+01
#aMCatNLO 1  0  0  2  2 0.43195019D+03 0.00000000D+00  -5  7  0 0.00000000D+00 0.00000000D+00 0.00000000D+00 0.00000000D+00 0.00000000D+00
  <mgrwgt>
 0.8510186085D-04    3    2    0
 0.196335139411256D+03 0.000000000000000D+00 0.000000000000000D+00 0.196335139411256D+03
 0.196335139411256D+03 0.000000000000000D+00 0.000000000000000D+00 -.196335139411256D+03
 0.147723364917123D+03 0.527276178276122D+01 0.265847675367999D+02 -.113014995981215D+03
 0.479285350178577D+02 -.399740049090771D+02 0.155926180084085D+02 0.213563495038584D+02
 0.445537986183877D+02 0.357055843912292D+02 -.761721133939461D+01 -.255368421309224D+02
 0.152464580269143D+03 -.100434126491333D+01 -.345601742058138D+02 0.117195488608279D+03
 0.000000000000000D+00 -.000000000000000D+00 0.000000000000000D+00 0.000000000000000D+00
 0.150980406988690D+04 0.000000000000000D+00 0.000000000000000D+00 0.150980406988690D+04
 0.330176841690246D+03 0.000000000000000D+00 0.000000000000000D+00 -.330176841690246D+03
 0.199417038373357D+03 0.958581250219950D+02 -.974204003288550D+02 -.113014995981215D+03
 0.314632432732475D+02 -.192569319134264D+02 -.127676382476265D+02 0.213563495038584D+02
 0.961698520513139D+02 0.724270460575600D+02 -.578863812733880D+02 -.255368421309224D+02
 0.256705733501420D+03 0.105767561827573D+03 -.180723608262505D+03 0.117195488608279D+03
 0.125622504437781D+04 -.254795800993701D+03 0.348798028112375D+03 0.117962722819665D+04
0.321759907493D-06 0.000000000000D+00 0.000000000000D+00 0.786931995083D-07 0.000000000000D+00  7 -2 2 23 -13 13 23 21 0 0.19645553D-01 0.46441378D-01 0.18505469D+05 0.18505469D+05 0.18505469D+05 0.11873190D+01  1  2  2  2  7  2        2 0.833805532907D-04 0.100000000000D+01
-.149496098903D-07 0.000000000000D+00 -.123564276610D-08 0.786931995083D-07 0.000000000000D+00  7 -2 2 23 -13 13 23 21 2 0.19645553D-01 0.46441378D-01 0.18505469D+05 0.18505469D+05 0.18505469D+05 0.11873190D+01  1  2  3  2  7  2        2 -.546131848079D-05 0.100000000000D+01
0.196614531187D-07 0.000000000000D+00 0.000000000000D+00 0.786931995083D-07 0.000000000000D+00  7 -2 2 23 -13 13 23 21 2 0.19645553D-01 0.46441378D-01 0.18505469D+05 0.18505469D+05 0.18505469D+05 0.11873190D+01  1  2 15  2  7  2        2 0.718262603935D-05 0.100000000000D+01
  </mgrwgt>
  </event>
  <event>
  8     66 0.53686478E-06 0.34757566E+03 0.75467711E-02 0.94846679E-01
       -2 -1    0    0    0  501 0.00000000E+00 0.00000000E+00 0.13439416E+03 0.13439454E+03 0.32000000E+00 0.0000E+00 0.9000E+01
        2 -1    0    0  501    0 0.00000000E+00 0.00000000E+00 -.12388454E+04 0.12388455E+04 0.32000000E+00 0.0000E+00 0.9000E+01
       25  2    1    2    0    0 0.24773503E+03 0.19793372E+03 -.36535999E+03 0.56383832E+03 0.28961237E+03 0.0000E+00 0.0000E+00
       23  2    1    2    0    0 -.24773503E+03 -.19793372E+03 -.73909129E+03 0.80940171E+03 0.91240241E+02 0.0000E+00 0.0000E+00
       23  1    3    3    0    0 0.13771356E+03 0.98406830E+02 -.33617154E+03 0.38726668E+03 0.91188000E+02 0.0000E+00 0.9000E+01
      -13  1    4    4    0    0 -.98658920E+02 -.27714277E+02 -.19925973E+03 0.22406721E+03 0.10565837E+00 0.0000E+00 0.9000E+01
       13  1    4    4    0    0 -.14907611E+03 -.17021945E+03 -.53983156E+03 0.58533449E+03 0.10565837E+00 0.0000E+00 0.9000E+01
       23  1    3    3    0    0 0.11002147E+03 0.99526893E+02 -.29188452E+02 0.17657164E+03 0.91188000E+02 0.0000E+00 0.9000E+01
#aMCatNLO 1  0  0  1  2 0.25979231D+03 0.00000000D+00  -5  7  0 0.00000000D+00 0.00000000D+00 0.00000000D+00 0.00000000D+00 0.00000000D+00
  <mgrwgt>
 0.5445353886D-03    3    2    0
 0.408036621439836D+03 0.000000000000000D+00 0.000000000000000D+00 0.408036621439836D+03
 0.408036621439836D+03 0.000000000000000D+00 0.000000000000000D+00 -.408036621439836D+03
 0.196704183178433D+03 0.137713555101567D+03 0.984068302992393D+02 -.415735111295509D+02
 0.107374231839882D+03 -.986588526632413D+02 -.277140864090128D+02 -.320559802360072D+02
 0.254373318551067D+03 -.149076176045301D+03 -.170219636446874D+03 -.116221143920920D+03
 0.257621509310291D+03 0.110021473606976D+03 0.995268925566472D+02 0.189850635286478D+03
 0.000000000000000D+00 0.000000000000000D+00 0.000000000000000D+00 -.000000000000000D+00
 0.473268873113689D+03 0.000000000000000D+00 0.000000000000000D+00 0.473268873113689D+03
 0.802709492765745D+03 0.000000000000000D+00 0.000000000000000D+00 -.802709492765745D+03
 0.152599588972830D+03 0.922310131161826D+02 0.688219921435028D+02 -.415735111295509D+02
 0.143822227597307D+03 -.131366926333812D+03 -.489895697854850D+02 -.320559802360072D+02
 0.336280785179093D+03 -.225984735910819D+03 -.220246024530971D+03 -.116221143920920D+03
 0.223724616965181D+03 0.473458109223315D+02 0.587585173540349D+02 0.189850635286478D+03
 0.419551147165023D+03 0.217774838206118D+03 0.141655084818919D+03 -.329440619652057D+03
0.123391487430D-04 0.000000000000D+00 0.000000000000D+00 0.135167617278D-08 0.000000000000D+00  7 -2 2 23 -13 13 23 21 0 0.20676057D-01 0.19059164D+00 0.12080884D+06 0.12080884D+06 0.12080884D+06 0.11150465D+01  1  2  2  1  7  1       -2 0.538626615383D-03 0.100000000000D+01
-.664071208800D-06 0.000000000000D+00 -.473855801455D-07 0.135167617278D-08 0.000000000000D+00  7 -2 2 23 -13 13 23 21 2 0.20676057D-01 0.19059164D+00 0.12080884D+06 0.12080884D+06 0.12080884D+06 0.11150465D+01  1  2  3  1  7  1       -2 -.360415310696D-04 0.100000000000D+01
0.772941339544D-06 0.000000000000D+00 0.000000000000D+00 0.135167617278D-08 0.000000000000D+00  7 -2 2 23 -13 13 23 21 2 0.20676057D-01 0.19059164D+00 0.12080884D+06 0.12080884D+06 0.12080884D+06 0.11150465D+01  1  2 15  1  7  1       -2 0.419503043273D-04 0.100000000000D+01
  </mgrwgt>
  </event>
  <event>
  8     66 0.53686478E-06 0.37849557E+03 0.75467711E-02 0.97439350E-01
       -2 -1    0    0    0  501 0.00000000E+00 0.00000000E+00 0.17238993E+03 0.17239022E+03 0.32000000E+00 0.0000E+00 0.9000E+01
        2 -1    0    0  501    0 0.00000000E+00 0.00000000E+00 -.93032325E+03 0.93032331E+03 0.32000000E+00 0.0000E+00 0.9000E+01
       25  2    1    2    0    0 0.86522897E+02 -.30233727E+03 -.59580433E+03 0.73729523E+03 0.29954536E+03 0.0000E+00 0.0000E+00
       23  2    1    2    0    0 -.86522897E+02 0.30233727E+03 -.16212899E+03 0.36541830E+03 0.91382108E+02 0.0000E+00 0.0000E+00
       23  1    3    3    0    0 0.16913857E+02 -.30260480E+03 -.47417867E+03 0.57010210E+03 0.91188000E+02 0.0000E+00 0.9000E+01
      -13  1    4    4    0    0 0.51885474E+01 -.36451435E+01 -.94339537E+01 0.11367442E+02 0.10565837E+00 0.0000E+00 0.9000E+01
       13  1    4    4    0    0 -.91711444E+02 0.30598241E+03 -.15269504E+03 0.35405086E+03 0.10565837E+00 0.0000E+00 0.9000E+01
       23  1    3    3    0    0 0.69609039E+02 0.26753010E+00 -.12162566E+03 0.16719313E+03 0.91188000E+02 0.0000E+00 0.9000E+01
#aMCatNLO 1  0  0  2  2 0.28352054D+02 0.00000000D+00  -5  7  0 0.00000000D+00 0.00000000D+00 0.00000000D+00 0.00000000D+00 0.00000000D+00
  <mgrwgt>
 0.3082494363D-03    4    2    0
 0.400472908925406D+03 0.000000000000000D+00 0.000000000000000D+00 0.400472908925406D+03
 0.400472908925406D+03 0.000000000000000D+00 0.000000000000000D+00 -.400472908925406D+03
 0.336181894541039D+03 0.169138572788003D+02 -.302604795692857D+03 -.113345815665330D+03
 0.672250749824479D+01 0.518867686492565D+01 -.364555733806577D+01 -.223151319741061D+01
 0.342950004456831D+03 -.917115734547371D+02 0.305982822949999D+03 0.124812679287588D+03
 0.115091411354696D+03 0.696090393110111D+02 0.267530080923763D+00 -.923535042484725D+01
 0.000000000000000D+00 0.000000000000000D+00 0.000000000000000D+00 0.000000000000000D+00
 0.459738686787192D+03 0.000000000000000D+00 0.000000000000000D+00 0.459738686787192D+03
 0.404128967676317D+03 0.000000000000000D+00 0.000000000000000D+00 -.404128967676317D+03
 0.340237909982020D+03 0.599764377930157D+01 -.307511525613579D+03 -.113345815665330D+03
 0.661209955247620D+01 0.497348000563170D+01 -.374228619632707D+01 -.223151319741061D+01
 0.341685280289331D+03 -.102760370204337D+03 0.301016498170649D+03 0.124812679287588D+03
 0.112912177011435D+03 0.659294666068804D+02 -.138640142963707D+01 -.923535042484725D+01
 0.624201876282460D+02 0.258597798125231D+02 0.116237150688944D+02 0.556097191108750D+02
0.853067553386D-05 0.000000000000D+00 0.000000000000D+00 0.629686912901D-06 0.000000000000D+00  7 -2 2 23 -13 13 23 21 0 0.26521554D-01 0.14312668D+00 0.14325890D+06 0.14325890D+06 0.14325890D+06 0.11091312D+01  1  2  2  2  7  2        2 0.371354946643D-03 0.100000000000D+01
-.472090753986D-06 0.000000000000D+00 -.327600402285D-07 0.629686912901D-06 0.000000000000D+00  7 -2 2 23 -13 13 23 21 2 0.26521554D-01 0.14312668D+00 0.14325890D+06 0.14325890D+06 0.14325890D+06 0.11091312D+01  1  2  3  2  7  2        2 -.252811695371D-04 0.100000000000D+01
0.547524600694D-06 0.000000000000D+00 0.000000000000D+00 0.629686912901D-06 0.000000000000D+00  7 -2 2 23 -13 13 23 21 2 0.26521554D-01 0.14312668D+00 0.14325890D+06 0.14325890D+06 0.14325890D+06 0.11091312D+01  1  2 15  2  7  2        2 0.293207654227D-04 0.100000000000D+01
-.125384166957D-05 0.000000000000D+00 0.000000000000D+00 0.629686912901D-06 0.000000000000D+00  7 -2 2 23 -13 13 23 21 2 0.26521554D-01 0.14312668D+00 0.14325890D+06 0.14325890D+06 0.14325890D+06 0.11091312D+01  1  2  4  2  7  2        2 -.671451062182D-04 0.100000000000D+01
  </mgrwgt>
  </event>
  <event>
  7     66 0.53686478E-06 0.90991412E+02 0.75467711E-02 0.96595363E-01
       -2 -1    0    0    0  501 0.00000000E+00 0.00000000E+00 0.37474238E+02 0.37475605E+02 0.32000000E+00 0.0000E+00 0.9000E+01
        2 -1    0    0  501    0 0.00000000E+00 0.00000000E+00 -.33423838E+04 0.33423838E+04 0.32000000E+00 0.0000E+00 0.9000E+01
       25  2    1    2    0    0 0.22853314E+03 -.38807370E+02 -.24235008E+04 0.24529424E+04 0.29972814E+03 0.0000E+00 0.0000E+00
       23  1    3    3    0    0 0.24682686E+03 -.35004789E+02 -.13800230E+04 0.14053212E+04 0.91188000E+02 0.0000E+00 0.9000E+01
      -13  1    1    2    0    0 -.25439215E+03 0.45043051E+02 -.82589253E+03 0.86535700E+03 0.10565837E+00 0.0000E+00 0.9000E+01
       13  1    1    2    0    0 0.25859012E+02 -.62356809E+01 -.55516239E+02 0.61560021E+02 0.10565837E+00 0.0000E+00 0.9000E+01
       23  1    3    3    0    0 -.18293724E+02 -.38025813E+01 -.10434778E+04 0.10476213E+04 0.91188000E+02 0.0000E+00 0.9000E+01
#aMCatNLO 1  0  0  1  2 0.17456812D+03 0.00000000D+00  -5  7  0 0.00000000D+00 0.00000000D+00 0.00000000D+00 0.00000000D+00 0.00000000D+00
  <mgrwgt>
 0.6289228057D-03    9    2    0
 0.353914710757833D+03 0.000000000000000D+00 0.000000000000000D+00 0.353914710757833D+03
 0.353914710757833D+03 0.000000000000000D+00 0.000000000000000D+00 -.353914710757833D+03
 0.266925922396809D+03 0.246828643342896D+03 -.350050915548991D+02 -.280082326133878D+02
 0.275893048648162D+03 -.254392083797590D+03 0.450429506128411D+02 0.968130910238186D+02
 0.347347907529964D+02 0.258562935822626D+02 -.623512986130146D+01 0.223401192130883D+02
 0.130275659717699D+03 -.182928531275687D+02 -.380272919664056D+01 -.911449776235192D+02
 0.000000000000000D+00 0.000000000000000D+00 0.000000000000000D+00 0.000000000000000D+00
 0.473442015542379D+03 0.000000000000000D+00 0.000000000000000D+00 0.473442015542379D+03
 0.434463023892504D+03 0.000000000000000D+00 0.000000000000000D+00 -.434463023892504D+03
 0.214898657383068D+03 0.188465678685814D+03 -.395273128914036D+02 -.280082326133878D+02
 0.345853279873276D+03 -.329703640160582D+03 0.392074772253739D+02 0.968130910238186D+02
 0.295366018465714D+02 0.180711593816295D+02 -.683835658558650D+01 0.223401192130883D+02
 0.138749538286985D+03 -.508796259530333D+02 -.632769687477343D+01 -.911449776235192D+02
 0.178866962044983D+03 0.174046428046171D+03 0.134858891263896D+02 0.389789916498746D+02
0.252544314613D-04 0.000000000000D+00 0.000000000000D+00 0.325261619901D-09 0.000000000000D+00  7 -2 2 23 -13 13 23 21 0 0.57653737D-02 0.51421300D+00 0.10351705D+06 0.10351705D+06 0.10351705D+06 0.11204922D+01  1  2  2  1  7  1       -2 0.505970070924D-03 0.100000000000D+01
-.138752777807D-05 0.000000000000D+00 -.969836664560D-07 0.325261619901D-09 0.000000000000D+00  7 -2 2 23 -13 13 23 21 2 0.57653737D-02 0.51421300D+00 0.10351705D+06 0.10351705D+06 0.10351705D+06 0.11204922D+01  1  2  3  1  7  1       -2 -.349017025527D-04 0.100000000000D+01
0.164132556213D-05 0.000000000000D+00 0.000000000000D+00 0.325261619901D-09 0.000000000000D+00  7 -2 2 23 -13 13 23 21 2 0.57653737D-02 0.51421300D+00 0.10351705D+06 0.10351705D+06 0.10351705D+06 0.11204922D+01  1  2 15  1  7  1       -2 0.412857007025D-04 0.100000000000D+01
0.488885502582D-05 0.000000000000D+00 0.000000000000D+00 0.325261619901D-09 0.000000000000D+00  7 -2 2 23 -13 13 23 21 2 0.81853375D-02 0.51421300D+00 0.17791351D+06 0.17791351D+06 0.17791351D+06 0.11017500D+01  1  2 12  1  7  1       -2 0.682738134029D-04 0.100000000000D+01
-.856942113237D-05 0.000000000000D+00 0.000000000000D+00 0.325261619901D-09 0.000000000000D+00  7 -2 2 23 -13 13 23 21 2 0.57653737D-02 0.51421300D+00 0.10351705D+06 0.10351705D+06 0.10351705D+06 0.11204922D+01  1  2  4  1  7  1       -2 -.215554161970D-03 0.100000000000D+01
-.716950530476D-05 0.000000000000D+00 -.814841460384D-05 0.325261619901D-09 0.000000000000D+00  7 -2 2 23 -13 13 23 21 2 0.11348438D-01 0.51421300D+00 0.10351705D+06 0.10351705D+06 0.10351705D+06 0.11204922D+01  1  2  5  1  7  1       -2 -.642698566049D-04 0.100000000000D+01
0.115128575275D-04 0.000000000000D+00 0.658082584378D-05 0.325261619901D-09 0.000000000000D+00  7 -2 2 23 -13 13 23 21 2 0.57653737D-02 0.51421300D+00 0.10351705D+06 0.10351705D+06 0.10351705D+06 0.11204922D+01  1  2  6  1  7  1       -2 0.289592997925D-03 0.100000000000D+01
0.211398738664D-06 0.000000000000D+00 0.000000000000D+00 0.325261619901D-09 0.000000000000D+00  7 21 2 23 -13 13 23 2 2 0.81853375D-02 0.51421300D+00 0.17791351D+06 0.17791351D+06 0.17791351D+06 0.11017500D+01  1  2 12  3  7  1       -2 0.440789502097D-04 0.100000000000D+01
-.434816145970D-07 0.000000000000D+00 -.597597714311D-06 0.325261619901D-09 0.000000000000D+00  7 21 2 23 -13 13 23 2 2 0.11348438D-01 0.51421300D+00 0.10351705D+06 0.10351705D+06 0.10351705D+06 0.11204922D+01  1  2  5  3  7  1       -2 -.555300632575D-05 0.100000000000D+01
  </mgrwgt>
  </event>
  <event>
  8     66 0.53686478E-06 0.34662516E+03 0.75467711E-02 0.94010063E-01
       -2 -1    0    0    0  501 0.00000000E+00 0.00000000E+00 0.19166373E+03 0.19166399E+03 0.32000000E+00 0.0000E+00 0.9000E+01
        2 -1    0    0  501    0 0.00000000E+00 0.00000000E+00 -.72928253E+03 0.72928260E+03 0.32000000E+00 0.0000E+00 0.9000E+01
       25  2    1    2    0    0 -.18873792E+03 0.22305182E+03 -.19897726E+03 0.46457086E+03 0.30142995E+03 0.0000E+00 0.0000E+00
       23  2    1    2    0    0 0.18873792E+03 -.22305182E+03 -.33864155E+03 0.45637574E+03 0.90700605E+02 0.0000E+00 0.0000E+00
       23  1    3    3    0    0 0.23391435E+02 0.71143967E+02 0.94880449E+01 0.11838031E+03 0.91188000E+02 0.0000E+00 0.9000E+01
      -13  1    4    4    0    0 -.22740497E+01 0.24446222E+01 -.25826311E+02 0.26041448E+02 0.10565837E+00 0.0000E+00 0.9000E+01
       13  1    4    4    0    0 0.19101197E+03 -.22549645E+03 -.31281523E+03 0.43033429E+03 0.10565837E+00 0.0000E+00 0.9000E+01
       23  1    3    3    0    0 -.21212936E+03 0.15190786E+03 -.20846531E+03 0.34619055E+03 0.91188000E+02 0.0000E+00 0.9000E+01
#aMCatNLO 1  0  0  1  2 0.30365430D+03 0.00000000D+00  -5  7  0 0.00000000D+00 0.00000000D+00 0.00000000D+00 0.00000000D+00 0.00000000D+00
  <mgrwgt>
 0.3174556018D-03    5    2    0
 0.373867843074106D+03 0.000000000000000D+00 0.000000000000000D+00 0.373867843074106D+03
 0.373867843074106D+03 0.000000000000000D+00 0.000000000000000D+00 -.373867843074106D+03
 0.152624645650490D+03 0.233914329625044D+02 0.711439678215016D+02 0.968008668479338D+02
 0.135044726438327D+02 -.227431191163388D+01 0.244493148296834D+01 -.130851288400312D+02
 0.305107607708635D+03 0.191012236586813D+03 -.225496755652376D+03 -.758695653476561D+02
 0.276498960145254D+03 -.212129357637684D+03 0.151907856347906D+03 -.784617266024647D+01
 0.000000000000000D+00 0.000000000000000D+00 0.000000000000000D+00 0.000000000000000D+00
 0.593459344783425D+03 0.000000000000000D+00 0.000000000000000D+00 0.593459344783425D+03
 0.524882867277213D+03 0.000000000000000D+00 0.000000000000000D+00 -.524882867277213D+03
 0.146058844763303D+03 -.315378783681351D+02 0.515062054039688D+02 0.968008668479338D+02
 0.151109888948873D+02 -.753683108720901D+01 0.563529754379594D+00 -.130851288400312D+02
 0.287091990763033D+03 0.821039200633102D+02 -.264432536811333D+03 -.758695653476561D+02
 0.358778814339528D+03 -.328959955163401D+03 0.110139782768788D+03 -.784617266024647D+01
 0.311301573299886D+03 0.285930744555435D+03 0.102223018884197D+03 0.685764775062121D+02
0.654803849856D-05 0.000000000000D+00 0.000000000000D+00 0.108696654466D-06 0.000000000000D+00  7 -2 2 23 -13 13 23 21 0 0.29486753D-01 0.11219734D+00 0.12014900D+06 0.12014900D+06 0.12014900D+06 0.11152382D+01  1  2  2  1  7  1       -2 0.324778910922D-03 0.100000000000D+01
-.361248085730D-06 0.000000000000D+00 -.251461919726D-07 0.108696654466D-06 0.000000000000D+00  7 -2 2 23 -13 13 23 21 2 0.29486753D-01 0.11219734D+00 0.12014900D+06 0.12014900D+06 0.12014900D+06 0.11152382D+01  1  2  3  1  7  1       -2 -.222852457289D-04 0.100000000000D+01
0.426590907111D-06 0.000000000000D+00 0.000000000000D+00 0.108696654466D-06 0.000000000000D+00  7 -2 2 23 -13 13 23 21 2 0.29486753D-01 0.11219734D+00 0.12014900D+06 0.12014900D+06 0.12014900D+06 0.11152382D+01  1  2 15  1  7  1       -2 0.263162174866D-04 0.100000000000D+01
-.112533112559D-05 0.000000000000D+00 -.199843021541D-05 0.108696654466D-06 0.000000000000D+00  7 -2 2 23 -13 13 23 21 2 0.64095660D-01 0.11219734D+00 0.12014900D+06 0.12014900D+06 0.12014900D+06 0.11152382D+01  1  2  5  1  7  1       -2 -.157892217680D-04 0.100000000000D+01
0.308496955305D-07 0.000000000000D+00 -.168050889258D-06 0.108696654466D-06 0.000000000000D+00  7 21 2 23 -13 13 23 2 2 0.64095660D-01 0.11219734D+00 0.12014900D+06 0.12014900D+06 0.12014900D+06 0.11152382D+01  1  2  5  3  7  1       -2 0.443494092863D-05 0.100000000000D+01
  </mgrwgt>
  </event>
  <event>
  9     66 0.53686478E-06 0.26556072E+03 0.75467711E-02 0.10196404E+00
       -2 -1    0    0    0  502 0.00000000E+00 0.00000000E+00 0.11674619E+03 0.11674663E+03 0.32000000E+00 0.0000E+00 0.9000E+01
        2 -1    0    0  501    0 0.00000000E+00 0.00000000E+00 -.22910005E+04 0.22910005E+04 0.32000000E+00 0.0000E+00 0.9000E+01
       25  2    1    2    0    0 -.16245156E+03 -.11625384E+03 -.20775772E+04 0.21090495E+04 0.30307965E+03 0.0000E+00 0.0000E+00
       23  2    1    2    0    0 0.15104566E+03 0.98156698E+02 -.25191792E+01 0.20213742E+03 0.91671483E+02 0.0000E+00 0.0000E+00
       23  1    3    3    0    0 -.20447135E+03 -.58985964E+02 -.10637153E+04 0.10886199E+04 0.91188000E+02 0.0000E+00 0.9000E+01
      -13  1    4    4    0    0 0.35066975E+01 0.49073624E+00 -.23677200E+02 0.23940733E+02 0.10565837E+00 0.0000E+00 0.9000E+01
       13  1    4    4    0    0 0.14753896E+03 0.97665961E+02 0.21158020E+02 0.17819669E+03 0.10565837E+00 0.0000E+00 0.9000E+01
       23  1    3    3    0    0 0.42019789E+02 -.57267876E+02 -.10138619E+04 0.10204296E+04 0.91188000E+02 0.0000E+00 0.9000E+01
       21  1    1    2  501  502 0.11405897E+02 0.18097142E+02 -.94157866E+02 0.96560174E+02 0.75000000E+00 0.0000E+00 0.9000E+01
#aMCatNLO 2  0  0  1  1 0.21391611D+02 0.00000000D+00  -5  7  0 0.00000000D+00 0.00000000D+00 0.00000000D+00 0.00000000D+00 0.00000000D+00
  <mgrwgt>
 0.9233234027D-04    2    2    0
 0.503568861745827D+03 0.000000000000000D+00 0.000000000000000D+00 0.503568861745827D+03
 0.503568861745827D+03 0.000000000000000D+00 0.000000000000000D+00 -.503568861745827D+03
 0.297848186627740D+03 -.201079848535860D+03 -.536048539214482D+02 -.192592069105374D+03
 0.608549080449219D+01 0.357513448871546D+01 0.599496137301903D+00 -.488796645861205D+01
 0.456052289953023D+03 0.152683418471697D+03 0.105828225314755D+03 0.416499521754734D+03
 0.247151756106399D+03 0.448212955754474D+02 -.528228675306091D+02 -.219019486190748D+03
 0.000000000000000D+00 0.000000000000000D+00 0.000000000000000D+00 -.000000000000000D+00
 0.508913328464357D+03 0.000000000000000D+00 0.000000000000000D+00 0.508913328464357D+03
 0.525552571043108D+03 0.000000000000000D+00 0.000000000000000D+00 -.525552571043108D+03
 0.301155825516399D+03 -.204471344791046D+03 -.589859642246855D+02 -.192592069105374D+03
 0.603560245119159D+01 0.350650616310833D+01 0.490607150780450D+00 -.488796645861205D+01
 0.452524385210463D+03 0.147539155113032D+03 0.976660908233643D+02 0.416499521754734D+03
 0.247649063674085D+03 0.420197865816403D+02 -.572678758033255D+02 -.219019486190748D+03
 0.271010226553279D+02 0.114058969332645D+02 0.180971420538662D+02 -.166392425787513D+02
-.474609538235D-05 0.000000000000D+00 0.000000000000D+00 0.789153211995D-07 0.000000000000D+00  7 -2 2 23 -13 13 23 21 2 0.17772186D-01 0.33771486D+00 0.70522494D+05 0.70522494D+05 0.70522494D+05 0.11343852D+01  1  2  8  1  7  1       -2 -.105751420506D-03 0.100000000000D+01
0.102739612266D-04 0.000000000000D+00 0.000000000000D+00 0.789153211995D-07 0.117915770192D-08  7 -2 2 23 -13 13 23 21 2 0.17960806D-01 0.35245807D+00 0.75344713D+05 0.75344713D+05 0.75344713D+05 0.11319531D+01  1  2  1  1  7  1       -2 0.198083760779D-03 0.100000000000D+01
  </mgrwgt>
  </event>
  <event>
  7     66 0.53686478E-06 0.21180042E+03 0.75467711E-02 0.95919629E-01
       -2 -1    0    0    0  501 0.00000000E+00 0.00000000E+00 0.19253094E+03 0.19253120E+03 0.32000000E+00 0.0000E+00 0.9000E+01
        2 -1    0    0  501    0 0.00000000E+00 0.00000000E+00 -.49279077E+03 0.49279088E+03 0.32000000E+00 0.0000E+00 0.9000E+01
       25  2    1    2    0    0 0.45555067E+02 -.12389983E+03 0.53936281E+01 0.32544956E+03 0.29742544E+03 0.0000E+00 0.0000E+00
       23  1    3    3    0    0 -.42992750E+02 0.15195616E+01 -.78860903E+02 0.12800382E+03 0.91188000E+02 0.0000E+00 0.9000E+01
      -13  1    1    2    0    0 -.42567550E+01 -.63073376E+01 -.16002187E+03 0.16020273E+03 0.10565837E+00 0.0000E+00 0.9000E+01
       13  1    1    2    0    0 -.41298312E+02 0.13020717E+03 -.14563159E+03 0.19966980E+03 0.10565837E+00 0.0000E+00 0.9000E+01
       23  1    3    3    0    0 0.88547816E+02 -.12541939E+03 0.84254531E+02 0.19744573E+03 0.91188000E+02 0.0000E+00 0.9000E+01
#aMCatNLO 1  0  0  2  1 0.36203810D+03 0.00000000D+00  -5  7  0 0.00000000D+00 0.00000000D+00 0.00000000D+00 0.00000000D+00 0.00000000D+00
  <mgrwgt>
 0.2907146199D-03    5    2    0
 0.308022071824882D+03 0.000000000000000D+00 0.000000000000000D+00 0.308022071824882D+03
 0.308022071824882D+03 0.000000000000000D+00 0.000000000000000D+00 -.308022071824882D+03
 0.103961774047264D+03 -.429926965687870D+02 0.151941922975336D+01 -.253400577347973D+02
 0.100223487206006D+03 -.425703028953982D+01 -.630632145760485D+01 -.999342553407980D+02
 0.151142962367835D+03 -.412982191001861D+02 0.130206650474689D+03 -.646906511378563D+02
 0.260715920028658D+03 0.885479459585128D+02 -.125419748246838D+03 0.189964964213452D+03
 0.000000000000000D+00 0.000000000000000D+00 -.000000000000000D+00 -.000000000000000D+00
 0.387326406183830D+03 0.000000000000000D+00 0.000000000000000D+00 0.387326406183830D+03
 0.144767333096765D+04 0.000000000000000D+00 0.000000000000000D+00 -.144767333096765D+04
 0.128821823300672D+03 -.614993114186602D+02 0.620928899596184D+02 -.253400577347973D+02
 0.113435936804353D+03 -.212432471632974D+02 0.492907782259572D+02 -.999342553407980D+02
 0.255583182233577D+03 -.736335047185348D+02 0.236042347215213D+03 -.646906511378563D+02
 0.216709247582266D+03 0.505919911692871D+02 -.118720031195762D+01 0.189964964213452D+03
 0.112044954723061D+04 0.105784072131205D+03 -.346238815088831D+03 -.106034692478382D+04
0.401255339587D-05 0.000000000000D+00 0.000000000000D+00 0.235022836367D-10 0.000000000000D+00  7 -2 2 23 -13 13 23 21 0 0.29620173D-01 0.75813994D-01 0.44859416D+05 0.44859416D+05 0.44859416D+05 0.11514629D+01  1  2  2  2  7  2        2 0.311965686573D-03 0.100000000000D+01
-.184901026747D-06 0.000000000000D+00 -.154092615697D-07 0.235022836367D-10 0.000000000000D+00  7 -2 2 23 -13 13 23 21 2 0.29620173D-01 0.75813994D-01 0.44859416D+05 0.44859416D+05 0.44859416D+05 0.11514629D+01  1  2  3  2  7  2        2 -.190601030807D-04 0.100000000000D+01
0.236605984980D-06 0.000000000000D+00 0.000000000000D+00 0.235022836367D-10 0.000000000000D+00  7 -2 2 23 -13 13 23 21 2 0.29620173D-01 0.75813994D-01 0.44859416D+05 0.44859416D+05 0.44859416D+05 0.11514629D+01  1  2 15  2  7  2        2 0.243899914597D-04 0.100000000000D+01
-.364727341103D-05 0.000000000000D+00 -.170997658637D-05 0.235022836367D-10 0.000000000000D+00  7 -2 2 23 -13 13 23 21 2 0.29620173D-01 0.37913305D+00 0.44859416D+05 0.44859416D+05 0.44859416D+05 0.11514629D+01  1  2  5  2  7  2        2 -.258439630860D-04 0.100000000000D+01
-.764129303993D-06 0.000000000000D+00 -.335456428881D-06 0.235022836367D-10 0.000000000000D+00  7 -2 21 23 -13 13 23 -2 2 0.29620173D-01 0.37913305D+00 0.44859416D+05 0.44859416D+05 0.44859416D+05 0.11514629D+01  1  2  5  4  7  2        2 -.736992014387D-06 0.100000000000D+01
  </mgrwgt>
  </event>
  <event>
  8     66 0.53686478E-06 0.31292979E+03 0.75467711E-02 0.86336909E-01
       -4 -1    0    0    0  501 0.00000000E+00 0.00000000E+00 0.12357141E+04 0.12357151E+04 0.15500000E+01 0.0000E+00 0.9000E+01
        4 -1    0    0  501    0 0.00000000E+00 0.00000000E+00 -.10960139E+03 0.10961235E+03 0.15500000E+01 0.0000E+00 0.9000E+01
       25  2    1    2    0    0 0.13619083E+03 -.24255957E+03 0.43865315E+03 0.59813498E+03 0.29659026E+03 0.0000E+00 0.0000E+00
       23  2    1    2    0    0 -.13619083E+03 0.24255957E+03 0.68745960E+03 0.74719248E+03 0.91174591E+02 0.0000E+00 0.0000E+00
       23  1    3    3    0    0 0.59517186E+02 -.17142775E+03 0.40841156E+03 0.45611953E+03 0.91188000E+02 0.0000E+00 0.9000E+01
      -13  1    4    4    0    0 -.41035318E+02 0.29105294E+02 0.20537670E+03 0.21144885E+03 0.10565837E+00 0.0000E+00 0.9000E+01
       13  1    4    4    0    0 -.95155508E+02 0.21345428E+03 0.48208290E+03 0.53574363E+03 0.10565837E+00 0.0000E+00 0.9000E+01
       23  1    3    3    0    0 0.76673640E+02 -.71131820E+02 0.30241584E+02 0.14201545E+03 0.91188000E+02 0.0000E+00 0.9000E+01
#aMCatNLO 1  0  0  2  1 0.10434397D+04 0.00000000D+00  -5  7  0 0.00000000D+00 0.00000000D+00 0.00000000D+00 0.00000000D+00 0.00000000D+00
  <mgrwgt>
 0.4244041849D-04    3    2    0
 0.368027187770028D+03 0.000000000000000D+00 0.000000000000000D+00 0.368027187770028D+03
 0.368027187770028D+03 0.000000000000000D+00 0.000000000000000D+00 -.368027187770028D+03
 0.208833294709187D+03 0.595171860161545D+02 -.171427753490403D+03 0.486448716417900D+02
 0.722642998820106D+02 -.410352455544664D+02 0.291050463019337D+02 0.518761403680353D+02
 0.241654809175173D+03 -.951555809325975D+02 0.213454527765728D+03 0.614786693998753D+02
 0.213301971773685D+03 0.766736404709095D+02 -.711318205772585D+02 -.161999681409701D+03
 0.000000000000000D+00 0.000000000000000D+00 -.000000000000000D+00 0.000000000000000D+00
 0.128843218486560D+04 0.000000000000000D+00 0.000000000000000D+00 0.128843218486560D+04
 0.105723992450810D+04 0.000000000000000D+00 0.000000000000000D+00 -.105723992450810D+04
 0.124522756988528D+03 -.551790087669856D+02 -.421855320989402D+02 0.486448716417900D+02
 0.194838397689381D+03 -.132935971135206D+03 0.132660826369434D+03 0.518761403680353D+02
 0.735091081425712D+03 -.431219787211288D+03 0.592139144389134D+03 0.614786693998753D+02
 0.222474705913778D+03 -.732619207749208D+02 0.978189021352565D+02 -.161999681409701D+03
 0.106874516735630D+04 0.692596687888400D+03 -.780433340794884D+03 0.231192260357494D+03
0.573294499115D-04 0.000000000000D+00 0.000000000000D+00 0.156327726905D-07 0.000000000000D+00  7 -4 4 23 -13 13 23 21 0 0.19011078D+00 0.16862670D-01 0.97925056D+05 0.97925056D+05 0.97925056D+05 0.11224701D+01  1  2  2  2  7  2        4 0.420438398041D-04 0.100000000000D+01
-.308311724582D-05 0.000000000000D+00 -.220160182851D-06 0.156327726905D-07 0.000000000000D+00  7 -4 4 23 -13 13 23 21 2 0.19011078D+00 0.16862670D-01 0.97925056D+05 0.97925056D+05 0.97925056D+05 0.11224701D+01  1  2  3  2  7  2        4 -.284881458073D-05 0.100000000000D+01
0.351231281479D-05 0.000000000000D+00 0.000000000000D+00 0.156327726905D-07 0.000000000000D+00  7 -4 4 23 -13 13 23 21 2 0.19011078D+00 0.16862670D-01 0.97925056D+05 0.97925056D+05 0.97925056D+05 0.11224701D+01  1  2 15  2  7  2        4 0.324539326957D-05 0.100000000000D+01
  </mgrwgt>
  </event>
  <event>
  8     66 0.53686478E-06 0.97395557E+02 0.75467711E-02 0.10385511E+00
       -2 -1    0    0    0  501 0.00000000E+00 0.00000000E+00 0.70506829E+02 0.70507555E+02 0.32000000E+00 0.0000E+00 0.9000E+01
        2 -1    0    0  501    0 0.00000000E+00 0.00000000E+00 -.86040604E+03 0.86040610E+03 0.32000000E+00 0.0000E+00 0.9000E+01
       25  2    1    2    0    0 -.11928705E+02 -.97891405E+02 -.71122409E+03 0.77510238E+03 0.29192287E+03 0.0000E+00 0.0000E+00
       23  2    1    2    0    0 0.11928705E+02 0.97891405E+02 -.78675114E+02 0.15581127E+03 0.91445931E+02 0.0000E+00 0.0000E+00
       23  1    3    3    0    0 0.88569362E+02 -.10135047E+03 -.48221369E+03 0.50888284E+03 0.91188000E+02 0.0000E+00 0.9000E+01
      -11  1    4    4    0    0 0.73393718E+01 0.25048478E+02 0.20136556E+02 0.32966249E+02 0.51099893E-03 0.0000E+00 0.9000E+01
       11  1    4    4    0    0 0.45893331E+01 0.72842927E+02 -.98811670E+02 0.12284503E+03 0.51099893E-03 0.0000E+00 0.9000E+01
       23  1    3    3    0    0 -.10049807E+03 0.34590681E+01 -.22901040E+03 0.26621954E+03 0.91188000E+02 0.0000E+00 0.9000E+01
#aMCatNLO 1  0  0  2  1 0.71624365D+02 0.00000000D+00  -5  7  0 0.00000000D+00 0.00000000D+00 0.00000000D+00 0.00000000D+00 0.00000000D+00
  <mgrwgt>
 0.4608300291D-03    9    2    0
 0.246302389942755D+03 0.000000000000000D+00 0.000000000000000D+00 0.246302389942755D+03
 0.246302389942755D+03 0.000000000000000D+00 0.000000000000000D+00 -.246302389942755D+03
 0.188438632120478D+03 0.885693615087274D+02 -.101350473377117D+03 -.952754768007364D+02
 0.945881621897975D+02 0.733937178480461D+01 0.250484783639098D+02 0.909154980182179D+02
 0.737038134146588D+02 0.458933305400418D+01 0.728429269403400D+02 0.102517378403152D+02
 0.135874172160575D+03 -.100498066347536D+03 0.345906807286692D+01 -.589175905779671D+01
 0.000000000000000D+00 0.000000000000000D+00 -.000000000000000D+00 -.000000000000000D+00
 0.280822674665558D+03 0.000000000000000D+00 0.000000000000000D+00 0.280822674665558D+03
 0.289058218195205D+03 0.000000000000000D+00 0.000000000000000D+00 -.289058218195205D+03
 0.170942654762529D+03 0.696434233162697D+02 -.835375184120544D+02 -.952754768007364D+02
 0.973018315047825D+02 -.276604631281875D+01 0.345596241599912D+02 0.909154980182179D+02
 0.812518835839020D+02 -.357103046798037D+01 0.805234015586908D+02 0.102517378403152D+02
 0.148288241059775D+03 -.115462786174417D+03 0.175437532086996D+02 -.589175905779671D+01
 0.720962819497745D+02 0.521564396389461D+02 -.490892605153272D+02 -.823554352964651D+01
0.146562659656D-05 0.000000000000D+00 0.000000000000D+00 0.127463681742D-08 0.000000000000D+00  7 -2 2 23 -11 11 23 21 0 0.10847265D-01 0.13237022D+00 0.39484393D+05 0.39484393D+05 0.39484393D+05 0.11564259D+01  1  2  2  2  7  2        2 0.302727009334D-03 0.100000000000D+01
-.768589575470D-07 0.000000000000D+00 -.562839203913D-08 0.127463681742D-08 0.000000000000D+00  7 -2 2 23 -11 11 23 21 2 0.10847265D-01 0.13237022D+00 0.39484393D+05 0.39484393D+05 0.39484393D+05 0.11564259D+01  1  2  3  2  7  2        2 -.212303882679D-04 0.100000000000D+01
0.976290156839D-07 0.000000000000D+00 0.000000000000D+00 0.127463681742D-08 0.000000000000D+00  7 -2 2 23 -11 11 23 21 2 0.10847265D-01 0.13237022D+00 0.39484393D+05 0.39484393D+05 0.39484393D+05 0.11564259D+01  1  2 15  2  7  2        2 0.269676037164D-04 0.100000000000D+01
0.933597026108D-06 0.000000000000D+00 0.000000000000D+00 0.127463681742D-08 0.000000000000D+00  7 -2 2 23 -11 11 23 21 2 0.10847265D-01 0.16321641D+00 0.56881695D+05 0.56881695D+05 0.56881695D+05 0.11424018D+01  1  2 12  2  7  2        2 0.189987695966D-03 0.100000000000D+01
-.935058401910D-06 0.000000000000D+00 0.000000000000D+00 0.127463681742D-08 0.000000000000D+00  7 -2 2 23 -11 11 23 21 2 0.10847265D-01 0.13237022D+00 0.39484393D+05 0.39484393D+05 0.39484393D+05 0.11564259D+01  1  2  4  2  7  2        2 -.258286783471D-03 0.100000000000D+01
-.224177486492D-05 0.000000000000D+00 -.831500048209D-06 0.127463681742D-08 0.000000000000D+00  7 -2 2 23 -11 11 23 21 2 0.10847265D-01 0.17057333D+00 0.39484393D+05 0.39484393D+05 0.39484393D+05 0.11564259D+01  1  2  5  2  7  2        2 -.438489375794D-03 0.100000000000D+01
0.240104380088D-05 0.000000000000D+00 0.805467647558D-06 0.127463681742D-08 0.000000000000D+00  7 -2 2 23 -11 11 23 21 2 0.10847265D-01 0.13237022D+00 0.39484393D+05 0.39484393D+05 0.39484393D+05 0.11564259D+01  1  2  6  2  7  2        2 0.663229033645D-03 0.100000000000D+01
0.276777557900D-07 0.000000000000D+00 0.000000000000D+00 0.127463681742D-08 0.000000000000D+00  7 -2 21 23 -11 11 23 -2 2 0.10847265D-01 0.16321641D+00 0.56881695D+05 0.56881695D+05 0.56881695D+05 0.11424018D+01  1  2 12  4  7  2        2 0.385693364939D-05 0.100000000000D+01
-.624029642172D-07 0.000000000000D+00 -.284356227306D-07 0.127463681742D-08 0.000000000000D+00  7 -2 21 23 -11 11 23 -2 2 0.10847265D-01 0.17057333D+00 0.39484393D+05 0.39484393D+05 0.39484393D+05 0.11564259D+01  1  2  5  4  7  2        2 -.793169972426D-05 0.100000000000D+01
  </mgrwgt>
  </event>
  <event>
  8     66 0.53686478E-06 0.83069924E+03 0.75467711E-02 0.84856831E-01
       -2 -1    0    0    0  501 0.00000000E+00 0.00000000E+00 0.39981879E+03 0.39981892E+03 0.32000000E+00 0.0000E+00 0.9000E+01
        2 -1    0    0  501    0 0.00000000E+00 0.00000000E+00 -.20862424E+04 0.20862425E+04 0.32000000E+00 0.0000E+00 0.9000E+01
       25  2    1    2    0    0 0.29218185E+03 0.74982713E+03 -.13717441E+04 0.16183428E+04 0.29956733E+03 0.0000E+00 0.0000E+00
       23  2    1    2    0    0 -.29218185E+03 -.74982713E+03 -.31467957E+03 0.86771860E+03 0.79381257E+02 0.0000E+00 0.0000E+00
       23  1    3    3    0    0 -.15517870E+02 0.18826215E+03 -.38672766E+03 0.43995111E+03 0.91188000E+02 0.0000E+00 0.9000E+01
      -11  1    4    4    0    0 -.22963239E+03 -.60306324E+03 -.28503314E+03 0.70545035E+03 0.51099893E-03 0.0000E+00 0.9000E+01
       11  1    4    4    0    0 -.62549465E+02 -.14676389E+03 -.29646421E+02 0.16226825E+03 0.51099893E-03 0.0000E+00 0.9000E+01
       23  1    3    3    0    0 0.30769972E+03 0.56156498E+03 -.98501642E+03 0.11783917E+04 0.91188000E+02 0.0000E+00 0.9000E+01
#aMCatNLO 1  0  0  1  1 0.80597842D+03 0.00000000D+00  -5  7  0 0.00000000D+00 0.00000000D+00 0.00000000D+00 0.00000000D+00 0.00000000D+00
  <mgrwgt>
 0.2464331149D-02    3    2    0
 0.913301223627619D+03 0.000000000000000D+00 0.000000000000000D+00 0.913301223627619D+03
 0.913301223627619D+03 0.000000000000000D+00 0.000000000000000D+00 -.913301223627619D+03
 0.241737761373422D+03 -.155178701197144D+02 0.188262149458072D+03 -.120160112842024D+03
 0.696980478891748D+03 -.229632386886736D+03 -.603063242703860D+03 0.263373271514737D+03
 0.193480744696051D+03 -.625494650592176D+02 -.146763887320496D+03 0.109465630987634D+03
 0.694403462294017D+03 0.307699722065668D+03 0.561564980566285D+03 -.252678789660347D+03
 0.000000000000000D+00 -.000000000000000D+00 -.000000000000000D+00 -.000000000000000D+00
 0.127223772136886D+04 0.000000000000000D+00 0.000000000000000D+00 0.127223772136886D+04
 0.159100433657683D+04 0.000000000000000D+00 0.000000000000000D+00 -.159100433657683D+04
 0.340614884463049D+03 0.241896567483800D+02 0.304433335825701D+03 -.120160112842024D+03
 0.477247498053045D+03 -.149568031934194D+03 -.368821227795863D+03 0.263373271514737D+03
 0.141274015048618D+03 -.397243200000905D+02 -.799850071011223D+02 0.109465630987634D+03
 0.103737999824774D+04 0.425780817396509D+03 0.907031495711936D+03 -.252678789660347D+03
 0.866725662133229D+03 -.260678122210604D+03 -.762658596640651D+03 -.318766615207974D+03
0.132685974699D-02 0.000000000000D+00 0.000000000000D+00 0.419822869870D-07 0.000000000000D+00  7 -2 2 23 -11 11 23 21 0 0.61510595D-01 0.32096039D+00 0.69006123D+06 0.69006123D+06 0.69006123D+06 0.10587601D+01  1  2  2  1  7  1       -2 0.245005422993D-02 0.100000000000D+01
-.729089928542D-04 0.000000000000D+00 -.509549079864D-05 0.419822869870D-07 0.000000000000D+00  7 -2 2 23 -11 11 23 21 2 0.61510595D-01 0.32096039D+00 0.69006123D+06 0.69006123D+06 0.69006123D+06 0.10587601D+01  1  2  3  1  7  1       -2 -.150913078162D-03 0.100000000000D+01
0.798064452277D-04 0.000000000000D+00 0.000000000000D+00 0.419822869870D-07 0.000000000000D+00  7 -2 2 23 -11 11 23 21 2 0.61510595D-01 0.32096039D+00 0.69006123D+06 0.69006123D+06 0.69006123D+06 0.10587601D+01  1  2 15  1  7  1       -2 0.165189996940D-03 0.100000000000D+01
  </mgrwgt>
  </event>
  <event>
  9     66 0.53686478E-06 0.15388519E+03 0.75467711E-02 0.10582658E+00
       -2 -1    0    0    0  502 0.00000000E+00 0.00000000E+00 0.83898433E+02 0.83899043E+02 0.32000000E+00 0.0000E+00 0.9000E+01
        2 -1    0    0  501    0 0.00000000E+00 0.00000000E+00 -.12073779E+04 0.12073779E+04 0.32000000E+00 0.0000E+00 0.9000E+01
       25  2    1    2    0    0 0.79980845E+02 -.55709484E+02 -.10190554E+04 0.10660293E+04 0.29739567E+03 0.0000E+00 0.0000E+00
       23  2    1    2    0    0 0.15833537E+02 0.27987744E+02 -.72803972E+02 0.12060879E+03 0.90620342E+02 0.0000E+00 0.0000E+00
       23  1    3    3    0    0 0.15470562E+02 -.11916556E+03 -.30223603E+03 0.33778934E+03 0.91188000E+02 0.0000E+00 0.9000E+01
      -13  1    4    4    0    0 0.88409132E+01 0.31641985E+01 -.89431663E+02 0.89923342E+02 0.10565837E+00 0.0000E+00 0.9000E+01
       13  1    4    4    0    0 0.69926236E+01 0.24823545E+02 0.16627692E+02 0.30685444E+02 0.10565837E+00 0.0000E+00 0.9000E+01
       23  1    3    3    0    0 0.64510282E+02 0.63456077E+02 -.71681936E+03 0.72824000E+03 0.91188000E+02 0.0000E+00 0.9000E+01
       21  1    1    2  501  502 -.95814382E+02 0.27721740E+02 -.31620059E+02 0.10463881E+03 0.75000000E+00 0.0000E+00 0.9000E+01
#aMCatNLO 2  0  0  1  2 0.99744126D+02 0.00000000D+00  -5  7  0 0.00000000D+00 0.00000000D+00 0.00000000D+00 0.00000000D+00 0.00000000D+00
  <mgrwgt>
 0.1367536347D-03    2    2    0
 0.226938474701995D+03 0.000000000000000D+00 0.000000000000000D+00 0.226938474701995D+03
 0.226938474701995D+03 0.000000000000000D+00 0.000000000000000D+00 -.226938474701995D+03
 0.145521132829913D+03 -.156074827654798D+02 -.110173817665902D+03 0.218925818200342D+02
 0.182874090258277D+02 0.489993303426205D+01 0.430440474379744D+01 -.170848495732109D+02
 0.120265739847410D+03 -.177999410765206D+02 0.319967517542583D+02 0.114556615504709D+03
 0.169802667700839D+03 0.285074908077384D+02 0.738726611678465D+02 -.119364347751532D+03
 0.000000000000000D+00 -.000000000000000D+00 0.000000000000000D+00 0.000000000000000D+00
 0.411360955213033D+03 0.000000000000000D+00 0.000000000000000D+00 0.411360955213033D+03
 0.246248356084254D+03 0.000000000000000D+00 0.000000000000000D+00 -.246248356084254D+03
 0.152428028306939D+03 0.154705643057899D+02 -.119165552786258D+03 0.218925818200342D+02
 0.194952770194695D+02 0.884091441146896D+01 0.316417026970592D+01 -.170848495732109D+02
 0.117423698872671D+03 0.699262265046190D+01 0.248235801107395D+02 0.114556615504709D+03
 0.175360619776305D+03 0.645102801915347D+02 0.634560624352852D+02 -.119364347751532D+03
 0.192901687321902D+03 -.958143815592555D+02 0.277217399705277D+02 0.165112599128778D+03
-.420155452165D-06 0.000000000000D+00 0.000000000000D+00 0.104525081929D-07 0.000000000000D+00  7 -2 2 23 -13 13 23 21 2 0.12990110D-01 0.17118414D+00 0.42898175D+05 0.42898175D+05 0.42898175D+05 0.11531938D+01  1  2 13  1  7  1       -2 -.614904669823D-04 0.100000000000D+01
0.151684497179D-05 0.000000000000D+00 0.000000000000D+00 0.104525081929D-07 0.884698009754D-11  7 -2 2 23 -13 13 23 21 2 0.12907465D-01 0.18574996D+00 0.42898175D+05 0.42898175D+05 0.42898175D+05 0.11531938D+01  1  2  1  1  7  1       -2 0.198244101665D-03 0.100000000000D+01
  </mgrwgt>
  </event>
  <event>
  9     66 -.53686478E-06 0.24218852E+03 0.75467711E-02 0.10353414E+00
       -2 -1    0    0    0  501 0.00000000E+00 0.00000000E+00 0.49355280E+02 0.49356317E+02 0.32000000E+00 0.0000E+00 0.9000E+01
        2 -1    0    0  502    0 0.00000000E+00 0.00000000E+00 -.15599667E+04 0.15599668E+04 0.32000000E+00 0.0000E+00 0.9000E+01
       25  2    1    2    0    0 -.31084089E+02 0.15103132E+03 -.11857231E+04 0.12328171E+04 0.30020365E+03 0.0000E+00 0.0000E+00
       23  2    1    2    0    0 0.34846924E+02 -.15053788E+03 -.28740198E+03 0.33882046E+03 0.91232925E+02 0.0000E+00 0.0000E+00
       23  1    3    3    0    0 0.82039939E+02 0.63997198E+02 -.79520890E+03 0.80715466E+03 0.91188000E+02 0.0000E+00 0.9000E+01
      -13  1    4    4    0    0 0.43101895E+02 -.15914966E+03 -.27950380E+03 0.32451313E+03 0.10565837E+00 0.0000E+00 0.9000E+01
       13  1    4    4    0    0 -.82549712E+01 0.86117802E+01 -.78981811E+01 0.14307332E+02 0.10565837E+00 0.0000E+00 0.9000E+01
       23  1    3    3    0    0 -.11312403E+03 0.87034124E+02 -.39051417E+03 0.42566249E+03 0.91188000E+02 0.0000E+00 0.9000E+01
       21  1    1    2  502  501 -.37628356E+01 -.49344708E+00 -.37486387E+02 0.37685463E+02 0.75000000E+00 0.0000E+00 0.9000E+01
#aMCatNLO 2  0  0  2  1 0.37950522D+01 0.00000000D+00  -5  7  0 0.00000000D+00 0.00000000D+00 0.00000000D+00 0.00000000D+00 0.00000000D+00
  <mgrwgt>
 -.2663476323D-04    3    2    0
 0.273830669396693D+03 0.000000000000000D+00 0.000000000000000D+00 0.273830669396693D+03
 0.273830669396693D+03 0.000000000000000D+00 0.000000000000000D+00 -.273830669396693D+03
 0.176700763612818D+03 0.808237691232123D+02 0.638377139169211D+02 -.110906145654476D+03
 0.179288633239688D+03 0.418696245733369D+02 -.159311486721563D+03 0.707898209180427D+02
 0.198619593736434D+02 -.839133463315741D+01 0.859413148805421D+01 0.158184650709438D+02
 0.171809982567236D+03 -.114302059063392D+03 0.868796413165877D+02 0.242978596654898D+02
 0.000000000000000D+00 -.000000000000000D+00 -.000000000000000D+00 -.000000000000000D+00
 0.274371374238661D+03 0.000000000000000D+00 0.000000000000000D+00 0.274371374238661D+03
 0.280578304245545D+03 0.000000000000000D+00 0.000000000000000D+00 -.280578304245545D+03
 0.177317842957670D+03 0.820399384194757D+02 0.639971987461759D+02 -.110906145654476D+03
 0.179437071992739D+03 0.431019642876543D+02 -.159149881351714D+03 0.707898209180427D+02
 0.198125249893797D+02 -.825503984855608D+01 0.861200478128505D+01 0.158184650709438D+02
 0.171107047717273D+03 -.113124027299926D+03 0.870341249030672D+02 0.242978596654898D+02
 0.727519082714469D+01 -.376283555864762D+01 -.493447078814261D+00 -.620693000688400D+01
-.354769427740D-06 0.000000000000D+00 0.000000000000D+00 0.368586547653D-06 0.000000000000D+00  7 -2 2 23 -13 13 23 21 2 0.75777068D-02 0.24020619D+00 0.59617373D+05 0.59617373D+05 0.59617373D+05 0.11406351D+01  1  2 13  2  7  2        2 -.658092628413D-04 0.100000000000D+01
-.293330953636D-05 0.000000000000D+00 0.000000000000D+00 0.368586547653D-06 0.000000000000D+00  7 -2 2 23 -13 13 23 21 2 0.75777068D-02 0.23420689D+00 0.58655279D+05 0.58655279D+05 0.58655279D+05 0.11412460D+01  1  2  8  2  7  2        2 -.571401833196D-03 0.100000000000D+01
0.329534292135D-05 0.000000000000D+00 0.000000000000D+00 0.368586547653D-06 0.177632758847D-06  7 -2 2 23 -13 13 23 21 2 0.75926697D-02 0.23997813D+00 0.59617373D+05 0.59617373D+05 0.59617373D+05 0.11406351D+01  1  2  1  2  7  2        2 0.610576332811D-03 0.100000000000D+01
  </mgrwgt>
  </event>
  <event>
  8     66 0.53686478E-06 0.52768151E+03 0.75467711E-02 0.89349584E-01
       -2 -1    0    0    0  501 0.00000000E+00 0.00000000E+00 0.30210452E+03 0.30210469E+03 0.32000000E+00 0.0000E+00 0.9000E+01
        2 -1    0    0  501    0 0.00000000E+00 0.00000000E+00 -.94730745E+03 0.94730751E+03 0.32000000E+00 0.0000E+00 0.9000E+01
       25  2    1    2    0    0 0.59892671E+02 0.48292497E+03 -.30130541E+03 0.64631603E+03 0.30022627E+03 0.0000E+00 0.0000E+00
       23  2    1    2    0    0 -.59892671E+02 -.48292497E+03 -.34389752E+03 0.60309617E+03 0.93036683E+02 0.0000E+00 0.0000E+00
       23  1    3    3    0    0 0.10638978E+03 0.43104009E+03 -.20932612E+03 0.49924645E+03 0.91188000E+02 0.0000E+00 0.9000E+01
      -11  1    4    4    0    0 -.38044627E+01 -.12597492E+03 -.13933750E+03 0.18788053E+03 0.51099893E-03 0.0000E+00 0.9000E+01
       11  1    4    4    0    0 -.56088208E+02 -.35695005E+03 -.20456003E+03 0.41521564E+03 0.51099893E-03 0.0000E+00 0.9000E+01
       23  1    3    3    0    0 -.46497108E+02 0.51884878E+02 -.91979290E+02 0.14706958E+03 0.91188000E+02 0.0000E+00 0.9000E+01
#aMCatNLO 1  0  0  1  2 0.47847329D+03 0.00000000D+00  -5  7  0 0.00000000D+00 0.00000000D+00 0.00000000D+00 0.00000000D+00 0.00000000D+00
  <mgrwgt>
 0.4391645514D-03    3    2    0
 0.534963556317138D+03 0.000000000000000D+00 0.000000000000000D+00 0.534963556317138D+03
 0.534963556317138D+03 0.000000000000000D+00 0.000000000000000D+00 -.534963556317138D+03
 0.456766424317332D+03 0.106389779201791D+03 0.431040088605282D+03 0.566213028478326D+02
 0.135373016598680D+03 -.380446274428809D+01 -.125974919226687D+03 -.494135549427829D+02
 0.361513184857521D+03 -.560882083861758D+02 -.356950047078393D+03 0.115134528526338D+02
 0.116274486860743D+03 -.464971080713269D+02 0.518848776997977D+02 -.187212007576836D+02
 0.000000000000000D+00 0.000000000000000D+00 0.000000000000000D+00 -.000000000000000D+00
 0.663273876814409D+03 0.000000000000000D+00 0.000000000000000D+00 0.663273876814409D+03
 0.132688491364616D+04 0.000000000000000D+00 0.000000000000000D+00 -.132688491364616D+04
 0.391192863065838D+03 -.642083687680404D+02 0.370658762494034D+03 0.566213028478326D+02
 0.168693855361542D+03 -.649786794634374D+02 -.147626856092803D+03 -.494135549427829D+02
 0.472922608640373D+03 -.223965608974338D+03 -.416368394770040D+03 0.115134528526338D+02
 0.139231932090485D+03 -.979016065136991D+02 0.336908244760611D+02 -.187212007576836D+02
 0.818117531302334D+03 0.451054263719515D+03 0.159645663892747D+03 -.663611036831754D+03
0.291083172282D-04 0.000000000000D+00 0.000000000000D+00 0.542804284053D-06 0.000000000000D+00  7 -2 2 23 -11 11 23 21 0 0.46477636D-01 0.14573963D+00 0.27844778D+06 0.27844778D+06 0.27844778D+06 0.10869555D+01  1  2  2  1  7  1       -2 0.436838208802D-03 0.100000000000D+01
-.161675939177D-05 0.000000000000D+00 -.111783602552D-06 0.542804284053D-06 0.000000000000D+00  7 -2 2 23 -11 11 23 21 2 0.46477636D-01 0.14573963D+00 0.27844778D+06 0.27844778D+06 0.27844778D+06 0.10869555D+01  1  2  3  1  7  1       -2 -.286663502068D-04 0.100000000000D+01
0.174796326659D-05 0.000000000000D+00 0.000000000000D+00 0.542804284053D-06 0.000000000000D+00  7 -2 2 23 -11 11 23 21 2 0.46477636D-01 0.14573963D+00 0.27844778D+06 0.27844778D+06 0.27844778D+06 0.10869555D+01  1  2 15  1  7  1       -2 0.309926927925D-04 0.100000000000D+01
  </mgrwgt>
  </event>
  <event>
  8     66 0.53686478E-06 0.16090546E+03 0.75467711E-02 0.98026852E-01
       -2 -1    0    0    0  501 0.00000000E+00 0.00000000E+00 0.11201252E+03 0.11201297E+03 0.32000000E+00 0.0000E+00 0.9000E+01
        2 -1    0    0  501    0 0.00000000E+00 0.00000000E+00 -.97997425E+03 0.97997430E+03 0.32000000E+00 0.0000E+00 0.9000E+01
       25  2    1    2    0    0 0.20863713E+03 -.12501690E+03 -.39855341E+03 0.55557973E+03 0.30110685E+03 0.0000E+00 0.0000E+00
       23  2    1    2    0    0 -.20863713E+03 0.12501690E+03 -.46940832E+03 0.53640755E+03 0.90720464E+02 0.0000E+00 0.0000E+00
       23  1    3    3    0    0 0.18349668E+03 -.75746289E+02 -.39195438E+03 0.44872265E+03 0.91188000E+02 0.0000E+00 0.9000E+01
      -13  1    4    4    0    0 0.75612624E+01 0.34251702E+01 -.36876824E+02 0.37799680E+02 0.10565837E+00 0.0000E+00 0.9000E+01
       13  1    4    4    0    0 -.21619840E+03 0.12159173E+03 -.43253150E+03 0.49860787E+03 0.10565837E+00 0.0000E+00 0.9000E+01
       23  1    3    3    0    0 0.25140458E+02 -.49270613E+02 -.65990283E+01 0.10685708E+03 0.91188000E+02 0.0000E+00 0.9000E+01
#aMCatNLO 1  0  0  1  2 0.14420600D+03 0.00000000D+00  -5  7  0 0.00000000D+00 0.00000000D+00 0.00000000D+00 0.00000000D+00 0.00000000D+00
  <mgrwgt>
 0.4186806888D-03    9    2    0
 0.331315044885211D+03 0.000000000000000D+00 0.000000000000000D+00 0.331315044885211D+03
 0.331315044885211D+03 0.000000000000000D+00 0.000000000000000D+00 -.331315044885211D+03
 0.226065830263791D+03 0.183496675220027D+03 -.757462893363187D+02 -.581547771368087D+02
 0.139880161637202D+02 0.756156562327710D+01 0.342500995507533D+01 -.112586246197752D+02
 0.255124049822805D+03 -.216198699122034D+03 0.121591892671704D+03 -.596809427911622D+02
 0.167452193520105D+03 0.251404582787301D+02 -.492706132904604D+02 0.129094344547746D+03
 0.000000000000000D+00 -.000000000000000D+00 0.000000000000000D+00 0.000000000000000D+00
 0.455076172347763D+03 0.000000000000000D+00 0.000000000000000D+00 0.455076172347763D+03
 0.383885302365190D+03 0.000000000000000D+00 0.000000000000000D+00 -.383885302365190D+03
 0.272502256734423D+03 0.224463664278051D+03 -.110346336125816D+03 -.581547771368087D+02
 0.150916835292473D+02 0.995102409484731D+01 0.140691253520412D+01 -.112586246197752D+02
 0.208075880381435D+03 -.178137886632801D+03 0.894463549288996D+02 -.596809427911622D+02
 0.182470288435667D+03 0.538933425151617D+02 -.735548275514711D+02 0.129094344547746D+03
 0.160821365632181D+03 -.110170144255259D+03 0.930478962131838D+02 0.711908699825734D+02
0.435536561794D-05 0.000000000000D+00 0.000000000000D+00 0.118274173575D-06 0.000000000000D+00  7 -2 2 23 -13 13 23 21 0 0.17232734D-01 0.15076531D+00 0.84523126D+05 0.84523126D+05 0.84523126D+05 0.11277643D+01  1  2  2  1  7  1       -2 0.365098287833D-03 0.100000000000D+01
-.236940769569D-06 0.000000000000D+00 -.167257507670D-07 0.118274173575D-06 0.000000000000D+00  7 -2 2 23 -13 13 23 21 2 0.17232734D-01 0.15076531D+00 0.84523126D+05 0.84523126D+05 0.84523126D+05 0.11277643D+01  1  2  3  1  7  1       -2 -.252616449285D-04 0.100000000000D+01
0.285690695027D-06 0.000000000000D+00 0.000000000000D+00 0.118274173575D-06 0.000000000000D+00  7 -2 2 23 -13 13 23 21 2 0.17232734D-01 0.15076531D+00 0.84523126D+05 0.84523126D+05 0.84523126D+05 0.11277643D+01  1  2 15  1  7  1       -2 0.304591603643D-04 0.100000000000D+01
0.171489940473D-05 0.000000000000D+00 0.000000000000D+00 0.118274173575D-06 0.000000000000D+00  7 -2 2 23 -13 13 23 21 2 0.24631735D-01 0.15076531D+00 0.14016465D+06 0.14016465D+06 0.14016465D+06 0.11098837D+01  1  2 12  1  7  1       -2 0.972329917000D-04 0.100000000000D+01
-.264871922196D-05 0.000000000000D+00 0.000000000000D+00 0.118274173575D-06 0.000000000000D+00  7 -2 2 23 -13 13 23 21 2 0.17232734D-01 0.15076531D+00 0.84523126D+05 0.84523126D+05 0.84523126D+05 0.11277643D+01  1  2  4  1  7  1       -2 -.282395489059D-03 0.100000000000D+01
-.343246281799D-05 0.000000000000D+00 -.165650146927D-05 0.118274173575D-06 0.000000000000D+00  7 -2 2 23 -13 13 23 21 2 0.27317347D-01 0.15076531D+00 0.84523126D+05 0.84523126D+05 0.84523126D+05 0.11277643D+01  1  2  5  1  7  1       -2 -.169604709895D-03 0.100000000000D+01
0.393235504677D-05 0.000000000000D+00 0.149501325139D-05 0.118274173575D-06 0.000000000000D+00  7 -2 2 23 -13 13 23 21 2 0.17232734D-01 0.15076531D+00 0.84523126D+05 0.84523126D+05 0.84523126D+05 0.11277643D+01  1  2  6  1  7  1       -2 0.419251431929D-03 0.100000000000D+01
0.751824305886D-07 0.000000000000D+00 0.000000000000D+00 0.118274173575D-06 0.000000000000D+00  7 21 2 23 -13 13 23 2 2 0.24631735D-01 0.15076531D+00 0.14016465D+06 0.14016465D+06 0.14016465D+06 0.11098837D+01  1  2 12  3  7  1       -2 0.521093751436D-04 0.100000000000D+01
-.113731752346D-06 0.000000000000D+00 -.876363189806D-07 0.118274173575D-06 0.000000000000D+00  7 21 2 23 -13 13 23 2 2 0.27317347D-01 0.15076531D+00 0.84523126D+05 0.84523126D+05 0.84523126D+05 0.11277643D+01  1  2  5  3  7  1       -2 -.682087143135D-04 0.100000000000D+01
  </mgrwgt>
  </event>
  <event>
  8     66 0.53686478E-06 0.84223677E+03 0.75467711E-02 0.86220653E-01
       -2 -1    0    0    0  501 0.00000000E+00 0.00000000E+00 0.18750228E+04 0.18750228E+04 0.32000000E+00 0.0000E+00 0.9000E+01
        2 -1    0    0  501    0 0.00000000E+00 0.00000000E+00 -.51902456E+03 0.51902466E+03 0.32000000E+00 0.0000E+00 0.9000E+01
       25  2    1    2    0    0 -.27042534E+03 0.78136193E+03 0.97566682E+02 0.88558002E+03 0.30178862E+03 0.0000E+00 0.0000E+00
       23  2    1    2    0    0 0.27042534E+03 -.78136193E+03 0.12584316E+04 0.15084675E+04 0.90375981E+02 0.0000E+00 0.0000E+00
       23  1    3    3    0    0 -.48234466E+02 0.32001568E+03 0.13896080E+03 0.36381582E+03 0.91188000E+02 0.0000E+00 0.9000E+01
      -13  1    4    4    0    0 0.12879962E+03 -.30309576E+03 0.57055961E+03 0.65878271E+03 0.10565837E+00 0.0000E+00 0.9000E+01
       13  1    4    4    0    0 0.14162572E+03 -.47826618E+03 0.68787195E+03 0.84968477E+03 0.10565837E+00 0.0000E+00 0.9000E+01
       23  1    3    3    0    0 -.22219087E+03 0.46134626E+03 -.41394113E+02 0.52176420E+03 0.91188000E+02 0.0000E+00 0.9000E+01
#aMCatNLO 1  0  0  2  2 0.51783491D+03 0.00000000D+00  -5  7  0 0.00000000D+00 0.00000000D+00 0.00000000D+00 0.00000000D+00 0.00000000D+00
  <mgrwgt>
 0.2143090060D-03    3    2    0
 0.986500404136492D+03 0.000000000000000D+00 0.000000000000000D+00 0.986500404136492D+03
 0.986500404136492D+03 0.000000000000000D+00 0.000000000000000D+00 -.986500404136492D+03
 0.345951078768901D+03 -.482344662557351D+02 0.320015675618626D+03 -.814266613631241D+02
 0.407236967635923D+03 0.128799606079394D+03 -.303095517157938D+03 0.239553160617549D+03
 0.558252660677029D+03 0.141625734671832D+03 -.478266414609849D+03 0.250697868135902D+03
 0.661560101191131D+03 -.222190874495491D+03 0.461346256149161D+03 -.408824367390326D+03
 0.000000000000000D+00 -.000000000000000D+00 0.000000000000000D+00 0.000000000000000D+00
 0.200652338978504D+04 0.000000000000000D+00 0.000000000000000D+00 0.200652338978504D+04
 0.108786039921191D+04 0.000000000000000D+00 0.000000000000000D+00 -.108786039921191D+04
 0.272863456046565D+03 -.318935298669980D+02 0.241850606518888D+03 -.814266613631241D+02
 0.505814573273989D+03 0.152910411999776D+03 -.418426901234313D+03 0.239553160617549D+03
 0.707636471995838D+03 0.175053866411448D+03 -.638166200346926D+03 0.250697868135902D+03
 0.553510289921975D+03 -.190104705131453D+03 0.307865599605236D+03 -.408824367390326D+03
 0.105455899775858D+04 -.105966043412774D+03 0.506876895457115D+03 0.918662990573137D+03
0.930421713617D-03 0.000000000000D+00 0.000000000000D+00 0.388434460148D-06 0.000000000000D+00  7 -2 2 23 -13 13 23 21 0 0.28846506D+00 0.79849943D-01 0.70936278D+06 0.70936278D+06 0.70936278D+06 0.10579378D+01  1  2  2  2  7  2        2 0.212637649196D-03 0.100000000000D+01
-.501191297066D-04 0.000000000000D+00 -.357306436595D-05 0.388434460148D-06 0.000000000000D+00  7 -2 2 23 -13 13 23 21 2 0.28846506D+00 0.79849943D-01 0.70936278D+06 0.70936278D+06 0.70936278D+06 0.10579378D+01  1  2  3  2  7  2        2 -.128198846339D-04 0.100000000000D+01
0.566532718999D-04 0.000000000000D+00 0.000000000000D+00 0.388434460148D-06 0.000000000000D+00  7 -2 2 23 -13 13 23 21 2 0.28846506D+00 0.79849943D-01 0.70936278D+06 0.70936278D+06 0.70936278D+06 0.10579378D+01  1  2 15  2  7  2        2 0.144912414510D-04 0.100000000000D+01
  </mgrwgt>
  </event>
  <event>
  8     66 0.53686478E-06 0.98490411E+02 0.75467711E-02 0.97858613E-01
       -2 -1    0    0    0  501 0.00000000E+00 0.00000000E+00 0.63423979E+02 0.63424787E+02 0.32000000E+00 0.0000E+00 0.9000E+01
        2 -1    0    0  501    0 0.00000000E+00 0.00000000E+00 -.22227262E+04 0.22227262E+04 0.32000000E+00 0.0000E+00 0.9000E+01
       25  2    1    2    0    0 0.21532064E+03 -.21307243E+03 -.13932200E+04 0.14568959E+04 0.29953469E+03 0.0000E+00 0.0000E+00
       23  2    1    2    0    0 -.21532064E+03 0.21307243E+03 -.76608224E+03 0.82925507E+03 0.94969096E+02 0.0000E+00 0.0000E+00
       23  1    3    3    0    0 0.19773715E+03 -.92345084E+02 -.11140189E+04 0.11388507E+04 0.91188000E+02 0.0000E+00 0.9000E+01
      -13  1    4    4    0    0 -.14803685E+03 0.18091721E+03 -.48420999E+03 0.53768510E+03 0.10565837E+00 0.0000E+00 0.9000E+01
       13  1    4    4    0    0 -.67283789E+02 0.32155221E+02 -.28187225E+03 0.29156997E+03 0.10565837E+00 0.0000E+00 0.9000E+01
       23  1    3    3    0    0 0.17583488E+02 -.12072735E+03 -.27920111E+03 0.31804525E+03 0.91188000E+02 0.0000E+00 0.9000E+01
#aMCatNLO 1  0  0  1  2 0.58426081D+02 0.00000000D+00  -5  7  0 0.00000000D+00 0.00000000D+00 0.00000000D+00 0.00000000D+00 0.00000000D+00
  <mgrwgt>
 0.2565639774D-03    9    2    0
 0.375466494207903D+03 0.000000000000000D+00 0.000000000000000D+00 0.375466494207903D+03
 0.375466494207903D+03 0.000000000000000D+00 0.000000000000000D+00 -.375466494207903D+03
 0.263780167529560D+03 0.197737153946510D+03 -.923450845819169D+02 -.116778117558965D+03
 0.244594119723773D+03 -.148036953490899D+03 0.180917393327500D+03 0.719738882940418D+02
 0.771379519962623D+02 -.672836887081947D+02 0.321550387905429D+02 -.197287189745079D+02
 0.165420749166211D+03 0.175834882525835D+02 -.120727347536126D+03 0.645329482394307D+02
 0.000000000000000D+00 -.000000000000000D+00 0.000000000000000D+00 0.000000000000000D+00
 0.456967784713934D+03 0.000000000000000D+00 0.000000000000000D+00 0.456967784713934D+03
 0.387220102127929D+03 0.000000000000000D+00 0.000000000000000D+00 -.387220102127929D+03
 0.281275505860295D+03 0.218227220269515D+03 -.976750246777025D+02 -.116778117558965D+03
 0.230642702103965D+03 -.130171560148924D+03 0.176270191371230D+03 0.719738882940418D+02
 0.716748762710347D+02 -.616894258286852D+02 0.306998416448711D+02 -.197287189745079D+02
 0.169609385248683D+03 0.301781460270315D+02 -.124003509282336D+03 0.645329482394307D+02
 0.909854173578848D+02 -.565443803189371D+02 0.147085009439368D+02 0.697476825860049D+02
0.535389817156D-05 0.000000000000D+00 0.000000000000D+00 0.475857001717D-07 0.000000000000D+00  7 -2 2 23 -13 13 23 21 0 0.97575991D-02 0.34195794D+00 0.12151276D+06 0.12151276D+06 0.12151276D+06 0.11148433D+01  1  2  2  1  7  1       -2 0.226850149095D-03 0.100000000000D+01
-.295443315548D-06 0.000000000000D+00 -.205603786926D-07 0.475857001717D-07 0.000000000000D+00  7 -2 2 23 -13 13 23 21 2 0.97575991D-02 0.34195794D+00 0.12151276D+06 0.12151276D+06 0.12151276D+06 0.11148433D+01  1  2  3  1  7  1       -2 -.155586092980D-04 0.100000000000D+01
0.352145317470D-06 0.000000000000D+00 0.000000000000D+00 0.475857001717D-07 0.000000000000D+00  7 -2 2 23 -13 13 23 21 2 0.97575991D-02 0.34195794D+00 0.12151276D+06 0.12151276D+06 0.12151276D+06 0.11148433D+01  1  2 15  1  7  1       -2 0.185446450210D-04 0.100000000000D+01
0.132141045910D-04 0.000000000000D+00 0.000000000000D+00 0.475857001717D-07 0.000000000000D+00  7 -2 2 23 -13 13 23 21 2 0.12005483D-01 0.34195794D+00 0.14409561D+06 0.14409561D+06 0.14409561D+06 0.11089308D+01  1  2 12  1  7  1       -2 0.495893545319D-03 0.100000000000D+01
-.134234327199D-04 0.000000000000D+00 0.000000000000D+00 0.475857001717D-07 0.000000000000D+00  7 -2 2 23 -13 13 23 21 2 0.97575991D-02 0.34195794D+00 0.12151276D+06 0.12151276D+06 0.12151276D+06 0.11148433D+01  1  2  4  1  7  1       -2 -.706903605991D-03 0.100000000000D+01
-.197113878199D-04 0.000000000000D+00 -.341434205689D-05 0.475857001717D-07 0.000000000000D+00  7 -2 2 23 -13 13 23 21 2 0.12282013D-01 0.34195794D+00 0.12151276D+06 0.12151276D+06 0.12151276D+06 0.11148433D+01  1  2  5  1  7  1       -2 -.725207185513D-03 0.100000000000D+01
0.200522785703D-04 0.000000000000D+00 0.332591406447D-05 0.475857001717D-07 0.000000000000D+00  7 -2 2 23 -13 13 23 21 2 0.97575991D-02 0.34195794D+00 0.12151276D+06 0.12151276D+06 0.12151276D+06 0.11148433D+01  1  2  6  1  7  1       -2 0.105599128967D-02 0.100000000000D+01
0.388675737254D-06 0.000000000000D+00 0.000000000000D+00 0.475857001717D-07 0.000000000000D+00  7 21 2 23 -13 13 23 2 2 0.12005483D-01 0.34195794D+00 0.14409561D+06 0.14409561D+06 0.14409561D+06 0.11089308D+01  1  2 12  3  7  1       -2 0.204295561324D-03 0.100000000000D+01
-.577349884134D-06 0.000000000000D+00 -.108645965890D-06 0.475857001717D-07 0.000000000000D+00  7 21 2 23 -13 13 23 2 2 0.12282013D-01 0.34195794D+00 0.12151276D+06 0.12151276D+06 0.12151276D+06 0.11148433D+01  1  2  5  3  7  1       -2 -.297341812199D-03 0.100000000000D+01
  </mgrwgt>
  </event>
  <event>
  8     66 0.53686478E-06 0.20745907E+03 0.75467711E-02 0.95411244E-01
       -2 -1    0    0    0  501 0.00000000E+00 0.00000000E+00 0.56683365E+03 0.56683374E+03 0.32000000E+00 0.0000E+00 0.9000E+01
        2 -1    0    0  501    0 0.00000000E+00 0.00000000E+00 -.37079764E+03 0.37079777E+03 0.32000000E+00 0.0000E+00 0.9000E+01
       25  2    1    2    0    0 -.24142049E+03 -.31563445E+03 0.18433109E+03 0.53005707E+03 0.29845198E+03 0.0000E+00 0.0000E+00
       23  2    1    2    0    0 0.24142049E+03 0.31563445E+03 0.11704933E+02 0.40757445E+03 0.89838573E+02 0.0000E+00 0.0000E+00
       23  1    3    3    0    0 -.37650301E+02 -.12088725E+03 -.36876009E+02 0.16033204E+03 0.91188000E+02 0.0000E+00 0.9000E+01
      -11  1    4    4    0    0 0.23864638E+03 0.30876667E+03 -.39429380E+01 0.39026209E+03 0.51099893E-03 0.0000E+00 0.9000E+01
       11  1    4    4    0    0 0.27741119E+01 0.68677810E+01 0.15647871E+02 0.17312365E+02 0.51099893E-03 0.0000E+00 0.9000E+01
       23  1    3    3    0    0 -.20377019E+03 -.19474720E+03 0.22120709E+03 0.36972502E+03 0.91188000E+02 0.0000E+00 0.9000E+01
#aMCatNLO 1  0  0  1  2 0.79831487D+02 0.00000000D+00  -5  7  0 0.00000000D+00 0.00000000D+00 0.00000000D+00 0.00000000D+00 0.00000000D+00
  <mgrwgt>
 0.3978459861D-03    6    2    0
 0.458454672405974D+03 0.000000000000000D+00 0.000000000000000D+00 0.458454672405974D+03
 0.458454672405974D+03 0.000000000000000D+00 0.000000000000000D+00 -.458454672405974D+03
 0.171839672082653D+03 -.376503013332549D+02 -.120887247961386D+03 -.719885383051447D+02
 0.399925026325034D+03 0.238646380700451D+03 0.308766670220115D+03 -.874704236918790D+02
 0.143580962590545D+02 0.277411190521525D+01 0.686778095125238D+01 0.123001144761841D+02
 0.330786550145206D+03 -.203770191272411D+03 -.194747203209982D+03 0.147158847520840D+03
 0.000000000000000D+00 0.000000000000000D+00 -.000000000000000D+00 -.000000000000000D+00
 0.495044049118677D+03 0.000000000000000D+00 0.000000000000000D+00 0.495044049118677D+03
 0.505900306763947D+03 0.000000000000000D+00 0.000000000000000D+00 -.505900306763947D+03
 0.168254073871935D+03 -.489877525717528D+02 -.111409301591743D+03 -.719885383051447D+02
 0.402739084164419D+03 0.211888566651199D+03 0.331135818381610D+03 -.874704236918790D+02
 0.146106225047784D+02 0.180840336063482D+01 0.767509942184117D+01 0.123001144761841D+02
 0.334774300926742D+03 -.225957496346492D+03 -.176198934895057D+03 0.147158847520840D+03
 0.805662744147490D+02 0.612482789064112D+02 -.512026813166518D+02 -.108562576452707D+02
0.273225649853D-04 0.000000000000D+00 0.000000000000D+00 0.682711320501D-07 0.000000000000D+00  7 -2 2 23 -11 11 23 21 0 0.87205195D-01 0.57045808D-01 0.18059640D+06 0.18059640D+06 0.18059640D+06 0.11012457D+01  1  2  2  1  7  1       -2 0.335668037223D-03 0.100000000000D+01
-.150730190519D-05 0.000000000000D+00 -.104925843740D-06 0.682711320501D-07 0.000000000000D+00  7 -2 2 23 -11 11 23 21 2 0.87205195D-01 0.57045808D-01 0.18059640D+06 0.18059640D+06 0.18059640D+06 0.11012457D+01  1  2  3  1  7  1       -2 -.224572815273D-04 0.100000000000D+01
0.175814460813D-05 0.000000000000D+00 0.000000000000D+00 0.682711320501D-07 0.000000000000D+00  7 -2 2 23 -11 11 23 21 2 0.87205195D-01 0.57045808D-01 0.18059640D+06 0.18059640D+06 0.18059640D+06 0.11012457D+01  1  2 15  1  7  1       -2 0.261945853677D-04 0.100000000000D+01
0.251021573295D-04 0.000000000000D+00 0.000000000000D+00 0.682711320501D-07 0.000000000000D+00  7 -2 2 23 -11 11 23 21 2 0.98290650D-01 0.57045808D-01 0.21790889D+06 0.21790889D+06 0.21790889D+06 0.10949763D+01  1  2 12  1  7  1       -2 0.277998704583D-03 0.100000000000D+01
-.180327927772D-04 0.000000000000D+00 0.000000000000D+00 0.682711320501D-07 0.000000000000D+00  7 -2 2 23 -11 11 23 21 2 0.87205195D-01 0.57045808D-01 0.18059640D+06 0.18059640D+06 0.18059640D+06 0.11012457D+01  1  2  4  1  7  1       -2 -.268670465237D-03 0.100000000000D+01
0.475163943717D-06 0.000000000000D+00 0.000000000000D+00 0.682711320501D-07 0.000000000000D+00  7 21 2 23 -11 11 23 2 2 0.98290650D-01 0.57045808D-01 0.21790889D+06 0.21790889D+06 0.21790889D+06 0.10949763D+01  1  2 12  3  7  1       -2 0.491124056509D-04 0.100000000000D+01
  </mgrwgt>
  </event>
  <event>
  9     66 0.53686478E-06 0.27793308E+03 0.75467711E-02 0.10139991E+00
       -2 -1    0    0    0  502 0.00000000E+00 0.00000000E+00 0.11652253E+03 0.11652297E+03 0.32000000E+00 0.0000E+00 0.9000E+01
        2 -1    0    0  501    0 0.00000000E+00 0.00000000E+00 -.13534136E+04 0.13534136E+04 0.32000000E+00 0.0000E+00 0.9000E+01
       25  2    1    2    0    0 -.11800107E+03 -.18481545E+03 -.28212963E+03 0.46637268E+03 0.29970877E+03 0.0000E+00 0.0000E+00
       23  2    1    2    0    0 0.10071607E+03 0.18264047E+03 -.95936847E+03 0.98552816E+03 0.85887242E+02 0.0000E+00 0.0000E+00
       23  1    3    3    0    0 -.13571832E+03 -.19177029E+03 -.11940091E+03 0.27886759E+03 0.91188000E+02 0.0000E+00 0.9000E+01
      -13  1    4    4    0    0 0.52540764E+02 0.66462787E+02 -.57235224E+03 0.57858874E+03 0.10565837E+00 0.0000E+00 0.9000E+01
       13  1    4    4    0    0 0.48175301E+02 0.11617769E+03 -.38701623E+03 0.40693942E+03 0.10565837E+00 0.0000E+00 0.9000E+01
       23  1    3    3    0    0 0.17717245E+02 0.69548372E+01 -.16272873E+03 0.18750509E+03 0.91188000E+02 0.0000E+00 0.9000E+01
       21  1    1    2  501  502 0.17285007E+02 0.21749764E+01 0.46070251E+01 0.18035774E+02 0.75000000E+00 0.0000E+00 0.9000E+01
#aMCatNLO 2  0  0  1  2 0.17421308D+02 0.00000000D+00  -5  7  0 0.00000000D+00 0.00000000D+00 0.00000000D+00 0.00000000D+00 0.00000000D+00
  <mgrwgt>
 0.2950116350D-04    2    2    0
 0.376296094750685D+03 0.000000000000000D+00 0.000000000000000D+00 0.376296094750685D+03
 0.376296094750685D+03 0.000000000000000D+00 0.000000000000000D+00 -.376296094750685D+03
 0.337352821062346D+03 -.127930167334361D+03 -.190790300665903D+03 0.229618396458864D+03
 0.173443216382990D+03 0.565071687657737D+02 0.669618044764395D+02 -.149685022392396D+03
 0.148076381453940D+03 0.515587422995799D+02 0.116603500123518D+03 -.753122473169079D+02
 0.937197706020946D+02 0.198642562690075D+02 0.722499606594529D+01 -.462112674956022D+01
 0.000000000000000D+00 0.000000000000000D+00 0.000000000000000D+00 0.000000000000000D+00
 0.416899765058806D+03 0.000000000000000D+00 0.000000000000000D+00 0.416899765058806D+03
 0.378270236610044D+03 0.000000000000000D+00 0.000000000000000D+00 -.378270236610044D+03
 0.340932784009498D+03 -.135718316897696D+03 -.191770285327481D+03 0.229618396458864D+03
 0.171998344729967D+03 0.525407709486556D+02 0.664627117213655D+02 -.149685022392396D+03
 0.146594902780286D+03 0.481752943589547D+02 0.116177760086286D+03 -.753122473169079D+02
 0.932677687190230D+02 0.177172448746575D+02 0.695483712541822D+01 -.462112674956022D+01
 0.423762014300756D+02 0.172850067154282D+02 0.217497639441132D+01 0.386295284487618D+02
-.509072744385D-04 0.000000000000D+00 0.000000000000D+00 0.316505201234D-07 0.000000000000D+00  7 -2 2 23 -13 13 23 21 2 0.17966134D-01 0.20712905D+00 0.82105093D+05 0.82105093D+05 0.82105093D+05 0.11288174D+01  1  2 13  1  7  1       -2 -.313118873201D-02 0.100000000000D+01
0.516605141419D-04 0.000000000000D+00 0.000000000000D+00 0.316505201234D-07 0.711461905973D-09  7 -2 2 23 -13 13 23 21 2 0.17926423D-01 0.20821570D+00 0.82105093D+05 0.82105093D+05 0.82105093D+05 0.11288174D+01  1  2  1  1  7  1       -2 0.316068989551D-02 0.100000000000D+01
  </mgrwgt>
  </event>
  <event>
  9     66 0.53686478E-06 0.30789652E+03 0.75467711E-02 0.94203896E-01
       21 -1    0    0  502  501 0.00000000E+00 0.00000000E+00 0.37065761E+03 0.37065836E+03 0.75000000E+00 0.0000E+00 0.9000E+01
        2 -1    0    0  501    0 0.00000000E+00 0.00000000E+00 -.90206566E+03 0.90206571E+03 0.32000000E+00 0.0000E+00 0.9000E+01
       25  2    1    2    0    0 -.18165787E+03 -.26047384E+03 0.85772393E+00 0.43619820E+03 0.29903499E+03 0.0000E+00 0.0000E+00
       23  2    1    2    0    0 0.24744723E+03 -.72719612E+02 -.11017248E+03 0.29476120E+03 0.90707884E+02 0.0000E+00 0.0000E+00
       23  1    3    3    0    0 0.46896679E+02 -.91070169E+02 0.78624121E+01 0.13736864E+03 0.91188000E+02 0.0000E+00 0.9000E+01
      -11  1    4    4    0    0 0.19488774E+02 0.75085364E+01 -.36610716E+02 0.42148961E+02 0.51099893E-03 0.0000E+00 0.9000E+01
       11  1    4    4    0    0 0.22795845E+03 -.80228149E+02 -.73561761E+02 0.25261224E+03 0.51099893E-03 0.0000E+00 0.9000E+01
       23  1    3    3    0    0 -.22855455E+03 -.16940367E+03 -.70046881E+01 0.29882956E+03 0.91188000E+02 0.0000E+00 0.9000E+01
        2  1    1    2  502    0 -.65789352E+02 0.33319345E+03 -.42209330E+03 0.54176468E+03 0.32000000E+00 0.0000E+00 0.9000E+01
#aMCatNLO 2  0  0  1  2 0.33962644D+03 0.00000000D+00  -5  7  0 0.00000000D+00 0.00000000D+00 0.00000000D+00 0.00000000D+00 0.00000000D+00
  <mgrwgt>
 0.6887366777D-04    1    2    0
 0.318985034820520D+03 0.000000000000000D+00 0.000000000000000D+00 0.318985034820520D+03
 0.318985034820520D+03 0.000000000000000D+00 0.000000000000000D+00 -.318985034820520D+03
 0.106338984240876D+03 0.349805463595806D+02 -.307203227020093D+02 0.287289292325872D+02
 0.439311036163025D+02 0.155714128592318D+02 0.273482046026636D+02 -.306520581939371D+02
 0.211419279951962D+03 0.205921881035470D+03 0.313771602988051D+02 -.361906708669878D+02
 0.276280701831900D+03 -.256473840254283D+03 -.280050421994593D+02 0.381137998283376D+02
 0.000000000000000D+00 -.000000000000000D+00 0.000000000000000D+00 -.000000000000000D+00
 0.430935973981502D+03 0.000000000000000D+00 0.000000000000000D+00 0.430935973981502D+03
 0.775887748756081D+03 0.000000000000000D+00 0.000000000000000D+00 -.775887748756081D+03
 0.140120222907831D+03 0.468966787953627D+02 -.910701689185535D+02 0.287289292325872D+02
 0.370909569033610D+02 0.194887735232614D+02 0.750853641141226D+01 -.306520581939371D+02
 0.244359112972991D+03 0.227958451526362D+03 -.802281485069155D+02 -.361906708669878D+02
 0.301168889307276D+03 -.228554551368269D+03 -.169403671312263D+03 0.381137998283376D+02
 0.484084540646124D+03 -.657893524767167D+02 0.333193452326319D+03 -.344951774774579D+03
0.533241642918D-06 0.000000000000D+00 0.000000000000D+00 0.957652445347D-07 0.742916488295D-12  7 21 2 23 -11 11 23 2 2 0.57024304D-01 0.13877938D+00 0.26939565D+06 0.26939565D+06 0.26939565D+06 0.10880262D+01  1  2  1  3  7  1       -2 0.688736677676D-04 0.100000000000D+01
  </mgrwgt>
  </event>
  <event>
  8     66 0.53686478E-06 0.21015619E+03 0.75467711E-02 0.95893281E-01
       -2 -1    0    0    0  501 0.00000000E+00 0.00000000E+00 0.14824239E+03 0.14824274E+03 0.32000000E+00 0.0000E+00 0.9000E+01
        2 -1    0    0  501    0 0.00000000E+00 0.00000000E+00 -.13976454E+04 0.13976454E+04 0.32000000E+00 0.0000E+00 0.9000E+01
       25  2    1    2    0    0 0.21997758E+03 -.32603723E+03 -.54609041E+03 0.73682336E+03 0.30000587E+03 0.0000E+00 0.0000E+00
       23  2    1    2    0    0 -.21997758E+03 0.32603723E+03 -.70331261E+03 0.80906482E+03 0.72435116E+02 0.0000E+00 0.0000E+00
       23  1    3    3    0    0 0.12475462E+03 -.78621395E+02 -.36215641E+03 0.40151906E+03 0.91188000E+02 0.0000E+00 0.9000E+01
      -13  1    4    4    0    0 -.20800954E+03 0.29692409E+03 -.67732731E+03 0.76824747E+03 0.10565837E+00 0.0000E+00 0.9000E+01
       13  1    4    4    0    0 -.11968036E+02 0.29113141E+02 -.25985301E+02 0.40817348E+02 0.10565837E+00 0.0000E+00 0.9000E+01
       23  1    3    3    0    0 0.95222961E+02 -.24741583E+03 -.18393399E+03 0.33530430E+03 0.91188000E+02 0.0000E+00 0.9000E+01
#aMCatNLO 1  0  0  1  2 0.46346437D+02 0.00000000D+00  -5  7  0 0.00000000D+00 0.00000000D+00 0.00000000D+00 0.00000000D+00 0.00000000D+00
  <mgrwgt>
 0.2424431154D-02    6    2    0
 0.455181932824847D+03 0.000000000000000D+00 0.000000000000000D+00 0.455181932824847D+03
 0.455181932824847D+03 0.000000000000000D+00 0.000000000000000D+00 -.455181932824847D+03
 0.184787932486945D+03 0.124754615811933D+03 -.786213955447814D+02 -.639241006585748D+02
 0.374982550745398D+03 -.208009957565706D+03 0.296924658966464D+03 -.958098002016883D+02
 0.336483931067951D+02 -.119676190459457D+02 0.291125712984172D+02 0.118932184641128D+02
 0.316944989310555D+03 0.952229607997187D+02 -.247415834720100D+03 0.147840682396150D+03
 0.000000000000000D+00 0.000000000000000D+00 0.000000000000000D+00 -.000000000000000D+00
 0.477420158779784D+03 0.000000000000000D+00 0.000000000000000D+00 0.477420158779784D+03
 0.480576477038767D+03 0.000000000000000D+00 0.000000000000000D+00 -.480576477038767D+03
 0.182276392545641D+03 0.117227800400304D+03 -.841473951097202D+02 -.639241006585748D+02
 0.375058431100511D+03 -.223389877750022D+03 0.285633106350996D+03 -.958098002016883D+02
 0.333059676407109D+02 -.133405476581321D+02 0.281046014600826D+02 0.118932184641128D+02
 0.320902054729018D+03 0.821436266505535D+02 -.257018354625970D+03 0.147840682396150D+03
 0.464537898026709D+02 0.373589983572967D+02 0.274280419246114D+02 -.315631825898263D+01
0.531987252951D-04 0.000000000000D+00 0.000000000000D+00 0.478096941755D-08 0.000000000000D+00  7 -2 2 23 -13 13 23 21 0 0.22806551D-01 0.21502240D+00 0.17966728D+06 0.17966728D+06 0.17966728D+06 0.11014194D+01  1  2  2  1  7  1       -2 0.159260049331D-02 0.100000000000D+01
-.293723412875D-05 0.000000000000D+00 -.204297112679D-06 0.478096941755D-08 0.000000000000D+00  7 -2 2 23 -13 13 23 21 2 0.22806551D-01 0.21502240D+00 0.17966728D+06 0.17966728D+06 0.17966728D+06 0.11014194D+01  1  2  3  1  7  1       -2 -.106671799990D-03 0.100000000000D+01
0.325081248623D-05 0.000000000000D+00 0.000000000000D+00 0.478096941755D-08 0.000000000000D+00  7 -2 2 23 -13 13 23 21 2 0.22806551D-01 0.21502240D+00 0.17966728D+06 0.17966728D+06 0.17966728D+06 0.11014194D+01  1  2 15  1  7  1       -2 0.118060053824D-03 0.100000000000D+01
0.829119882779D-04 0.000000000000D+00 0.000000000000D+00 0.478096941755D-08 0.000000000000D+00  7 -2 2 23 -13 13 23 21 2 0.24524748D-01 0.21502240D+00 0.20051980D+06 0.20051980D+06 0.20051980D+06 0.10977388D+01  1  2 12  1  7  1       -2 0.263542966541D-02 0.100000000000D+01
-.607698840519D-04 0.000000000000D+00 0.000000000000D+00 0.478096941755D-08 0.000000000000D+00  7 -2 2 23 -13 13 23 21 2 0.22806551D-01 0.21502240D+00 0.17966728D+06 0.17966728D+06 0.17966728D+06 0.11014194D+01  1  2  4  1  7  1       -2 -.220698542670D-02 0.100000000000D+01
0.101690858424D-05 0.000000000000D+00 0.000000000000D+00 0.478096941755D-08 0.000000000000D+00  7 21 2 23 -13 13 23 2 2 0.24524748D-01 0.21502240D+00 0.20051980D+06 0.20051980D+06 0.20051980D+06 0.10977388D+01  1  2 12  3  7  1       -2 0.391998168055D-03 0.100000000000D+01
  </mgrwgt>
  </event>
  <event>
  7     66 0.53686478E-06 0.27600255E+03 0.75467711E-02 0.10153175E+00
       -2 -1    0    0    0  501 0.00000000E+00 0.00000000E+00 0.58210835E+03 0.58210843E+03 0.32000000E+00 0.0000E+00 0.9000E+01
        2 -1    0    0  501    0 0.00000000E+00 0.00000000E+00 -.16047704E+03 0.16047736E+03 0.32000000E+00 0.0000E+00 0.9000E+01
       25  2    1    2    0    0 -.28886678E+02 0.78574904E+01 0.27231374E+03 0.40683335E+03 0.30076972E+03 0.0000E+00 0.0000E+00
       23  1    3    3    0    0 0.90562291E+02 0.37952355E+02 0.64775531E+02 0.14883894E+03 0.91188000E+02 0.0000E+00 0.9000E+01
      -13  1    1    2    0    0 -.11303596E+03 -.38808848E+02 0.14833547E+03 0.19049062E+03 0.10565837E+00 0.0000E+00 0.9000E+01
       13  1    1    2    0    0 0.14192263E+03 0.30951358E+02 0.98210750E+00 0.14526182E+03 0.10565837E+00 0.0000E+00 0.9000E+01
       23  1    3    3    0    0 -.11944897E+03 -.30094864E+02 0.20753821E+03 0.25799441E+03 0.91188000E+02 0.0000E+00 0.9000E+01
#aMCatNLO 1  0  0  2  2 0.14969123D+02 0.00000000D+00  -5  7  0 0.00000000D+00 0.00000000D+00 0.00000000D+00 0.00000000D+00 0.00000000D+00
  <mgrwgt>
 0.2826342753D-03    4    2    0
 0.305638958768449D+03 0.000000000000000D+00 0.000000000000000D+00 0.305638958768449D+03
 0.305638958768449D+03 0.000000000000000D+00 0.000000000000000D+00 -.305638958768449D+03
 0.136098442898515D+03 0.905251265381553D+02 0.379622321268298D+02 -.239082666163819D+02
 0.129012141223116D+03 -.112973868873051D+03 -.388107222632912D+02 0.487315644344546D+02
 0.175839193219216D+03 0.141943342322861D+03 0.309307106158360D+02 -.990696753956494D+02
 0.170328140196051D+03 -.119494599987965D+03 -.300822204793746D+02 0.742463775775767D+02
 0.000000000000000D+00 -.000000000000000D+00 0.000000000000000D+00 0.000000000000000D+00
 0.335251902394598D+03 0.000000000000000D+00 0.000000000000000D+00 0.335251902394598D+03
 0.307628153365397D+03 0.000000000000000D+00 0.000000000000000D+00 -.307628153365397D+03
 0.137338175136166D+03 0.931868632723720D+02 0.359322460554384D+02 -.239082666163819D+02
 0.127427372450575D+03 -.110477588460589D+03 -.407145222907108D+02 0.487315644344546D+02
 0.178196457973962D+03 0.145389660905852D+03 0.283023594978926D+02 -.990696753956494D+02
 0.168499168267731D+03 -.116196325236119D+03 -.325976652714151D+02 0.742463775775767D+02
 0.314188819315608D+02 -.119026104815157D+02 0.907758200879496D+01 0.276237490292008D+02
0.127669861135D-04 0.000000000000D+00 0.000000000000D+00 0.312203117165D-10 0.000000000000D+00  7 -2 2 23 -13 13 23 21 0 0.89555161D-01 0.24688806D-01 0.76177407D+05 0.76177407D+05 0.76177407D+05 0.11315505D+01  1  2  2  2  7  2        2 0.380934936636D-03 0.100000000000D+01
-.700305811201D-06 0.000000000000D+00 -.490285883006D-07 0.312203117165D-10 0.000000000000D+00  7 -2 2 23 -13 13 23 21 2 0.89555161D-01 0.24688806D-01 0.76177407D+05 0.76177407D+05 0.76177407D+05 0.11315505D+01  1  2  3  2  7  2        2 -.267545746862D-04 0.100000000000D+01
0.801462605837D-06 0.000000000000D+00 0.000000000000D+00 0.312203117165D-10 0.000000000000D+00  7 -2 2 23 -13 13 23 21 2 0.89555161D-01 0.24688806D-01 0.76177407D+05 0.76177407D+05 0.76177407D+05 0.11315505D+01  1  2 15  2  7  2        2 0.306191820818D-04 0.100000000000D+01
-.267419430888D-05 0.000000000000D+00 0.000000000000D+00 0.312203117165D-10 0.000000000000D+00  7 -2 2 23 -13 13 23 21 2 0.89555161D-01 0.24688806D-01 0.76177407D+05 0.76177407D+05 0.76177407D+05 0.11315505D+01  1  2  4  2  7  2        2 -.102165268684D-03 0.100000000000D+01
  </mgrwgt>
  </event>
  <event>
  8     66 0.53686478E-06 0.16900571E+03 0.75467711E-02 0.99239192E-01
       -2 -1    0    0    0  501 0.00000000E+00 0.00000000E+00 0.74572720E+02 0.74573407E+02 0.32000000E+00 0.0000E+00 0.9000E+01
        2 -1    0    0  501    0 0.00000000E+00 0.00000000E+00 -.14732701E+04 0.14732701E+04 0.32000000E+00 0.0000E+00 0.9000E+01
       25  2    1    2    0    0 0.97471200E+02 -.22936770E+03 -.71008588E+03 0.80975478E+03 0.29894929E+03 0.0000E+00 0.0000E+00
       23  2    1    2    0    0 -.97471200E+02 0.22936770E+03 -.68861147E+03 0.73808873E+03 0.92081692E+02 0.0000E+00 0.0000E+00
       23  1    3    3    0    0 0.10987382E+02 -.99919586E+02 -.87326841E+02 0.16138734E+03 0.91188000E+02 0.0000E+00 0.9000E+01
      -11  1    4    4    0    0 -.45485081E+02 0.11499881E+03 -.46952675E+03 0.48553989E+03 0.51099893E-03 0.0000E+00 0.9000E+01
       11  1    4    4    0    0 -.51986118E+02 0.11436889E+03 -.21908472E+03 0.25254883E+03 0.51099893E-03 0.0000E+00 0.9000E+01
       23  1    3    3    0    0 0.86483818E+02 -.12944811E+03 -.62275904E+03 0.64836744E+03 0.91188000E+02 0.0000E+00 0.9000E+01
#aMCatNLO 1  0  0  1  2 0.10211496D+03 0.00000000D+00  -5  7  0 0.00000000D+00 0.00000000D+00 0.00000000D+00 0.00000000D+00 0.00000000D+00
  <mgrwgt>
 0.1944901559D-03    9    2    0
 0.331460880080187D+03 0.000000000000000D+00 0.000000000000000D+00 0.331460880080187D+03
 0.331460880080187D+03 0.000000000000000D+00 0.000000000000000D+00 -.331460880080187D+03
 0.192569530066480D+03 0.109873817164456D+02 -.999195862933583D+02 0.136613053124532D+03
 0.143024347972655D+03 -.454850812782684D+02 0.114998809632124D+03 -.718494626097294D+02
 0.127425080304916D+03 -.519861184361539D+02 0.114368890027822D+03 0.213155242595718D+02
 0.199902801816323D+03 0.864838179979767D+02 -.129448113366588D+03 -.860791147743748D+02
 0.000000000000000D+00 -.000000000000000D+00 0.000000000000000D+00 0.000000000000000D+00
 0.602413601578569D+03 0.000000000000000D+00 0.000000000000000D+00 0.602413601578569D+03
 0.345132172786750D+03 0.000000000000000D+00 0.000000000000000D+00 -.345132172786750D+03
 0.200868582908465D+03 0.398510838280819D+02 -.108543544669297D+03 0.136613053124532D+03
 0.132926878410204D+03 -.252405403123992D+02 0.108950102575961D+03 -.718494626097294D+02
 0.116211913808350D+03 -.341122384292426D+02 0.109028494100788D+03 0.213155242595718D+02
 0.220733055255859D+03 0.117342821423447D+03 -.138668232117638D+03 -.860791147743748D+02
 0.276805343982442D+03 -.978411265098868D+02 0.292331801101860D+02 0.257281428791819D+03
0.258268731996D-05 0.000000000000D+00 0.000000000000D+00 0.867104577624D-07 0.000000000000D+00  7 -2 2 23 -11 11 23 21 0 0.11472782D-01 0.22665699D+00 0.79929834D+05 0.79929834D+05 0.79929834D+05 0.11297944D+01  1  2  2  1  7  1       -2 0.217079328552D-03 0.100000000000D+01
-.139069064080D-06 0.000000000000D+00 -.991819934583D-08 0.867104577624D-07 0.000000000000D+00  7 -2 2 23 -11 11 23 21 2 0.11472782D-01 0.22665699D+00 0.79929834D+05 0.79929834D+05 0.79929834D+05 0.11297944D+01  1  2  3  1  7  1       -2 -.149202474642D-04 0.100000000000D+01
0.166583456567D-06 0.000000000000D+00 0.000000000000D+00 0.867104577624D-07 0.000000000000D+00  7 -2 2 23 -11 11 23 21 2 0.11472782D-01 0.22665699D+00 0.79929834D+05 0.79929834D+05 0.79929834D+05 0.11297944D+01  1  2 15  1  7  1       -2 0.178721731671D-04 0.100000000000D+01
0.604878844704D-05 0.000000000000D+00 0.000000000000D+00 0.867104577624D-07 0.000000000000D+00  7 -2 2 23 -11 11 23 21 2 0.20910755D-01 0.22665699D+00 0.11516065D+06 0.11516065D+06 0.11516065D+06 0.11167258D+01  1  2 12  1  7  1       -2 0.240137404854D-03 0.100000000000D+01
-.614181294460D-05 0.000000000000D+00 0.000000000000D+00 0.867104577624D-07 0.000000000000D+00  7 -2 2 23 -11 11 23 21 2 0.11472782D-01 0.22665699D+00 0.79929834D+05 0.79929834D+05 0.79929834D+05 0.11297944D+01  1  2  4  1  7  1       -2 -.658934246940D-03 0.100000000000D+01
-.682391152190D-05 0.000000000000D+00 -.848403257106D-06 0.867104577624D-07 0.000000000000D+00  7 -2 2 23 -11 11 23 21 2 0.21556447D-01 0.22665699D+00 0.79929834D+05 0.79929834D+05 0.79929834D+05 0.11297944D+01  1  2  5  1  7  1       -2 -.265968842415D-03 0.100000000000D+01
0.622416052247D-05 0.000000000000D+00 0.703735874623D-06 0.867104577624D-07 0.000000000000D+00  7 -2 2 23 -11 11 23 21 2 0.11472782D-01 0.22665699D+00 0.79929834D+05 0.79929834D+05 0.79929834D+05 0.11297944D+01  1  2  6  1  7  1       -2 0.667769038833D-03 0.100000000000D+01
0.397179759792D-06 0.000000000000D+00 0.000000000000D+00 0.867104577624D-07 0.000000000000D+00  7 21 2 23 -11 11 23 2 2 0.20910755D-01 0.22665699D+00 0.11516065D+06 0.11516065D+06 0.11516065D+06 0.11167258D+01  1  2 12  3  7  1       -2 0.199945464426D-03 0.100000000000D+01
-.420522848824D-06 0.000000000000D+00 -.582278004509D-07 0.867104577624D-07 0.000000000000D+00  7 21 2 23 -11 11 23 2 2 0.21556447D-01 0.22665699D+00 0.79929834D+05 0.79929834D+05 0.79929834D+05 0.11297944D+01  1  2  5  3  7  1       -2 -.208489917147D-03 0.100000000000D+01
  </mgrwgt>
  </event>
  <event>
  8     66 0.53686478E-06 0.22265321E+03 0.75467711E-02 0.95769522E-01
       -2 -1    0    0    0  501 0.00000000E+00 0.00000000E+00 0.27224279E+03 0.27224298E+03 0.32000000E+00 0.0000E+00 0.9000E+01
        2 -1    0    0  501    0 0.00000000E+00 0.00000000E+00 -.20480328E+03 0.20480353E+03 0.32000000E+00 0.0000E+00 0.9000E+01
       25  2    1    2    0    0 0.90674630E+02 0.74137421E+02 0.70820837E+02 0.32831656E+03 0.29842575E+03 0.0000E+00 0.0000E+00
       23  2    1    2    0    0 -.90674630E+02 -.74137421E+02 -.33813195E+01 0.14872995E+03 0.91601958E+02 0.0000E+00 0.0000E+00
       23  1    3    3    0    0 -.21593129E+02 0.11341674E+03 -.26676427E+02 0.14952091E+03 0.91188000E+02 0.0000E+00 0.9000E+01
      -13  1    4    4    0    0 -.45917703E+01 0.20132967E+02 0.32162371E+01 0.20899188E+02 0.10565837E+00 0.0000E+00 0.9000E+01
       13  1    4    4    0    0 -.86082859E+02 -.94270388E+02 -.65975566E+01 0.12783076E+03 0.10565837E+00 0.0000E+00 0.9000E+01
       23  1    3    3    0    0 0.11226776E+03 -.39279320E+02 0.97497264E+02 0.17879564E+03 0.91188000E+02 0.0000E+00 0.9000E+01
#aMCatNLO 1  0  0  2  2 0.34479533D+03 0.00000000D+00  -5  7  0 0.00000000D+00 0.00000000D+00 0.00000000D+00 0.00000000D+00 0.00000000D+00
  <mgrwgt>
 0.2842737449D-03    3    2    0
 0.236127762450010D+03 0.000000000000000D+00 0.000000000000000D+00 0.236127762450010D+03
 0.236127762450010D+03 0.000000000000000D+00 0.000000000000000D+00 -.236127762450010D+03
 0.154847263336342D+03 -.215931234594104D+02 0.113416745507824D+03 -.482990939504547D+02
 0.206517642992030D+02 -.459166572964940D+01 0.201331083322539D+02 0.264430290862260D+00
 0.130069891329058D+03 -.860829747585285D+02 -.942705384997106D+02 -.249191424019801D+02
 0.166686605935417D+03 0.112267763947588D+03 -.392793153403668D+02 0.729538060615725D+02
 0.000000000000000D+00 0.000000000000000D+00 -.000000000000000D+00 0.000000000000000D+00
 0.614024518043570D+03 0.000000000000000D+00 0.000000000000000D+00 0.614024518043570D+03
 0.384763765146062D+03 0.000000000000000D+00 0.000000000000000D+00 -.384763765146062D+03
 0.275999832179633D+03 -.448761150297883D+02 0.252019816368840D+03 -.482990939504547D+02
 0.406217852751836D+02 -.790289041486879D+01 0.398447466883023D+02 0.264430290862260D+00
 0.103583456236007D+03 -.987096095400232D+02 -.191044950784577D+02 -.249191424019801D+02
 0.164524864713243D+03 0.943690849048761D+02 0.672710766991115D+02 0.729538060615725D+02
 0.414058344785565D+03 0.571195300798042D+02 -.340031144677796D+03 0.229260752897508D+03
0.258864746601D-05 0.000000000000D+00 0.000000000000D+00 0.203265201613D-07 0.000000000000D+00  7 -2 2 23 -13 13 23 21 0 0.41883540D-01 0.31508230D-01 0.49574450D+05 0.49574450D+05 0.49574450D+05 0.11476220D+01  1  2  2  2  7  2        2 0.281094762882D-03 0.100000000000D+01
-.143210063686D-06 0.000000000000D+00 -.994108787602D-08 0.203265201613D-07 0.000000000000D+00  7 -2 2 23 -13 13 23 21 2 0.41883540D-01 0.31508230D-01 0.49574450D+05 0.49574450D+05 0.49574450D+05 0.11476220D+01  1  2  3  2  7  2        2 -.204809994932D-04 0.100000000000D+01
0.165438579287D-06 0.000000000000D+00 0.000000000000D+00 0.203265201613D-07 0.000000000000D+00  7 -2 2 23 -13 13 23 21 2 0.41883540D-01 0.31508230D-01 0.49574450D+05 0.49574450D+05 0.49574450D+05 0.11476220D+01  1  2 15  2  7  2        2 0.236599815076D-04 0.100000000000D+01
  </mgrwgt>
  </event>
  <event>
  8     66 0.53686478E-06 0.15715827E+03 0.75467711E-02 0.93031135E-01
       -2 -1    0    0    0  501 0.00000000E+00 0.00000000E+00 0.34679820E+03 0.34679835E+03 0.32000000E+00 0.0000E+00 0.9000E+01
        2 -1    0    0  501    0 0.00000000E+00 0.00000000E+00 -.20545107E+03 0.20545132E+03 0.32000000E+00 0.0000E+00 0.9000E+01
       25  2    1    2    0    0 0.25399024E+02 -.54400513E+02 0.25440860E+03 0.39776754E+03 0.29981787E+03 0.0000E+00 0.0000E+00
       23  2    1    2    0    0 -.25399024E+02 0.54400513E+02 -.11306146E+03 0.15448213E+03 0.86471425E+02 0.0000E+00 0.0000E+00
       23  1    3    3    0    0 -.29543113E+02 -.10190986E+02 -.21484924E+02 0.98759835E+02 0.91188000E+02 0.0000E+00 0.9000E+01
      -11  1    4    4    0    0 -.83050950E+01 0.75237981E+02 -.66864806E+02 0.10099817E+03 0.51099893E-03 0.0000E+00 0.9000E+01
       11  1    4    4    0    0 -.17093929E+02 -.20837468E+02 -.46196658E+02 0.53483957E+02 0.51099893E-03 0.0000E+00 0.9000E+01
       23  1    3    3    0    0 0.54942137E+02 -.44209527E+02 0.27589352E+03 0.29900770E+03 0.91188000E+02 0.0000E+00 0.9000E+01
#aMCatNLO 1  0  0  1  2 0.53661177D+03 0.00000000D+00  -5  7  0 0.00000000D+00 0.00000000D+00 0.00000000D+00 0.00000000D+00 0.00000000D+00
  <mgrwgt>
 0.2602308650D-03    3    2    0
 0.266927276665826D+03 0.000000000000000D+00 0.000000000000000D+00 0.266927276665826D+03
 0.266927276665826D+03 0.000000000000000D+00 0.000000000000000D+00 -.266927276665826D+03
 0.107851320611710D+03 -.295431131982453D+02 -.101909856858222D+02 -.483735908011471D+02
 0.122181884867895D+03 -.830509503333963D+01 0.752379809581062D+02 -.959097732648052D+02
 0.675582189176806D+02 -.170939289301847D+02 -.208374682252991D+02 -.619492570981985D+02
 0.236263128934366D+03 0.549421371617696D+02 -.442095270469849D+02 0.206232621164151D+03
 0.000000000000000D+00 0.000000000000000D+00 0.000000000000000D+00 -.000000000000000D+00
 0.615902006057868D+03 0.000000000000000D+00 0.000000000000000D+00 0.615902006057868D+03
 0.681660401147580D+03 0.000000000000000D+00 0.000000000000000D+00 -.681660401147580D+03
 0.184322175774082D+03 -.143339481991526D+03 -.526611977977685D+02 -.483735908011471D+02
 0.154615932827734D+03 -.116112911051243D+03 0.350027708001841D+02 -.959097732648052D+02
 0.119209989738028D+03 -.898368170222029D+02 -.479860136460737D+02 -.619492570981985D+02
 0.298788410945885D+03 -.153450900224583D+03 -.121984385720452D+03 0.206232621164151D+03
 0.540625897919719D+03 0.502740110289555D+03 0.187628826364111D+03 -.657583950897123D+02
0.371362747179D-05 0.000000000000D+00 0.000000000000D+00 0.164406705346D-07 0.000000000000D+00  7 -2 2 23 -11 11 23 21 0 0.53353600D-01 0.31607887D-01 0.24698722D+05 0.24698722D+05 0.24698722D+05 0.11752531D+01  1  2  2  1  7  1       -2 0.252437890805D-03 0.100000000000D+01
-.135923645142D-06 0.000000000000D+00 -.142613073122D-07 0.164406705346D-07 0.000000000000D+00  7 -2 2 23 -11 11 23 21 2 0.53353600D-01 0.31607887D-01 0.24698722D+05 0.24698722D+05 0.24698722D+05 0.11752531D+01  1  2  3  1  7  1       -2 -.127618605390D-04 0.100000000000D+01
0.218924823686D-06 0.000000000000D+00 0.000000000000D+00 0.164406705346D-07 0.000000000000D+00  7 -2 2 23 -11 11 23 21 2 0.53353600D-01 0.31607887D-01 0.24698722D+05 0.24698722D+05 0.24698722D+05 0.11752531D+01  1  2 15  1  7  1       -2 0.205548347786D-04 0.100000000000D+01
  </mgrwgt>
  </event>
  <event>
  8     66 0.53686478E-06 0.29574435E+03 0.75467711E-02 0.92447360E-01
       -2 -1    0    0    0  501 0.00000000E+00 0.00000000E+00 0.45942579E+03 0.45942590E+03 0.32000000E+00 0.0000E+00 0.9000E+01
        2 -1    0    0  501    0 0.00000000E+00 0.00000000E+00 -.62994441E+03 0.62994449E+03 0.32000000E+00 0.0000E+00 0.9000E+01
       25  2    1    2    0    0 -.20246440E+03 -.38841251E+03 0.13477380E+03 0.54780500E+03 0.30011703E+03 0.0000E+00 0.0000E+00
       23  2    1    2    0    0 0.20246440E+03 0.38841251E+03 -.30529242E+03 0.54156539E+03 0.90738603E+02 0.0000E+00 0.0000E+00
       23  1    3    3    0    0 -.13313027E+03 -.17161703E+03 -.49958620E+02 0.24080529E+03 0.91188000E+02 0.0000E+00 0.9000E+01
      -11  1    4    4    0    0 0.15423334E+02 0.94944002E+02 -.93696126E+02 0.13428033E+03 0.51099893E-03 0.0000E+00 0.9000E+01
       11  1    4    4    0    0 0.18704107E+03 0.29346851E+03 -.21159629E+03 0.40728506E+03 0.51099893E-03 0.0000E+00 0.9000E+01
       23  1    3    3    0    0 -.69334126E+02 -.21679548E+03 0.18473242E+03 0.30699971E+03 0.91188000E+02 0.0000E+00 0.9000E+01
#aMCatNLO 1  0  0  1  2 0.25620125D+03 0.00000000D+00  -5  7  0 0.00000000D+00 0.00000000D+00 0.00000000D+00 0.00000000D+00 0.00000000D+00
  <mgrwgt>
 0.2610574460D-03    7    2    0
 0.537971012943607D+03 0.000000000000000D+00 0.000000000000000D+00 0.537971012943607D+03
 0.537971012943607D+03 0.000000000000000D+00 0.000000000000000D+00 -.537971012943607D+03
 0.235893082301454D+03 -.133130274795459D+03 -.171617027583152D+03 -.124185631250086D+02
 0.121106971585738D+03 0.154233337768872D+02 0.949440023415709D+02 -.735843445390336D+02
 0.378833769617847D+03 0.187041066938221D+03 0.293468509847820D+03 -.149689338328353D+03
 0.340108202382176D+03 -.693341259196494D+02 -.216795484606239D+03 0.235692245992395D+03
 0.000000000000000D+00 -.000000000000000D+00 0.000000000000000D+00 0.000000000000000D+00
 0.114096851464647D+04 0.000000000000000D+00 0.000000000000000D+00 0.114096851464647D+04
 0.580922127794582D+03 0.000000000000000D+00 0.000000000000000D+00 -.580922127794582D+03
 0.278134087214118D+03 -.124073638261001D+03 -.231289495448926D+03 -.124185631250086D+02
 0.102692204081548D+03 0.193664478979560D+02 0.689635680174893D+02 -.735843445390336D+02
 0.327019803710671D+03 0.199477489834328D+03 0.211527267885683D+03 -.149689338328353D+03
 0.398178462619100D+03 -.563262648965541D+02 -.302501824476438D+03 0.235692245992395D+03
 0.615866084815616D+03 -.384440345747294D+02 0.253300484022192D+03 0.560046386851889D+03
0.286237825291D-04 0.000000000000D+00 0.000000000000D+00 0.138050648362D-05 0.000000000000D+00  7 -2 2 23 -11 11 23 21 0 0.70680905D-01 0.96914539D-01 0.21388770D+06 0.21388770D+06 0.21388770D+06 0.10955931D+01  1  2  2  1  7  1       -2 0.307658818356D-03 0.100000000000D+01
-.154600751131D-05 0.000000000000D+00 -.109922861727D-06 0.138050648362D-05 0.000000000000D+00  7 -2 2 23 -11 11 23 21 2 0.70680905D-01 0.96914539D-01 0.21388770D+06 0.21388770D+06 0.21388770D+06 0.10955931D+01  1  2  3  1  7  1       -2 -.199458500523D-04 0.100000000000D+01
0.178430775784D-05 0.000000000000D+00 0.000000000000D+00 0.138050648362D-05 0.000000000000D+00  7 -2 2 23 -11 11 23 21 2 0.70680905D-01 0.96914539D-01 0.21388770D+06 0.21388770D+06 0.21388770D+06 0.10955931D+01  1  2 15  1  7  1       -2 0.230202859461D-04 0.100000000000D+01
0.238453629961D-04 0.000000000000D+00 0.000000000000D+00 0.138050648362D-05 0.000000000000D+00  7 -2 2 23 -11 11 23 21 2 0.14961805D+00 0.96914539D-01 0.37049563D+06 0.37049563D+06 0.37049563D+06 0.10778348D+01  1  2 12  1  7  1       -2 0.467237645978D-04 0.100000000000D+01
-.421883942752D-04 0.000000000000D+00 -.834985893071D-05 0.138050648362D-05 0.000000000000D+00  7 -2 2 23 -11 11 23 21 2 0.15510685D+00 0.96914539D-01 0.21388770D+06 0.21388770D+06 0.21388770D+06 0.10955931D+01  1  2  5  1  7  1       -2 -.792117361346D-04 0.100000000000D+01
0.193435504550D-05 0.000000000000D+00 0.000000000000D+00 0.138050648362D-05 0.000000000000D+00  7 21 2 23 -11 11 23 2 2 0.14961805D+00 0.96914539D-01 0.37049563D+06 0.37049563D+06 0.37049563D+06 0.10778348D+01  1  2 12  3  7  1       -2 0.320554265792D-04 0.100000000000D+01
-.306767520165D-05 0.000000000000D+00 -.711180216056D-06 0.138050648362D-05 0.000000000000D+00  7 21 2 23 -11 11 23 2 2 0.15510685D+00 0.96914539D-01 0.21388770D+06 0.21388770D+06 0.21388770D+06 0.10955931D+01  1  2  5  3  7  1       -2 -.492432633016D-04 0.100000000000D+01
  </mgrwgt>
  </event>
  <event>
  8     66 0.53686478E-06 0.27507700E+03 0.75467711E-02 0.92839314E-01
       -2 -1    0    0    0  501 0.00000000E+00 0.00000000E+00 0.23021015E+03 0.23021038E+03 0.32000000E+00 0.0000E+00 0.9000E+01
        2 -1    0    0  501    0 0.00000000E+00 0.00000000E+00 -.12491523E+04 0.12491524E+04 0.32000000E+00 0.0000E+00 0.9000E+01
       25  2    1    2    0    0 -.43594976E+03 0.22256744E+03 -.53429193E+03 0.78483640E+03 0.30151591E+03 0.0000E+00 0.0000E+00
       23  2    1    2    0    0 0.43594976E+03 -.22256744E+03 -.48465025E+03 0.69452635E+03 0.88839941E+02 0.0000E+00 0.0000E+00
       23  1    3    3    0    0 -.24333702E+03 0.49387072E+02 -.12649928E+03 0.29320523E+03 0.91188000E+02 0.0000E+00 0.9000E+01
      -13  1    4    4    0    0 0.17665256E+03 -.10663226E+03 -.26275630E+03 0.33409198E+03 0.10565837E+00 0.0000E+00 0.9000E+01
       13  1    4    4    0    0 0.25929720E+03 -.11593518E+03 -.22189395E+03 0.36043438E+03 0.10565837E+00 0.0000E+00 0.9000E+01
       23  1    3    3    0    0 -.19261274E+03 0.17318036E+03 -.40779265E+03 0.49163116E+03 0.91188000E+02 0.0000E+00 0.9000E+01
#aMCatNLO 1  0  0  1  2 0.13390268D+03 0.00000000D+00  -5  7  0 0.00000000D+00 0.00000000D+00 0.00000000D+00 0.00000000D+00 0.00000000D+00
  <mgrwgt>
 0.3014896674D-03    9    2    0
 0.536253432888143D+03 0.000000000000000D+00 0.000000000000000D+00 0.536253432888143D+03
 0.536253432888143D+03 0.000000000000000D+00 0.000000000000000D+00 -.536253432888143D+03
 0.284251276229627D+03 -.243337022284474D+03 0.493870726218929D+02 0.104074719974338D+03
 0.211196443008348D+03 0.176652441523394D+03 -.106632246957910D+03 -.450268403500570D+02
 0.286353596664873D+03 0.259297317621732D+03 -.115935189207834D+03 0.363636535626839D+02
 0.290705549873439D+03 -.192612736860652D+03 0.173180363543852D+03 -.954115331869649D+02
 0.000000000000000D+00 0.000000000000000D+00 -.000000000000000D+00 0.000000000000000D+00
 0.700780681492053D+03 0.000000000000000D+00 0.000000000000000D+00 0.700780681492053D+03
 0.568368644646283D+03 0.000000000000000D+00 0.000000000000000D+00 -.568368644646283D+03
 0.307103863626369D+03 -.261881861015522D+03 0.811410823415221D+02 0.104074719974338D+03
 0.190217360991071D+03 0.164064144309306D+03 -.850775212529900D+02 -.450268403500570D+02
 0.259751457860593D+03 0.242171517093726D+03 -.866109742977163D+02 0.363636535626839D+02
 0.323760748691431D+03 -.211882339244296D+03 0.206175373651931D+03 -.954115331869649D+02
 0.188315894968873D+03 0.675285388567859D+02 -.115627960442747D+03 0.132412036845770D+03
0.140735442899D-04 0.000000000000D+00 0.000000000000D+00 0.448089031719D-07 0.000000000000D+00  7 -2 2 23 -13 13 23 21 0 0.35416967D-01 0.19217730D+00 0.26496319D+06 0.26496319D+06 0.26496319D+06 0.10885650D+01  1  2  2  1  7  1       -2 0.232910408049D-03 0.100000000000D+01
-.780270717337D-06 0.000000000000D+00 -.540461157227D-07 0.448089031719D-07 0.000000000000D+00  7 -2 2 23 -13 13 23 21 2 0.35416967D-01 0.19217730D+00 0.26496319D+06 0.26496319D+06 0.26496319D+06 0.10885650D+01  1  2  3  1  7  1       -2 -.153016908908D-04 0.100000000000D+01
0.849505848332D-06 0.000000000000D+00 0.000000000000D+00 0.448089031719D-07 0.000000000000D+00  7 -2 2 23 -13 13 23 21 2 0.35416967D-01 0.19217730D+00 0.26496319D+06 0.26496319D+06 0.26496319D+06 0.10885650D+01  1  2 15  1  7  1       -2 0.166594434627D-04 0.100000000000D+01
0.193953608174D-04 0.000000000000D+00 0.000000000000D+00 0.448089031719D-07 0.000000000000D+00  7 -2 2 23 -13 13 23 21 2 0.47102769D-01 0.19217730D+00 0.34469900D+06 0.34469900D+06 0.34469900D+06 0.10801172D+01  1  2 12  1  7  1       -2 0.216442021738D-03 0.100000000000D+01
-.202158895691D-04 0.000000000000D+00 0.000000000000D+00 0.448089031719D-07 0.000000000000D+00  7 -2 2 23 -13 13 23 21 2 0.35416967D-01 0.19217730D+00 0.26496319D+06 0.26496319D+06 0.26496319D+06 0.10885650D+01  1  2  4  1  7  1       -2 -.396448676588D-03 0.100000000000D+01
-.292600910722D-04 0.000000000000D+00 -.679782550124D-05 0.448089031719D-07 0.000000000000D+00  7 -2 2 23 -13 13 23 21 2 0.48542545D-01 0.19217730D+00 0.26496319D+06 0.26496319D+06 0.26496319D+06 0.10885650D+01  1  2  5  1  7  1       -2 -.315611814361D-03 0.100000000000D+01
0.302136251480D-04 0.000000000000D+00 0.647347792900D-05 0.448089031719D-07 0.000000000000D+00  7 -2 2 23 -13 13 23 21 2 0.35416967D-01 0.19217730D+00 0.26496319D+06 0.26496319D+06 0.26496319D+06 0.10885650D+01  1  2  6  1  7  1       -2 0.592511730137D-03 0.100000000000D+01
0.722660611226D-06 0.000000000000D+00 0.000000000000D+00 0.448089031719D-07 0.000000000000D+00  7 21 2 23 -13 13 23 2 2 0.47102769D-01 0.19217730D+00 0.34469900D+06 0.34469900D+06 0.34469900D+06 0.10801172D+01  1  2 12  3  7  1       -2 0.847911892177D-04 0.100000000000D+01
-.100776374531D-05 0.000000000000D+00 -.272342892717D-06 0.448089031719D-07 0.000000000000D+00  7 21 2 23 -13 13 23 2 2 0.48542545D-01 0.19217730D+00 0.26496319D+06 0.26496319D+06 0.26496319D+06 0.10885650D+01  1  2  5  3  7  1       -2 -.114462943337D-03 0.100000000000D+01
  </mgrwgt>
  </event>
  <event>
  8     66 0.53686478E-06 0.22875454E+03 0.75467711E-02 0.90574701E-01
       -2 -1    0    0    0  501 0.00000000E+00 0.00000000E+00 0.32533175E+03 0.32533191E+03 0.32000000E+00 0.0000E+00 0.9000E+01
        2 -1    0    0  501    0 0.00000000E+00 0.00000000E+00 -.21938776E+03 0.21938800E+03 0.32000000E+00 0.0000E+00 0.9000E+01
       25  2    1    2    0    0 -.67566534E+02 0.11267895E+03 0.16862590E+03 0.36891740E+03 0.30067186E+03 0.0000E+00 0.0000E+00
       23  2    1    2    0    0 0.67566534E+02 -.11267895E+03 -.62681918E+02 0.17580250E+03 0.98568323E+02 0.0000E+00 0.0000E+00
       23  1    3    3    0    0 -.13048851E+03 0.13990825E+03 0.89402086E+02 0.23002077E+03 0.91188000E+02 0.0000E+00 0.9000E+01
      -13  1    4    4    0    0 0.30872654E+02 -.46513174E+02 0.23981413E+02 0.60759489E+02 0.10565837E+00 0.0000E+00 0.9000E+01
       13  1    4    4    0    0 0.36693880E+02 -.66165776E+02 -.86663330E+02 0.11504301E+03 0.10565837E+00 0.0000E+00 0.9000E+01
       23  1    3    3    0    0 0.62921971E+02 -.27229305E+02 0.79223818E+02 0.13889663E+03 0.91188000E+02 0.0000E+00 0.9000E+01
#aMCatNLO 1  0  0  1  2 0.67491865D+03 0.00000000D+00  -5  7  0 0.00000000D+00 0.00000000D+00 0.00000000D+00 0.00000000D+00 0.00000000D+00
  <mgrwgt>
 0.2020302308D-03    5    2    0
 0.267158961373695D+03 0.000000000000000D+00 0.000000000000000D+00 0.267158961373695D+03
 0.267158961373695D+03 0.000000000000000D+00 0.000000000000000D+00 -.267158961373695D+03
 0.216772298962044D+03 -.130488549788354D+03 0.139908329389589D+03 0.455343386340056D+02
 0.571871611097428D+02 0.308726195954937D+02 -.465131284141879D+02 0.124008725591742D+02
 0.134466243977812D+03 0.366939847250249D+02 -.661659396746964D+02 -.111161102376076D+03
 0.125892218697792D+03 0.629219454678350D+02 -.272292613007052D+02 0.532258911828960D+02
 0.000000000000000D+00 0.000000000000000D+00 -.000000000000000D+00 0.000000000000000D+00
 0.783516891261087D+03 0.000000000000000D+00 0.000000000000000D+00 0.783516891261087D+03
 0.752915021824941D+03 0.000000000000000D+00 0.000000000000000D+00 -.752915021824941D+03
 0.559098478938560D+03 -.216721298285123D+03 0.505207245278792D+03 0.455343386340056D+02
 0.259918101186302D+02 0.216278439054430D+02 -.735043679082009D+01 0.124008725591742D+02
 0.124643684968708D+03 0.789568225986449D+01 0.558293446385091D+02 -.111161102376076D+03
 0.151085880461589D+03 0.321377176759953D+02 0.103178794048089D+03 0.532258911828960D+02
 0.675612058598541D+03 0.155060054443820D+03 -.656864947174570D+03 0.306018694361463D+02
0.272081306031D-05 0.000000000000D+00 0.000000000000D+00 0.589981104297D-08 0.000000000000D+00  7 -2 2 23 -13 13 23 21 0 0.50051068D-01 0.33751993D-01 0.52328639D+05 0.52328639D+05 0.52328639D+05 0.11455605D+01  1  2  2  1  7  1       -2 0.194966166200D-03 0.100000000000D+01
-.146729793651D-06 0.000000000000D+00 -.104486385581D-07 0.589981104297D-08 0.000000000000D+00  7 -2 2 23 -13 13 23 21 2 0.50051068D-01 0.33751993D-01 0.52328639D+05 0.52328639D+05 0.52328639D+05 0.11455605D+01  1  2  3  1  7  1       -2 -.137979617686D-04 0.100000000000D+01
0.173490523449D-06 0.000000000000D+00 0.000000000000D+00 0.589981104297D-08 0.000000000000D+00  7 -2 2 23 -13 13 23 21 2 0.50051068D-01 0.33751993D-01 0.52328639D+05 0.52328639D+05 0.52328639D+05 0.11455605D+01  1  2 15  1  7  1       -2 0.163144481445D-04 0.100000000000D+01
0.266126931188D-05 0.000000000000D+00 -.125510562144D-05 0.589981104297D-08 0.000000000000D+00  7 -2 2 23 -13 13 23 21 2 0.30748020D+00 0.33751993D-01 0.52328639D+05 0.52328639D+05 0.52328639D+05 0.11455605D+01  1  2  5  1  7  1       -2 0.184010326395D-05 0.100000000000D+01
0.506052256761D-06 0.000000000000D+00 -.279247926882D-06 0.589981104297D-08 0.000000000000D+00  7 21 2 23 -13 13 23 2 2 0.30748020D+00 0.33751993D-01 0.52328639D+05 0.52328639D+05 0.52328639D+05 0.11455605D+01  1  2  5  3  7  1       -2 0.270747493618D-05 0.100000000000D+01
  </mgrwgt>
  </event>
  <event>
  8     66 0.53686478E-06 0.15341553E+03 0.75467711E-02 0.10832427E+00
       -2 -1    0    0    0  501 0.00000000E+00 0.00000000E+00 0.27535210E+02 0.27537069E+02 0.32000000E+00 0.0000E+00 0.9000E+01
        2 -1    0    0  501    0 0.00000000E+00 0.00000000E+00 -.20395190E+04 0.20395191E+04 0.32000000E+00 0.0000E+00 0.9000E+01
       25  2    1    2    0    0 -.75097209E+02 0.20084807E+02 -.96624461E+03 0.10147268E+04 0.29999802E+03 0.0000E+00 0.0000E+00
       23  2    1    2    0    0 0.75097209E+02 -.20084807E+02 -.10457392E+04 0.10523294E+04 0.88224443E+02 0.0000E+00 0.0000E+00
       23  1    3    3    0    0 -.12683609E+02 0.76773874E+02 -.16519739E+03 0.20410911E+03 0.91188000E+02 0.0000E+00 0.9000E+01
      -13  1    4    4    0    0 -.12319410E+02 -.11535310E+02 -.51003515E+02 0.53723375E+02 0.10565837E+00 0.0000E+00 0.9000E+01
       13  1    4    4    0    0 0.87416619E+02 -.85494977E+01 -.99473571E+03 0.99860598E+03 0.10565837E+00 0.0000E+00 0.9000E+01
       23  1    3    3    0    0 -.62413600E+02 -.56689067E+02 -.80104722E+03 0.81061767E+03 0.91188000E+02 0.0000E+00 0.9000E+01
#aMCatNLO 1  0  0  2  1 0.30344842D+00 0.00000000D+00  -5  7  0 0.00000000D+00 0.00000000D+00 0.00000000D+00 0.00000000D+00 0.00000000D+00
  <mgrwgt>
 0.5796838718D-03    9    2    0
 0.236982136196847D+03 0.000000000000000D+00 0.000000000000000D+00 0.236982136196847D+03
 0.236982136196847D+03 0.000000000000000D+00 0.000000000000000D+00 -.236982136196847D+03
 0.188897193669554D+03 -.126836113819564D+02 0.767738734077127D+02 0.145985604757870D+03
 0.177880577551939D+02 -.123195511059258D+02 -.115353136606302D+02 0.561962614427992D+01
 0.132462584817475D+03 0.874167633861358D+02 -.854949462286401D+01 -.991541829541887D+02
 0.134816436151471D+03 -.624136008982536D+02 -.566890651242185D+02 -.524510479479612D+02
 0.000000000000000D+00 0.000000000000000D+00 0.000000000000000D+00 -.000000000000000D+00
 0.236992547039850D+03 0.000000000000000D+00 0.000000000000000D+00 0.236992547039850D+03
 0.239203727698870D+03 0.000000000000000D+00 0.000000000000000D+00 -.239203727698870D+03
 0.188872078522296D+03 -.127766476882553D+02 0.766966177785016D+02 0.145985604757870D+03
 0.177988475277588D+02 -.123283153820696D+02 -.115425913535547D+02 0.561962614427992D+01
 0.132423051114673D+03 0.873515278495985D+02 -.860366500669169D+01 -.991541829541887D+02
 0.134870392368073D+03 -.624800188634770D+02 -.567442173749729D+02 -.524510479479612D+02
 0.223190520591930D+01 0.233454084203549D+00 0.193855956717737D+00 -.221118065901984D+01
0.905385194275D-06 0.000000000000D+00 0.000000000000D+00 0.483784191482D-07 0.000000000000D+00  7 -2 2 23 -13 13 23 21 0 0.42363311D-02 0.31377231D+00 0.30412246D+05 0.30412246D+05 0.30412246D+05 0.11667864D+01  1  2  2  2  7  2        2 0.171844299550D-03 0.100000000000D+01
-.445470847421D-07 0.000000000000D+00 -.347691753941D-08 0.483784191482D-07 0.000000000000D+00  7 -2 2 23 -13 13 23 21 2 0.42363311D-02 0.31377231D+00 0.30412246D+05 0.30412246D+05 0.30412246D+05 0.11667864D+01  1  2  3  2  7  2        2 -.115107528940D-04 0.100000000000D+01
0.534441471095D-07 0.000000000000D+00 0.000000000000D+00 0.483784191482D-07 0.000000000000D+00  7 -2 2 23 -13 13 23 21 2 0.42363311D-02 0.31377231D+00 0.30412246D+05 0.30412246D+05 0.30412246D+05 0.11667864D+01  1  2 15  2  7  2        2 0.138097111084D-04 0.100000000000D+01
-.101546578520D-02 0.000000000000D+00 0.000000000000D+00 0.483784191482D-07 0.000000000000D+00  7 -2 2 23 -13 13 23 21 2 0.42363311D-02 0.31377231D+00 0.30412246D+05 0.30412246D+05 0.30412246D+05 0.11667864D+01  1  2  4  2  7  2        2 -.262391485176D+00 0.100000000000D+01
-.108725348608D-02 0.000000000000D+00 -.947563723703D-05 0.483784191482D-07 0.000000000000D+00  7 -2 2 23 -13 13 23 21 2 0.42363311D-02 0.31671851D+00 0.30412246D+05 0.30412246D+05 0.30412246D+05 0.11667864D+01  1  2  5  2  7  2        2 -.274477362072D+00 0.100000000000D+01
0.108729497259D-02 0.000000000000D+00 0.947522342936D-05 0.483784191482D-07 0.000000000000D+00  7 -2 2 23 -13 13 23 21 2 0.42363311D-02 0.31377231D+00 0.30412246D+05 0.30412246D+05 0.30412246D+05 0.11667864D+01  1  2  6  2  7  2        2 0.280951802456D+00 0.100000000000D+01
0.101551315726D-02 0.000000000000D+00 0.000000000000D+00 0.483784191482D-07 0.381449052015D-05  7 -2 2 23 -13 13 23 21 2 0.42365172D-02 0.31671377D+00 0.30460079D+05 0.30460079D+05 0.30460079D+05 0.11667231D+01  1  2 11  2  7  2        2 0.256329395555D+00 0.100000000000D+01
-.187850243420D-05 0.000000000000D+00 -.163742076064D-07 0.483784191482D-07 0.000000000000D+00  7 -2 21 23 -13 13 23 -2 2 0.42363311D-02 0.31671851D+00 0.30412246D+05 0.30412246D+05 0.30412246D+05 0.11667864D+01  1  2  5  4  7  2        2 -.100893701379D-03 0.100000000000D+01
0.175207368799D-05 0.000000000000D+00 0.000000000000D+00 0.483784191482D-07 0.657904842414D-08  7 -2 21 23 -13 13 23 -2 2 0.42365172D-02 0.31671377D+00 0.30460079D+05 0.30460079D+05 0.30460079D+05 0.11667231D+01  1  2 11  4  7  2        2 0.940835522716D-04 0.100000000000D+01
  </mgrwgt>
  </event>
  <event>
  8     66 0.53686478E-06 0.10697335E+03 0.75467711E-02 0.10382962E+00
       -2 -1    0    0    0  501 0.00000000E+00 0.00000000E+00 0.32825417E+02 0.32826976E+02 0.32000000E+00 0.0000E+00 0.9000E+01
        2 -1    0    0  501    0 0.00000000E+00 0.00000000E+00 -.18414729E+04 0.18414730E+04 0.32000000E+00 0.0000E+00 0.9000E+01
       25  2    1    2    0    0 0.78947554E+02 0.93182407E+02 -.14297961E+04 0.14660718E+04 0.30022300E+03 0.0000E+00 0.0000E+00
       23  2    1    2    0    0 -.78947554E+02 -.93182407E+02 -.37885141E+03 0.40822817E+03 0.90587905E+02 0.0000E+00 0.0000E+00
       23  1    3    3    0    0 0.44850373E+02 -.62804238E+02 -.32884952E+03 0.34987596E+03 0.91188000E+02 0.0000E+00 0.9000E+01
      -11  1    4    4    0    0 -.55116244E+02 0.70298506E+00 -.14362298E+03 0.15383711E+03 0.51099893E-03 0.0000E+00 0.9000E+01
       11  1    4    4    0    0 -.23831310E+02 -.93885392E+02 -.23522842E+03 0.25439106E+03 0.51099893E-03 0.0000E+00 0.9000E+01
       23  1    3    3    0    0 0.34097181E+02 0.15598664E+03 -.11009466E+04 0.11161958E+04 0.91188000E+02 0.0000E+00 0.9000E+01
#aMCatNLO 1  0  0  2  1 0.22298913D+02 0.00000000D+00  -5  7  0 0.00000000D+00 0.00000000D+00 0.00000000D+00 0.00000000D+00 0.00000000D+00
  <mgrwgt>
 0.2765563916D-03    9    2    0
 0.245862977797563D+03 0.000000000000000D+00 0.000000000000000D+00 0.245862977797563D+03
 0.245862977797563D+03 0.000000000000000D+00 0.000000000000000D+00 -.245862977797563D+03
 0.124052063694187D+03 0.448503731698611D+02 -.628042375633484D+02 0.334325430291703D+02
 0.581086472981423D+02 -.551162439782840D+02 0.702985057623117D+00 0.183934866883615D+02
 0.104448089278763D+03 -.238313103852633D+02 -.938853924007502D+02 0.390769125323737D+02
 0.205117155324033D+03 0.340971811936861D+02 0.155986644906476D+03 -.909029422499056D+02
 0.000000000000000D+00 -.000000000000000D+00 0.000000000000000D+00 -.000000000000000D+00
 0.256828894810185D+03 0.000000000000000D+00 0.000000000000000D+00 0.256828894810185D+03
 0.257719083687472D+03 0.000000000000000D+00 0.000000000000000D+00 -.257719083687472D+03
 0.127658433333505D+03 0.486517778806793D+02 -.670573920818325D+02 0.334325430291703D+02
 0.564789785357372D+02 -.533857085187380D+02 -.123320308046676D+01 0.183934866883615D+02
 0.107009641390481D+03 -.206378145914961D+02 -.974583955662294D+02 0.390769125323737D+02
 0.201084251024794D+03 0.402317522897239D+02 0.149123056112095D+03 -.909029422499056D+02
 0.223166742131400D+02 -.148600070601690D+02 0.166259346164331D+02 -.890188877287076D+00
0.515351120662D-06 0.000000000000D+00 0.000000000000D+00 0.744838512344D-07 0.000000000000D+00  7 -2 2 23 -11 11 23 21 0 0.50501862D-02 0.28330365D+00 0.51829007D+05 0.51829007D+05 0.51829007D+05 0.11459255D+01  1  2  2  2  7  2        2 0.957641012731D-04 0.100000000000D+01
-.284246446786D-07 0.000000000000D+00 -.197908399841D-08 0.744838512344D-07 0.000000000000D+00  7 -2 2 23 -11 11 23 21 2 0.50501862D-02 0.28330365D+00 0.51829007D+05 0.51829007D+05 0.51829007D+05 0.11459255D+01  1  2  3  2  7  2        2 -.693597177524D-05 0.100000000000D+01
0.338640914442D-07 0.000000000000D+00 0.000000000000D+00 0.744838512344D-07 0.000000000000D+00  7 -2 2 23 -11 11 23 21 2 0.50501862D-02 0.28330365D+00 0.51829007D+05 0.51829007D+05 0.51829007D+05 0.11459255D+01  1  2 15  2  7  2        2 0.826326538493D-05 0.100000000000D+01
0.100451751703D-05 0.000000000000D+00 0.000000000000D+00 0.744838512344D-07 0.000000000000D+00  7 -2 2 23 -11 11 23 21 2 0.50501862D-02 0.30299507D+00 0.57093641D+05 0.57093641D+05 0.57093641D+05 0.11422616D+01  1  2 12  2  7  2        2 0.208236427526D-03 0.100000000000D+01
-.797392183073D-06 0.000000000000D+00 0.000000000000D+00 0.744838512344D-07 0.000000000000D+00  7 -2 2 23 -11 11 23 21 2 0.50501862D-02 0.28330365D+00 0.51829007D+05 0.51829007D+05 0.51829007D+05 0.11459255D+01  1  2  4  2  7  2        2 -.194573748877D-03 0.100000000000D+01
-.424719175704D-05 0.000000000000D+00 -.772665748786D-06 0.744838512344D-07 0.000000000000D+00  7 -2 2 23 -11 11 23 21 2 0.50501862D-02 0.30396832D+00 0.51829007D+05 0.51829007D+05 0.51829007D+05 0.11459255D+01  1  2  5  2  7  2        2 -.879962534293D-03 0.100000000000D+01
0.429285796775D-05 0.000000000000D+00 0.770754740006D-06 0.744838512344D-07 0.000000000000D+00  7 -2 2 23 -11 11 23 21 2 0.50501862D-02 0.28330365D+00 0.51829007D+05 0.51829007D+05 0.51829007D+05 0.11459255D+01  1  2  6  2  7  2        2 0.104751148294D-02 0.100000000000D+01
0.117426931221D-07 0.000000000000D+00 0.000000000000D+00 0.744838512344D-07 0.000000000000D+00  7 -2 21 23 -11 11 23 -2 2 0.50501862D-02 0.30299507D+00 0.57093641D+05 0.57093641D+05 0.57093641D+05 0.11422616D+01  1  2 12  4  7  2        2 0.547437875957D-06 0.100000000000D+01
-.492876137315D-07 0.000000000000D+00 -.920547116191D-08 0.744838512344D-07 0.000000000000D+00  7 -2 21 23 -11 11 23 -2 2 0.50501862D-02 0.30396832D+00 0.51829007D+05 0.51829007D+05 0.51829007D+05 0.11459255D+01  1  2  5  4  7  2        2 -.229406848807D-05 0.100000000000D+01
  </mgrwgt>
  </event>
  <event>
  8     66 0.53686478E-06 0.22502652E+03 0.75467711E-02 0.92744354E-01
       -2 -1    0    0    0  501 0.00000000E+00 0.00000000E+00 0.30197719E+03 0.30197735E+03 0.32000000E+00 0.0000E+00 0.9000E+01
        2 -1    0    0  501    0 0.00000000E+00 0.00000000E+00 -.98203800E+03 0.98203805E+03 0.32000000E+00 0.0000E+00 0.9000E+01
       25  2    1    2    0    0 -.49393945E+03 0.56534693E+01 -.28150095E+03 0.64273627E+03 0.29976489E+03 0.0000E+00 0.0000E+00
       23  2    1    2    0    0 0.49393945E+03 -.56534693E+01 -.39855986E+03 0.64127913E+03 0.91546844E+02 0.0000E+00 0.0000E+00
       23  1    3    3    0    0 -.21120431E+03 -.10889967E+03 -.83845889E+02 0.26797721E+03 0.91188000E+02 0.0000E+00 0.9000E+01
      -11  1    4    4    0    0 0.28790193E+03 -.85873081E+01 -.28850671E+03 0.40767313E+03 0.51099893E-03 0.0000E+00 0.9000E+01
       11  1    4    4    0    0 0.20603752E+03 0.29338388E+01 -.11005315E+03 0.23360600E+03 0.51099893E-03 0.0000E+00 0.9000E+01
       23  1    3    3    0    0 -.28273514E+03 0.11455314E+03 -.19765506E+03 0.37475906E+03 0.91188000E+02 0.0000E+00 0.9000E+01
#aMCatNLO 1  0  0  2  1 0.11130271D+03 0.00000000D+00  -5  7  0 0.00000000D+00 0.00000000D+00 0.00000000D+00 0.00000000D+00 0.00000000D+00
  <mgrwgt>
 0.3010373018D-03    9    2    0
 0.544566995078284D+03 0.000000000000000D+00 0.000000000000000D+00 0.544566995078284D+03
 0.544566995078284D+03 0.000000000000000D+00 0.000000000000000D+00 -.544566995078284D+03
 0.263573224030111D+03 -.211204307655842D+03 -.108899674172579D+03 0.684776932610164D+02
 0.300474025288756D+03 0.287901925767186D+03 -.858730813587512D+01 -.855767442226755D+02
 0.206687946456816D+03 0.206037520867690D+03 0.293383884369046D+01 0.161195469809570D+02
 0.318398794380884D+03 -.282735138979034D+03 0.114553143464764D+03 0.979503980702155D+00
 0.000000000000000D+00 0.000000000000000D+00 0.000000000000000D+00 -.000000000000000D+00
 0.568959512140381D+03 0.000000000000000D+00 0.000000000000000D+00 0.568959512140381D+03
 0.691076961391362D+03 0.000000000000000D+00 0.000000000000000D+00 -.691076961391362D+03
 0.276597800626468D+03 -.211875546981020D+03 -.136420856486620D+03 0.684776932610164D+02
 0.302198887241602D+03 0.287153018956853D+03 -.392929001509721D+02 -.855767442226755D+02
 0.206951296609104D+03 0.205523515277406D+03 -.181406736737041D+02 0.161195469809570D+02
 0.309058455530060D+03 -.283514843853571D+03 0.825848138416705D+02 0.979503980702155D+00
 0.165230033524510D+03 0.271385660033124D+01 0.111269616469625D+03 -.122117449250981D+03
0.151415590809D-04 0.000000000000D+00 0.000000000000D+00 0.173385733881D-05 0.000000000000D+00  7 -2 2 23 -11 11 23 21 0 0.46458046D-01 0.15108279D+00 0.28462655D+06 0.28462655D+06 0.28462655D+06 0.10862462D+01  1  2  2  2  7  2        2 0.216094465991D-03 0.100000000000D+01
-.840766884198D-06 0.000000000000D+00 -.581475737347D-07 0.173385733881D-05 0.000000000000D+00  7 -2 2 23 -11 11 23 21 2 0.46458046D-01 0.15108279D+00 0.28462655D+06 0.28462655D+06 0.28462655D+06 0.10862462D+01  1  2  3  2  7  2        2 -.141581058397D-04 0.100000000000D+01
0.944257536290D-06 0.000000000000D+00 0.000000000000D+00 0.173385733881D-05 0.000000000000D+00  7 -2 2 23 -11 11 23 21 2 0.46458046D-01 0.15108279D+00 0.28462655D+06 0.28462655D+06 0.28462655D+06 0.10862462D+01  1  2 15  2  7  2        2 0.159008381395D-04 0.100000000000D+01
0.278230673442D-04 0.000000000000D+00 0.000000000000D+00 0.173385733881D-05 0.000000000000D+00  7 -2 2 23 -11 11 23 21 2 0.46458046D-01 0.19445872D+00 0.35075905D+06 0.35075905D+06 0.35075905D+06 0.10795647D+01  1  2 12  2  7  2        2 0.312268059003D-03 0.100000000000D+01
-.284108494225D-04 0.000000000000D+00 0.000000000000D+00 0.173385733881D-05 0.000000000000D+00  7 -2 2 23 -11 11 23 21 2 0.46458046D-01 0.15108279D+00 0.28462655D+06 0.28462655D+06 0.28462655D+06 0.10862462D+01  1  2  4  2  7  2        2 -.478424900743D-03 0.100000000000D+01
-.426875239175D-04 0.000000000000D+00 -.825497244022D-05 0.173385733881D-05 0.000000000000D+00  7 -2 2 23 -11 11 23 21 2 0.46458046D-01 0.19579595D+00 0.28462655D+06 0.28462655D+06 0.28462655D+06 0.10862462D+01  1  2  5  2  7  2        2 -.483142526796D-03 0.100000000000D+01
0.436232781576D-04 0.000000000000D+00 0.798513370509D-05 0.173385733881D-05 0.000000000000D+00  7 -2 2 23 -11 11 23 21 2 0.46458046D-01 0.15108279D+00 0.28462655D+06 0.28462655D+06 0.28462655D+06 0.10862462D+01  1  2  6  2  7  2        2 0.734594809618D-03 0.100000000000D+01
0.948255772502D-06 0.000000000000D+00 0.000000000000D+00 0.173385733881D-05 0.000000000000D+00  7 -2 21 23 -11 11 23 -2 2 0.46458046D-01 0.19445872D+00 0.35075905D+06 0.35075905D+06 0.35075905D+06 0.10795647D+01  1  2 12  4  7  2        2 0.500435159159D-05 0.100000000000D+01
-.133701869507D-05 0.000000000000D+00 -.286939632870D-06 0.173385733881D-05 0.000000000000D+00  7 -2 21 23 -11 11 23 -2 2 0.46458046D-01 0.19579595D+00 0.28462655D+06 0.28462655D+06 0.28462655D+06 0.10862462D+01  1  2  5  4  7  2        2 -.709968920415D-05 0.100000000000D+01
  </mgrwgt>
  </event>
  <event>
  8     66 0.53686478E-06 0.52943680E+03 0.75467711E-02 0.93305927E-01
       -2 -1    0    0    0  501 0.00000000E+00 0.00000000E+00 0.55988310E+03 0.55988320E+03 0.32000000E+00 0.0000E+00 0.9000E+01
        2 -1    0    0  501    0 0.00000000E+00 0.00000000E+00 -.56354355E+03 0.56354364E+03 0.32000000E+00 0.0000E+00 0.9000E+01
       25  2    1    2    0    0 -.19578020E+03 0.46817605E+03 0.98289382E+02 0.59788754E+03 0.30048295E+03 0.0000E+00 0.0000E+00
       23  2    1    2    0    0 0.19578020E+03 -.46817605E+03 -.10194982E+03 0.52553930E+03 0.90989460E+02 0.0000E+00 0.0000E+00
       23  1    3    3    0    0 -.16836241E+03 0.35449649E+03 -.26930705E+02 0.40379967E+03 0.91188000E+02 0.0000E+00 0.9000E+01
      -11  1    4    4    0    0 0.88283566E+02 -.23045863E+03 -.95331724E+02 0.26456248E+03 0.51099893E-03 0.0000E+00 0.9000E+01
       11  1    4    4    0    0 0.10749663E+03 -.23771742E+03 -.66181002E+01 0.26097681E+03 0.51099893E-03 0.0000E+00 0.9000E+01
       23  1    3    3    0    0 -.27417790E+02 0.11367957E+03 0.12522009E+03 0.19408787E+03 0.91188000E+02 0.0000E+00 0.9000E+01
#aMCatNLO 1  0  0  1  2 0.65593459D+02 0.00000000D+00  -5  7  0 0.00000000D+00 0.00000000D+00 0.00000000D+00 0.00000000D+00 0.00000000D+00
  <mgrwgt>
 0.3259173341D-03    4    2    0
 0.561710434814067D+03 0.000000000000000D+00 0.000000000000000D+00 0.561710434814067D+03
 0.561710434814067D+03 0.000000000000000D+00 0.000000000000000D+00 -.561710434814067D+03
 0.403714063875973D+03 -.168362406321088D+03 0.354496485693549D+03 -.256151477830951D+02
 0.264253267835807D+03 0.882835656300939D+02 -.230458633551527D+03 -.944702060075172D+02
 0.260956633980902D+03 0.107496630453127D+03 -.237717420073527D+03 -.576779450509621D+01
 0.194496903935450D+03 -.274177897621329D+02 0.113679567931505D+03 0.125853148295709D+03
 0.000000000000000D+00 0.000000000000000D+00 0.000000000000000D+00 -.000000000000000D+00
 0.571067099844939D+03 0.000000000000000D+00 0.000000000000000D+00 0.571067099844939D+03
 0.690717357678453D+03 0.000000000000000D+00 0.000000000000000D+00 -.690717357678453D+03
 0.386536786395233D+03 -.173691256186821D+03 0.332070245010071D+03 -.256151477830951D+02
 0.276603006975864D+03 0.846364428381071D+02 -.245807396529679D+03 -.944702060075172D+02
 0.273453761207890D+03 0.103892973764025D+03 -.252883257784607D+03 -.576779450509621D+01
 0.188740596761737D+03 -.300020515866323D+02 0.102803810661999D+03 0.125853148295709D+03
 0.136450306182668D+03 0.151638911713210D+02 0.638165986422168D+02 -.119650257833514D+03
0.467407388845D-04 0.000000000000D+00 0.000000000000D+00 0.127131372138D-05 0.000000000000D+00  7 -2 2 23 -11 11 23 21 0 0.86135876D-01 0.86699021D-01 0.28030332D+06 0.28030332D+06 0.28030332D+06 0.10867407D+01  1  2  2  1  7  1       -2 0.365284779340D-03 0.100000000000D+01
-.258565301209D-05 0.000000000000D+00 -.179496744436D-06 0.127131372138D-05 0.000000000000D+00  7 -2 2 23 -11 11 23 21 2 0.86135876D-01 0.86699021D-01 0.28030332D+06 0.28030332D+06 0.28030332D+06 0.10867407D+01  1  2  3  1  7  1       -2 -.238648151459D-04 0.100000000000D+01
0.288424505020D-05 0.000000000000D+00 0.000000000000D+00 0.127131372138D-05 0.000000000000D+00  7 -2 2 23 -11 11 23 21 2 0.86135876D-01 0.86699021D-01 0.28030332D+06 0.28030332D+06 0.28030332D+06 0.10867407D+01  1  2 15  1  7  1       -2 0.266207316436D-04 0.100000000000D+01
-.456389025242D-05 0.000000000000D+00 0.000000000000D+00 0.127131372138D-05 0.000000000000D+00  7 -2 2 23 -11 11 23 21 2 0.86135876D-01 0.86699021D-01 0.28030332D+06 0.28030332D+06 0.28030332D+06 0.10867407D+01  1  2  4  1  7  1       -2 -.421233617623D-04 0.100000000000D+01
  </mgrwgt>
  </event>
  <event>
  8     66 0.53686478E-06 0.19491360E+03 0.75467711E-02 0.95066545E-01
       -2 -1    0    0    0  501 0.00000000E+00 0.00000000E+00 0.80894010E+02 0.80894643E+02 0.32000000E+00 0.0000E+00 0.9000E+01
        2 -1    0    0  501    0 0.00000000E+00 0.00000000E+00 -.16114117E+04 0.16114118E+04 0.32000000E+00 0.0000E+00 0.9000E+01
       25  2    1    2    0    0 0.23615520E+03 -.11045443E+03 -.58288208E+03 0.70523661E+03 0.29939556E+03 0.0000E+00 0.0000E+00
       23  2    1    2    0    0 -.23615520E+03 0.11045443E+03 -.94763566E+03 0.98706981E+03 0.91235998E+02 0.0000E+00 0.0000E+00
       23  1    3    3    0    0 0.18161134E+03 -.17793862E+03 -.42049829E+03 0.49977884E+03 0.91188000E+02 0.0000E+00 0.9000E+01
      -13  1    4    4    0    0 -.46672145E+02 0.34563342E+02 -.36778357E+03 0.37234081E+03 0.10565837E+00 0.0000E+00 0.9000E+01
       13  1    4    4    0    0 -.18948306E+03 0.75891085E+02 -.57985208E+03 0.61472899E+03 0.10565837E+00 0.0000E+00 0.9000E+01
       23  1    3    3    0    0 0.54543867E+02 0.67484188E+02 -.16238379E+03 0.20545777E+03 0.91188000E+02 0.0000E+00 0.9000E+01
#aMCatNLO 1  0  0  1  2 0.25546620D+03 0.00000000D+00  -5  7  0 0.00000000D+00 0.00000000D+00 0.00000000D+00 0.00000000D+00 0.00000000D+00
  <mgrwgt>
 0.2693837543D-03    7    2    0
 0.361045870759416D+03 0.000000000000000D+00 0.000000000000000D+00 0.361045870759416D+03
 0.361045870759416D+03 0.000000000000000D+00 0.000000000000000D+00 -.361045870759416D+03
 0.280018233351297D+03 0.181611336877100D+03 -.177938614990512D+03 0.738250044236518D+02
 0.930842299223920D+02 -.466719533406497D+02 0.345632870757376D+02 -.727446342910122D+02
 0.211657372820012D+03 -.189483250422565D+03 0.758911404548417D+02 -.559953219370390D+02
 0.137331905425131D+03 0.545438668861147D+02 0.674841874599330D+02 0.549149518043994D+02
 0.000000000000000D+00 -.000000000000000D+00 -.000000000000000D+00 0.000000000000000D+00
 0.570573791953420D+03 0.000000000000000D+00 0.000000000000000D+00 0.570573791953420D+03
 0.469946510789962D+03 0.000000000000000D+00 0.000000000000000D+00 -.469946510789962D+03
 0.294866719900334D+03 0.248971273631916D+03 -.105803141677038D+03 0.738250044236518D+02
 0.964058879649213D+02 -.244691764470176D+02 0.583401475844599D+02 -.727446342910122D+02
 0.198384281083857D+03 -.141438194246403D+03 0.127342389292187D+03 -.559953219370390D+02
 0.176293150504199D+03 0.912916784484716D+02 0.106837264496417D+03 0.549149518043994D+02
 0.274570263290071D+03 -.174355581386967D+03 -.186716659696027D+03 0.100627281163459D+03
0.457107909701D-05 0.000000000000D+00 0.000000000000D+00 0.344181818345D-06 0.000000000000D+00  7 -2 2 23 -13 13 23 21 0 0.12445284D-01 0.24790955D+00 0.10829972D+06 0.10829972D+06 0.10829972D+06 0.11188915D+01  1  2  2  1  7  1       -2 0.283878778662D-03 0.100000000000D+01
-.251296901144D-06 0.000000000000D+00 -.175541473253D-07 0.344181818345D-06 0.000000000000D+00  7 -2 2 23 -13 13 23 21 2 0.12445284D-01 0.24790955D+00 0.10829972D+06 0.10829972D+06 0.10829972D+06 0.11188915D+01  1  2  3  1  7  1       -2 -.195378726598D-04 0.100000000000D+01
0.302869037335D-06 0.000000000000D+00 0.000000000000D+00 0.344181818345D-06 0.000000000000D+00  7 -2 2 23 -13 13 23 21 2 0.12445284D-01 0.24790955D+00 0.10829972D+06 0.10829972D+06 0.10829972D+06 0.11188915D+01  1  2 15  1  7  1       -2 0.235475115575D-04 0.100000000000D+01
0.180001861826D-06 0.000000000000D+00 0.000000000000D+00 0.344181818345D-06 0.000000000000D+00  7 -2 2 23 -13 13 23 21 2 0.20666812D-01 0.24790955D+00 0.23138278D+06 0.23138278D+06 0.23138278D+06 0.10929965D+01  1  2 12  1  7  1       -2 0.576757713531D-05 0.100000000000D+01
-.117061447275D-05 0.000000000000D+00 -.142917745048D-05 0.344181818345D-06 0.000000000000D+00  7 -2 2 23 -13 13 23 21 2 0.26281101D-01 0.24790955D+00 0.10829972D+06 0.10829972D+06 0.10829972D+06 0.11188915D+01  1  2  5  1  7  1       -2 -.267461628572D-04 0.100000000000D+01
0.102648119713D-07 0.000000000000D+00 0.000000000000D+00 0.344181818345D-06 0.000000000000D+00  7 21 2 23 -13 13 23 2 2 0.20666812D-01 0.24790955D+00 0.23138278D+06 0.23138278D+06 0.23138278D+06 0.10929965D+01  1  2 12  3  7  1       -2 0.411166132258D-05 0.100000000000D+01
-.589967075658D-08 0.000000000000D+00 -.115556532151D-06 0.344181818345D-06 0.000000000000D+00  7 21 2 23 -13 13 23 2 2 0.26281101D-01 0.24790955D+00 0.10829972D+06 0.10829972D+06 0.10829972D+06 0.11188915D+01  1  2  5  3  7  1       -2 -.163773885512D-05 0.100000000000D+01
  </mgrwgt>
  </event>
  <event>
  8     66 0.53686478E-06 0.79952001E+03 0.75467711E-02 0.82808451E-01
       -2 -1    0    0    0  501 0.00000000E+00 0.00000000E+00 0.52316871E+03 0.52316881E+03 0.32000000E+00 0.0000E+00 0.9000E+01
        2 -1    0    0  501    0 0.00000000E+00 0.00000000E+00 -.12760128E+04 0.12760128E+04 0.32000000E+00 0.0000E+00 0.9000E+01
       25  2    1    2    0    0 0.68716056E+03 -.36496800E+03 -.50703402E+03 0.97617720E+03 0.30074433E+03 0.0000E+00 0.0000E+00
       23  2    1    2    0    0 -.68716056E+03 0.36496800E+03 -.24581003E+03 0.82300442E+03 0.10734257E+03 0.0000E+00 0.0000E+00
       23  1    3    3    0    0 0.10166406E+03 -.10398698E+03 -.35737163E+02 0.17533188E+03 0.91188000E+02 0.0000E+00 0.9000E+01
      -11  1    4    4    0    0 -.63076031E+03 0.31735562E+03 -.19222644E+03 0.73179517E+03 0.51099893E-03 0.0000E+00 0.9000E+01
       11  1    4    4    0    0 -.56400244E+02 0.47612378E+02 -.53583590E+02 0.91209250E+02 0.51099893E-03 0.0000E+00 0.9000E+01
       23  1    3    3    0    0 0.58549650E+03 -.26098102E+03 -.47129685E+03 0.80084531E+03 0.91188000E+02 0.0000E+00 0.9000E+01
#aMCatNLO 1  0  0  1  2 0.12618907D+04 0.00000000D+00  -5  7  0 0.00000000D+00 0.00000000D+00 0.00000000D+00 0.00000000D+00 0.00000000D+00
  <mgrwgt>
 0.4253210824D-03    3    2    0
 0.817049617404264D+03 0.000000000000000D+00 0.000000000000000D+00 0.817049617404264D+03
 0.817049617404264D+03 0.000000000000000D+00 0.000000000000000D+00 -.817049617404264D+03
 0.176580089628043D+03 0.101664060022441D+03 -.103986979696241D+03 0.414295023196626D+02
 0.717163222873588D+03 -.630760311994782D+03 0.317355619860083D+03 0.125498715522908D+03
 0.757370881496674D+02 -.564002443831058D+02 0.476123779302706D+02 -.169758776722007D+02
 0.664618834157229D+03 0.585496496355447D+03 -.260981018094112D+03 -.149952340170370D+03
 0.000000000000000D+00 0.000000000000000D+00 0.000000000000000D+00 -.000000000000000D+00
 0.123623458135272D+04 0.000000000000000D+00 0.000000000000000D+00 0.123623458135272D+04
 0.298445422496306D+04 0.000000000000000D+00 0.000000000000000D+00 -.298445422496306D+04
 0.263161156032010D+03 0.388569256955312D+02 -.240233799377067D+03 0.414295023196626D+02
 0.887461065647577D+03 -.859944756774567D+03 -.179811653511011D+03 0.125498715522908D+03
 0.805336435019943D+02 -.787199993096151D+02 -.805618805005587D+00 -.169758776722007D+02
 0.833462398142726D+03 0.371529327893786D+03 -.725137622776563D+03 -.149952340170370D+03
 0.215607054299147D+04 0.528278502494865D+03 0.114598869446965D+04 -.174821964361034D+04
0.145248671334D-03 0.000000000000D+00 0.000000000000D+00 0.128733796940D-07 0.000000000000D+00  7 -2 2 23 -11 11 23 21 0 0.80487505D-01 0.19630967D+00 0.63923225D+06 0.63923225D+06 0.63923225D+06 0.10610509D+01  1  2  2  1  7  1       -2 0.423308918659D-03 0.100000000000D+01
-.806475564073D-05 0.000000000000D+00 -.557793142775D-06 0.128733796940D-07 0.000000000000D+00  7 -2 2 23 -11 11 23 21 2 0.80487505D-01 0.19630967D+00 0.63923225D+06 0.63923225D+06 0.63923225D+06 0.10610509D+01  1  2  3  1  7  1       -2 -.264611623456D-04 0.100000000000D+01
0.867801702269D-05 0.000000000000D+00 0.000000000000D+00 0.128733796940D-07 0.000000000000D+00  7 -2 2 23 -11 11 23 21 2 0.80487505D-01 0.19630967D+00 0.63923225D+06 0.63923225D+06 0.63923225D+06 0.10610509D+01  1  2 15  1  7  1       -2 0.284733261000D-04 0.100000000000D+01
  </mgrwgt>
  </event>
  <event>
  8     66 0.53686478E-06 0.75030341E+03 0.75467711E-02 0.88974479E-01
       -2 -1    0    0    0  501 0.00000000E+00 0.00000000E+00 0.69289718E+03 0.69289725E+03 0.32000000E+00 0.0000E+00 0.9000E+01
        2 -1    0    0  501    0 0.00000000E+00 0.00000000E+00 -.86309100E+03 0.86309106E+03 0.32000000E+00 0.0000E+00 0.9000E+01
       25  2    1    2    0    0 0.30212626E+03 0.65414364E+03 -.26099019E+03 0.82428815E+03 0.30356367E+03 0.0000E+00 0.0000E+00
       23  2    1    2    0    0 -.30212626E+03 -.65414364E+03 0.90796377E+02 0.73170016E+03 0.89201777E+02 0.0000E+00 0.0000E+00
       23  1    3    3    0    0 0.31167917E+03 0.43968064E+03 -.15544707E+03 0.56827987E+03 0.91188000E+02 0.0000E+00 0.9000E+01
      -11  1    4    4    0    0 -.27584756E+03 -.60822212E+03 0.10699245E+03 0.67636781E+03 0.51099893E-03 0.0000E+00 0.9000E+01
       11  1    4    4    0    0 -.26278696E+02 -.45921520E+02 -.16196076E+02 0.55332349E+02 0.51099893E-03 0.0000E+00 0.9000E+01
       23  1    3    3    0    0 -.95529156E+01 0.21446300E+03 -.10554312E+03 0.25600828E+03 0.91188000E+02 0.0000E+00 0.9000E+01
#aMCatNLO 1  0  0  2  1 0.18860018D+03 0.00000000D+00  -5  7  0 0.00000000D+00 0.00000000D+00 0.00000000D+00 0.00000000D+00 0.00000000D+00
  <mgrwgt>
 0.3191840178D-03    4    2    0
 0.773326205808792D+03 0.000000000000000D+00 0.000000000000000D+00 0.773326205808792D+03
 0.773326205808792D+03 0.000000000000000D+00 0.000000000000000D+00 -.773326205808792D+03
 0.554604706345511D+03 0.311679171201092D+03 0.439680638069180D+03 -.938517964829122D+02
 0.692223958189877D+03 -.275847559261765D+03 -.608222121694179D+03 0.182065875504494D+03
 0.538841273846132D+02 -.262786963470542D+02 -.459215203835015D+02 -.102050608997783D+02
 0.245939619697582D+03 -.955291559227295D+01 0.214463004008501D+03 -.780090181218033D+02
 0.000000000000000D+00 0.000000000000000D+00 -.000000000000000D+00 0.000000000000000D+00
 0.109261951140247D+04 0.000000000000000D+00 0.000000000000000D+00 0.109261951140247D+04
 0.807413881232205D+03 0.000000000000000D+00 0.000000000000000D+00 -.807413881232205D+03
 0.611590555471298D+03 0.310323108101609D+03 0.510508731632259D+03 -.938517964829122D+02
 0.623841840568348D+03 -.277377893267245D+03 -.528291740752314D+03 0.182065875504494D+03
 0.487459217011933D+02 -.263980355580939D+02 -.396883526138877D+02 -.102050608997783D+02
 0.273930699437612D+03 -.101574258139982D+02 0.246036982063438D+03 -.780090181218033D+02
 0.341924375456222D+03 0.361024653772832D+01 -.188565620329495D+03 0.285205630170264D+03
0.130036425723D-03 0.000000000000D+00 0.000000000000D+00 0.340402011695D-07 0.000000000000D+00  7 -2 2 23 -11 11 23 21 0 0.10659958D+00 0.13278324D+00 0.56295520D+06 0.56295520D+06 0.56295520D+06 0.10648893D+01  1  2  2  2  7  2        2 0.351645297625D-03 0.100000000000D+01
-.721622249011D-05 0.000000000000D+00 -.499374114153D-06 0.340402011695D-07 0.000000000000D+00  7 -2 2 23 -11 11 23 21 2 0.10659958D+00 0.13278324D+00 0.56295520D+06 0.56295520D+06 0.56295520D+06 0.10648893D+01  1  2  3  2  7  2        2 -.221288395592D-04 0.100000000000D+01
0.798148532005D-05 0.000000000000D+00 0.000000000000D+00 0.340402011695D-07 0.000000000000D+00  7 -2 2 23 -11 11 23 21 2 0.10659958D+00 0.13278324D+00 0.56295520D+06 0.56295520D+06 0.56295520D+06 0.10648893D+01  1  2 15  2  7  2        2 0.244755491302D-04 0.100000000000D+01
-.113508977940D-04 0.000000000000D+00 0.000000000000D+00 0.340402011695D-07 0.000000000000D+00  7 -2 2 23 -11 11 23 21 2 0.10659958D+00 0.13278324D+00 0.56295520D+06 0.56295520D+06 0.56295520D+06 0.10648893D+01  1  2  4  2  7  2        2 -.348079894265D-04 0.100000000000D+01
  </mgrwgt>
  </event>
  <event>
  8     66 0.53686478E-06 0.70164355E+03 0.75467711E-02 0.89003389E-01
       -2 -1    0    0    0  501 0.00000000E+00 0.00000000E+00 0.55500267E+03 0.55500276E+03 0.32000000E+00 0.0000E+00 0.9000E+01
        2 -1    0    0  501    0 0.00000000E+00 0.00000000E+00 -.11331854E+04 0.11331854E+04 0.32000000E+00 0.0000E+00 0.9000E+01
       25  2    1    2    0    0 -.58202460E+03 0.33367025E+03 0.85865788E+02 0.73979874E+03 0.29973450E+03 0.0000E+00 0.0000E+00
       23  2    1    2    0    0 0.58202460E+03 -.33367025E+03 -.66404847E+03 0.94838942E+03 0.91616848E+02 0.0000E+00 0.0000E+00
       23  1    3    3    0    0 -.38807447E+03 0.33062038E+03 0.32549291E+02 0.51892806E+03 0.91188000E+02 0.0000E+00 0.9000E+01
      -11  1    4    4    0    0 0.50608155E+03 -.29566730E+03 -.53298416E+03 0.79221828E+03 0.51099893E-03 0.0000E+00 0.9000E+01
       11  1    4    4    0    0 0.75943049E+02 -.38002948E+02 -.13106431E+03 0.15617114E+03 0.51099893E-03 0.0000E+00 0.9000E+01
       23  1    3    3    0    0 -.19395013E+03 0.30498725E+01 0.53316497E+02 0.22087068E+03 0.91188000E+02 0.0000E+00 0.9000E+01
#aMCatNLO 1  0  0  2  1 0.26592038D+03 0.00000000D+00  -5  7  0 0.00000000D+00 0.00000000D+00 0.00000000D+00 0.00000000D+00 0.00000000D+00
  <mgrwgt>
 0.2763503459D-03    4    2    0
 0.793045402791658D+03 0.000000000000000D+00 0.000000000000000D+00 0.793045402791658D+03
 0.793045402791658D+03 0.000000000000000D+00 0.000000000000000D+00 -.793045402791658D+03
 0.564196983725547D+03 -.388074469505870D+03 0.330620376393419D+03 0.223810987067697D+03
 0.648923320069896D+03 0.506081552282020D+03 -.295667300908436D+03 -.278502755720439D+03
 0.118446654014645D+03 0.759430486153880D+02 -.380029480218576D+02 -.825714185170257D+02
 0.254523847773227D+03 -.193950131391538D+03 0.304987253687425D+01 0.137263187169769D+03
 0.000000000000000D+00 -.000000000000000D+00 0.000000000000000D+00 0.000000000000000D+00
 0.102075381421808D+04 0.000000000000000D+00 0.000000000000000D+00 0.102075381421808D+04
 0.885716865846589D+03 0.000000000000000D+00 0.000000000000000D+00 -.885716865846589D+03
 0.499524075128752D+03 -.361228258221648D+03 0.246235330160342D+03 0.223810987067697D+03
 0.730941675652040D+03 0.540906609951512D+03 -.405132061890806D+03 -.278502755720439D+03
 0.130031516763042D+03 0.822141451746680D+02 -.577147340718295D+02 -.825714185170257D+02
 0.247730853716517D+03 -.181274218169315D+03 -.367940187287941D+02 0.137263187169769D+03
 0.298242558804324D+03 -.806182787352167D+02 0.253405484531088D+03 0.135036948371495D+03
0.121045926849D-03 0.000000000000D+00 0.000000000000D+00 0.372382232961D-05 0.000000000000D+00  7 -2 2 23 -11 11 23 21 0 0.85385036D-01 0.17433622D+00 0.49230367D+06 0.49230367D+06 0.49230367D+06 0.10689869D+01  1  2  2  2  7  2        2 0.378167881440D-03 0.100000000000D+01
-.660216764074D-05 0.000000000000D+00 -.464848231225D-06 0.372382232961D-05 0.000000000000D+00  7 -2 2 23 -11 11 23 21 2 0.85385036D-01 0.17433622D+00 0.49230367D+06 0.49230367D+06 0.49230367D+06 0.10689869D+01  1  2  3  2  7  2        2 -.235703339162D-04 0.100000000000D+01
0.732233027519D-05 0.000000000000D+00 0.000000000000D+00 0.372382232961D-05 0.000000000000D+00  7 -2 2 23 -11 11 23 21 2 0.85385036D-01 0.17433622D+00 0.49230367D+06 0.49230367D+06 0.49230367D+06 0.10689869D+01  1  2 15  2  7  2        2 0.261413794715D-04 0.100000000000D+01
-.292397602322D-04 0.000000000000D+00 0.000000000000D+00 0.372382232961D-05 0.000000000000D+00  7 -2 2 23 -11 11 23 21 2 0.85385036D-01 0.17433622D+00 0.49230367D+06 0.49230367D+06 0.49230367D+06 0.10689869D+01  1  2  4  2  7  2        2 -.104388581115D-03 0.100000000000D+01
  </mgrwgt>
  </event>
  <event>
  8     66 0.53686478E-06 0.14177515E+03 0.75467711E-02 0.10719584E+00
       -2 -1    0    0    0  501 0.00000000E+00 0.00000000E+00 0.29151576E+02 0.29153333E+02 0.32000000E+00 0.0000E+00 0.9000E+01
        2 -1    0    0  501    0 0.00000000E+00 0.00000000E+00 -.22125571E+04 0.22125571E+04 0.32000000E+00 0.0000E+00 0.9000E+01
       25  2    1    2    0    0 0.29300586E+02 -.57481598E+02 -.20230942E+04 0.20461671E+04 0.29954462E+03 0.0000E+00 0.0000E+00
       23  2    1    2    0    0 -.29300586E+02 0.57481598E+02 -.16031133E+03 0.19554337E+03 0.91514084E+02 0.0000E+00 0.0000E+00
       23  1    3    3    0    0 -.87207979E+01 0.60053521E+01 -.16985484E+04 0.17010273E+04 0.91188000E+02 0.0000E+00 0.9000E+01
      -13  1    4    4    0    0 -.38114978E+02 0.44099002E+02 -.32509803E+02 0.66741082E+02 0.10565837E+00 0.0000E+00 0.9000E+01
       13  1    4    4    0    0 0.88143916E+01 0.13382596E+02 -.12780153E+03 0.12880228E+03 0.10565837E+00 0.0000E+00 0.9000E+01
       23  1    3    3    0    0 0.38021384E+02 -.63486950E+02 -.32454581E+03 0.34513976E+03 0.91188000E+02 0.0000E+00 0.9000E+01
#aMCatNLO 1  0  0  1  1 0.73022768D+02 0.00000000D+00  -5  7  0 0.00000000D+00 0.00000000D+00 0.00000000D+00 0.00000000D+00 0.00000000D+00
  <mgrwgt>
 0.3491120377D-03    4    2    0
 0.253971497405463D+03 0.000000000000000D+00 0.000000000000000D+00 0.253971497405463D+03
 0.253971497405463D+03 0.000000000000000D+00 0.000000000000000D+00 -.253971497405463D+03
 0.205910564602641D+03 -.872079735449875D+01 0.600535107521647D+01 -.184314385556157D+03
 0.154805145637143D+03 -.381150404546353D+02 0.440990441592307D+02 0.143412520761336D+03
 0.190863517385818D+02 0.881445377843792D+01 0.133825549367968D+02 -.103682906325132D+02
 0.128140932832560D+03 0.380213840306961D+02 -.634869501712440D+02 0.512701554273337D+02
 0.000000000000000D+00 0.000000000000000D+00 -.000000000000000D+00 -.000000000000000D+00
 0.271900761062851D+03 0.000000000000000D+00 0.000000000000000D+00 0.271900761062851D+03
 0.343608424310810D+03 0.000000000000000D+00 0.000000000000000D+00 -.343608424310810D+03
 0.209116332469432D+03 -.144422536333624D+02 0.351285887634590D+02 -.184314385556157D+03
 0.163673812279185D+03 -.425055111598143D+02 0.664473267778637D+02 0.143412520761336D+03
 0.209261130333226D+02 0.826285201619775D+01 0.161903067482228D+02 -.103682906325132D+02
 0.119448833251476D+03 0.346081738707341D+02 -.461130988432672D+02 0.512701554273337D+02
 0.102344094340245D+03 0.140767389062448D+02 -.716531234462782D+02 -.717076632479594D+02
0.272608481682D-05 0.000000000000D+00 0.000000000000D+00 0.301561319543D-06 0.000000000000D+00  7 -2 2 23 -13 13 23 21 0 0.44849948D-02 0.34039353D+00 0.20100192D+05 0.20100192D+05 0.20100192D+05 0.11838250D+01  1  2  2  1  7  1       -2 0.386671237395D-03 0.100000000000D+01
-.888663203904D-07 0.000000000000D+00 -.104688834912D-07 0.301561319543D-06 0.000000000000D+00  7 -2 2 23 -13 13 23 21 2 0.44849948D-02 0.34039353D+00 0.20100192D+05 0.20100192D+05 0.20100192D+05 0.11838250D+01  1  2  3  1  7  1       -2 -.176650425522D-04 0.100000000000D+01
0.169325907611D-06 0.000000000000D+00 0.000000000000D+00 0.301561319543D-06 0.000000000000D+00  7 -2 2 23 -13 13 23 21 2 0.44849948D-02 0.34039353D+00 0.20100192D+05 0.20100192D+05 0.20100192D+05 0.11838250D+01  1  2 15  1  7  1       -2 0.336589762014D-04 0.100000000000D+01
-.269406082105D-06 0.000000000000D+00 0.000000000000D+00 0.301561319543D-06 0.000000000000D+00  7 -2 2 23 -13 13 23 21 2 0.44849948D-02 0.34039353D+00 0.20100192D+05 0.20100192D+05 0.20100192D+05 0.11838250D+01  1  2  4  1  7  1       -2 -.535531333276D-04 0.100000000000D+01
  </mgrwgt>
  </event>
  <event>
  8     66 0.53686478E-06 0.48874658E+03 0.75467711E-02 0.92146104E-01
       -2 -1    0    0    0  501 0.00000000E+00 0.00000000E+00 0.61664984E+03 0.61664992E+03 0.32000000E+00 0.0000E+00 0.9000E+01
        2 -1    0    0  501    0 0.00000000E+00 0.00000000E+00 -.97847534E+03 0.97847540E+03 0.32000000E+00 0.0000E+00 0.9000E+01
       25  2    1    2    0    0 -.42837035E+03 0.40476194E+03 0.28090142E+03 0.71847844E+03 0.29995380E+03 0.0000E+00 0.0000E+00
       23  2    1    2    0    0 0.42837035E+03 -.40476194E+03 -.64272692E+03 0.87664687E+03 0.89880236E+02 0.0000E+00 0.0000E+00
       23  1    3    3    0    0 -.17573148E+03 0.31661127E+03 0.20405296E+03 0.42553156E+03 0.91188000E+02 0.0000E+00 0.9000E+01
      -13  1    4    4    0    0 0.34229219E+03 -.28360586E+03 -.51834299E+03 0.68284383E+03 0.10565837E+00 0.0000E+00 0.9000E+01
       13  1    4    4    0    0 0.86078155E+02 -.12115609E+03 -.12438393E+03 0.19380304E+03 0.10565837E+00 0.0000E+00 0.9000E+01
       23  1    3    3    0    0 -.25263887E+03 0.88150673E+02 0.76848460E+02 0.29294688E+03 0.91188000E+02 0.0000E+00 0.9000E+01
#aMCatNLO 1  0  0  2  2 0.25717799D+01 0.00000000D+00  -5  7  0 0.00000000D+00 0.00000000D+00 0.00000000D+00 0.00000000D+00 0.00000000D+00
  <mgrwgt>
 0.2927146375D-03   10    2    0
 0.776773307110232D+03 0.000000000000000D+00 0.000000000000000D+00 0.776773307110232D+03
 0.776773307110232D+03 0.000000000000000D+00 0.000000000000000D+00 -.776773307110232D+03
 0.484444900225344D+03 -.175731482848225D+03 0.316611270007751D+03 0.308621709622616D+03
 0.580396263041096D+03 0.342292547721681D+03 -.283606081429228D+03 -.373179882231917D+03
 0.170019989877286D+03 0.860778011731356D+02 -.121155861941990D+03 -.825752155320473D+02
 0.318685461076738D+03 -.252638866046592D+03 0.881506733634674D+02 0.147133388141348D+03
 0.000000000000000D+00 -.000000000000000D+00 0.000000000000000D+00 -.000000000000000D+00
 0.777187423841511D+03 0.000000000000000D+00 0.000000000000000D+00 0.777187423841511D+03
 0.780777527118725D+03 0.000000000000000D+00 0.000000000000000D+00 -.780777527118725D+03
 0.484062600839860D+03 -.174943710949504D+03 0.316462775910026D+03 0.308621709622616D+03
 0.581040858160943D+03 0.343237246162537D+03 -.283784155999829D+03 -.373179882231917D+03
 0.170197404044187D+03 0.863545297499329D+02 -.121208024960743D+03 -.825752155320473D+02
 0.318247879868420D+03 -.252120792426302D+03 0.880530170813321D+02 0.147133388141348D+03
 0.441620804682569D+01 -.252727253666417D+01 0.476387969214132D+00 -.359010327721349D+01
0.371508099416D-04 0.000000000000D+00 0.000000000000D+00 0.177200737799D-05 0.000000000000D+00  7 -2 2 23 -13 13 23 21 0 0.94869216D-01 0.15053468D+00 0.39015176D+06 0.39015176D+06 0.39015176D+06 0.10762090D+01  1  2  2  2  7  2        2 0.113946574166D-03 0.100000000000D+01
-.194467182367D-05 0.000000000000D+00 -.142668892209D-06 0.177200737799D-05 0.000000000000D+00  7 -2 2 23 -13 13 23 21 2 0.94869216D-01 0.15053468D+00 0.39015176D+06 0.39015176D+06 0.39015176D+06 0.10762090D+01  1  2  3  2  7  2        2 -.690832107979D-05 0.100000000000D+01
0.219689303843D-05 0.000000000000D+00 0.000000000000D+00 0.177200737799D-05 0.000000000000D+00  7 -2 2 23 -13 13 23 21 2 0.94869216D-01 0.15053468D+00 0.39015176D+06 0.39015176D+06 0.39015176D+06 0.10762090D+01  1  2 15  2  7  2        2 0.780432065848D-05 0.100000000000D+01
-.469433491852D-02 0.000000000000D+00 0.000000000000D+00 0.177200737799D-05 0.000000000000D+00  7 -2 2 23 -13 13 23 21 2 0.94869216D-01 0.15053468D+00 0.39015176D+06 0.39015176D+06 0.39015176D+06 0.10762090D+01  1  2  4  2  7  2        2 -.166763216695D-01 0.100000000000D+01
-.121570683642D-01 0.000000000000D+00 -.830659106050D-03 0.177200737799D-05 0.000000000000D+00  7 -2 2 23 -13 13 23 21 2 0.94869216D-01 0.15135043D+00 0.39015176D+06 0.39015176D+06 0.39015176D+06 0.10762090D+01  1  2  5  2  7  2        2 -.428564243898D-01 0.100000000000D+01
0.121613921152D-01 0.000000000000D+00 0.830646975390D-03 0.177200737799D-05 0.000000000000D+00  7 -2 2 23 -13 13 23 21 2 0.94869216D-01 0.15053468D+00 0.39015176D+06 0.39015176D+06 0.39015176D+06 0.10762090D+01  1  2  6  2  7  2        2 0.432025601885D-01 0.100000000000D+01
0.469435963645D-02 0.000000000000D+00 0.000000000000D+00 0.177200737799D-05 0.165457241928D-05  7 -2 2 23 -13 13 23 21 2 0.94919793D-01 0.15131068D+00 0.39179406D+06 0.39179406D+06 0.39179406D+06 0.10760772D+01  1  2 11  2  7  2        2 0.165268338708D-01 0.100000000000D+01
0.280528843552D-07 0.000000000000D+00 0.000000000000D+00 0.177200737799D-05 0.000000000000D+00  7 -2 21 23 -13 13 23 -2 2 0.94869216D-01 0.15135069D+00 0.39179406D+06 0.39179406D+06 0.39179406D+06 0.10760772D+01  1  2 12  4  7  2        2 0.698341239099D-07 0.100000000000D+01
-.122107839509D-04 0.000000000000D+00 -.834946801920D-06 0.177200737799D-05 0.000000000000D+00  7 -2 21 23 -13 13 23 -2 2 0.94869216D-01 0.15135043D+00 0.39015176D+06 0.39015176D+06 0.39015176D+06 0.10762090D+01  1  2  5  4  7  2        2 -.304158890163D-04 0.100000000000D+01
0.465000955179D-05 0.000000000000D+00 0.000000000000D+00 0.177200737799D-05 0.158600956004D-08  7 -2 21 23 -13 13 23 -2 2 0.94919793D-01 0.15131068D+00 0.39179406D+06 0.39179406D+06 0.39179406D+06 0.10760772D+01  1  2 11  4  7  2        2 0.115701185816D-04 0.100000000000D+01
  </mgrwgt>
  </event>
  <event>
  8     66 0.53686478E-06 0.85036418E+02 0.75467711E-02 0.10650972E+00
       -2 -1    0    0    0  501 0.00000000E+00 0.00000000E+00 0.47841600E+02 0.47842670E+02 0.32000000E+00 0.0000E+00 0.9000E+01
        2 -1    0    0  501    0 0.00000000E+00 0.00000000E+00 -.13145631E+04 0.13145632E+04 0.32000000E+00 0.0000E+00 0.9000E+01
       25  2    1    2    0    0 0.42327947E+02 -.76870659E+02 -.52951998E+03 0.61423496E+03 0.29865101E+03 0.0000E+00 0.0000E+00
       23  2    1    2    0    0 -.42327947E+02 0.76870659E+02 -.73720154E+03 0.74817087E+03 0.92697259E+02 0.0000E+00 0.0000E+00
       23  1    3    3    0    0 -.28305842E+02 -.11330033E+03 -.43849471E+03 0.46285100E+03 0.91188000E+02 0.0000E+00 0.9000E+01
      -11  1    4    4    0    0 -.54845245E+02 0.10702396E+02 -.23940489E+03 0.24583988E+03 0.51099893E-03 0.0000E+00 0.9000E+01
       11  1    4    4    0    0 0.12517298E+02 0.66168263E+02 -.49779665E+03 0.50233099E+03 0.51099893E-03 0.0000E+00 0.9000E+01
       23  1    3    3    0    0 0.70633789E+02 0.36429675E+02 -.91025274E+02 0.15138397E+03 0.91188000E+02 0.0000E+00 0.9000E+01
#aMCatNLO 1  0  0  2  1 0.30077143D+01 0.00000000D+00  -5  7  0 0.00000000D+00 0.00000000D+00 0.00000000D+00 0.00000000D+00 0.00000000D+00
  <mgrwgt>
 0.2630641859D-03   11    2    0
 0.250781894623173D+03 0.000000000000000D+00 0.000000000000000D+00 0.250781894623173D+03
 0.250781894623173D+03 0.000000000000000D+00 0.000000000000000D+00 -.250781894623173D+03
 0.149811881750690D+03 -.283058422930837D+02 -.113300333687583D+03 -.221396081276095D+02
 0.631511918013882D+02 -.548452446820918D+02 0.107023961107853D+02 -.294199061722679D+02
 0.107282353612666D+03 0.125172980130659D+02 0.661682625688149D+02 -.835139609631209D+02
 0.181318362081602D+03 0.706337889621095D+02 0.364296750079828D+02 0.135073475262998D+03
 0.000000000000000D+00 0.000000000000000D+00 0.000000000000000D+00 -.000000000000000D+00
 0.251079122997969D+03 0.000000000000000D+00 0.000000000000000D+00 0.251079122997969D+03
 0.258512529127329D+03 0.000000000000000D+00 0.000000000000000D+00 -.258512529127329D+03
 0.150505247826245D+03 -.286655024093949D+02 -.114125829691671D+03 -.221396081276095D+02
 0.632248569799587D+02 -.549965927735833D+02 0.103550202437195D+02 -.294199061722679D+02
 0.106890537825920D+03 0.122608043286929D+02 0.655795553368442D+02 -.835139609631209D+02
 0.180952164673762D+03 0.701999333909254D+02 0.354338847490094D+02 0.135073475262998D+03
 0.801884481941176D+01 0.120135746335984D+01 0.275736936209826D+01 -.743340612935943D+01
0.551807877116D-06 0.000000000000D+00 0.000000000000D+00 0.132009243453D-07 0.000000000000D+00  7 -2 2 23 -11 11 23 21 0 0.73603315D-02 0.20224057D+00 0.38484478D+05 0.38484478D+05 0.38484478D+05 0.11574313D+01  1  2  2  2  7  2        2 0.111504656286D-03 0.100000000000D+01
-.284080904223D-07 0.000000000000D+00 -.211908754247D-08 0.132009243453D-07 0.000000000000D+00  7 -2 2 23 -11 11 23 21 2 0.73603315D-02 0.20224057D+00 0.38484478D+05 0.38484478D+05 0.38484478D+05 0.11574313D+01  1  2  3  2  7  2        2 -.769019959091D-05 0.100000000000D+01
0.339418334229D-07 0.000000000000D+00 0.000000000000D+00 0.132009243453D-07 0.000000000000D+00  7 -2 2 23 -11 11 23 21 2 0.73603315D-02 0.20224057D+00 0.38484478D+05 0.38484478D+05 0.38484478D+05 0.11574313D+01  1  2 15  2  7  2        2 0.918820904973D-05 0.100000000000D+01
0.765803055543D-07 0.000000000000D+00 0.000000000000D+00 0.132009243453D-07 0.000000000000D+00  7 -2 2 23 -11 11 23 21 2 0.73603315D-02 0.20859271D+00 0.38999458D+05 0.38999458D+05 0.38999458D+05 0.11569099D+01  1  2 12  2  7  2        2 0.196745364916D-04 0.100000000000D+01
-.278511743111D-04 0.000000000000D+00 0.000000000000D+00 0.132009243453D-07 0.000000000000D+00  7 -2 2 23 -11 11 23 21 2 0.73603315D-02 0.20224057D+00 0.38484478D+05 0.38484478D+05 0.38484478D+05 0.11574313D+01  1  2  4  2  7  2        2 -.753943986060D-02 0.100000000000D+01
-.392338453743D-04 0.000000000000D+00 -.205708260784D-05 0.132009243453D-07 0.000000000000D+00  7 -2 2 23 -11 11 23 21 2 0.73603315D-02 0.20857571D+00 0.38484478D+05 0.38484478D+05 0.38484478D+05 0.11574313D+01  1  2  5  2  7  2        2 -.100900060062D-01 0.100000000000D+01
0.392795864599D-04 0.000000000000D+00 0.205610447946D-05 0.132009243453D-07 0.000000000000D+00  7 -2 2 23 -11 11 23 21 2 0.73603315D-02 0.20224057D+00 0.38484478D+05 0.38484478D+05 0.38484478D+05 0.11574313D+01  1  2  6  2  7  2        2 0.106331631319D-01 0.100000000000D+01
0.277913306200D-04 0.000000000000D+00 0.000000000000D+00 0.132009243453D-07 0.104232892805D-07  7 -2 2 23 -11 11 23 21 2 0.73690550D-02 0.20847486D+00 0.38999458D+05 0.38999458D+05 0.38999458D+05 0.11569099D+01  1  2 11  2  7  2        2 0.713412834457D-02 0.100000000000D+01
0.251521318507D-08 0.000000000000D+00 0.000000000000D+00 0.132009243453D-07 0.000000000000D+00  7 -2 21 23 -11 11 23 -2 2 0.73603315D-02 0.20859271D+00 0.38999458D+05 0.38999458D+05 0.38999458D+05 0.11569099D+01  1  2 12  4  7  2        2 0.300273318180D-06 0.100000000000D+01
-.216256920710D-06 0.000000000000D+00 -.113650028270D-07 0.132009243453D-07 0.000000000000D+00  7 -2 21 23 -11 11 23 -2 2 0.73603315D-02 0.20857571D+00 0.38484478D+05 0.38484478D+05 0.38484478D+05 0.11574313D+01  1  2  5  4  7  2        2 -.258657041387D-04 0.100000000000D+01
0.151646557761D-06 0.000000000000D+00 0.000000000000D+00 0.132009243453D-07 0.564410176236D-10  7 -2 21 23 -11 11 23 -2 2 0.73690550D-02 0.20847486D+00 0.38999458D+05 0.38999458D+05 0.38999458D+05 0.11569099D+01  1  2 11  4  7  2        2 0.181068048225D-04 0.100000000000D+01
  </mgrwgt>
  </event>
  <event>
  7     66 0.53686478E-06 0.12811431E+03 0.75467711E-02 0.10345695E+00
       -2 -1    0    0    0  501 0.00000000E+00 0.00000000E+00 0.14277350E+03 0.14277386E+03 0.32000000E+00 0.0000E+00 0.9000E+01
        2 -1    0    0  501    0 0.00000000E+00 0.00000000E+00 -.66841709E+03 0.66841717E+03 0.32000000E+00 0.0000E+00 0.9000E+01
       25  2    1    2    0    0 0.11554266E+03 -.13488826E+02 -.42082476E+03 0.52974297E+03 0.30000346E+03 0.0000E+00 0.0000E+00
       23  1    3    3    0    0 0.24303006E+02 0.25164316E+02 -.10910410E+02 0.98275975E+02 0.91188000E+02 0.0000E+00 0.9000E+01
      -11  1    1    2    0    0 -.17792873E+03 -.33017725E+02 -.90479104E+02 0.20232467E+03 0.51099893E-03 0.0000E+00 0.9000E+01
       11  1    1    2    0    0 0.62386077E+02 0.46506551E+02 -.14339724E+02 0.79123382E+02 0.51099893E-03 0.0000E+00 0.9000E+01
       23  1    3    3    0    0 0.91239650E+02 -.38653142E+02 -.40991435E+03 0.43146700E+03 0.91188000E+02 0.0000E+00 0.9000E+01
#aMCatNLO 1  0  0  1  2 0.61614694D+03 0.00000000D+00  -5  7  0 0.00000000D+00 0.00000000D+00 0.00000000D+00 0.00000000D+00 0.00000000D+00
  <mgrwgt>
 0.5011110871D-05    1    2    0
 0.308921385508090D+03 0.000000000000000D+00 0.000000000000000D+00 0.308921385508090D+03
 0.308921385508090D+03 0.000000000000000D+00 0.000000000000000D+00 -.308921385508090D+03
 0.119748242581073D+03 0.243030820465080D+02 0.251643068463410D+02 0.692856992548917D+02
 0.188663225719535D+03 -.177928727923670D+03 -.330176461166296D+02 0.533386873037003D+02
 0.916843240577798D+02 0.623858577434297D+02 0.465064969762035D+02 0.484888210884829D+02
 0.217746978657794D+03 0.912397881337320D+02 -.386531577059149D+02 -.171113207647075D+03
 0.000000000000000D+00 0.000000000000000D+00 0.000000000000000D+00 -.000000000000000D+00
 0.345480514473328D+03 0.000000000000000D+00 0.000000000000000D+00 0.345480514473328D+03
 0.378171572536931D+03 0.000000000000000D+00 0.000000000000000D+00 -.378171572536931D+03
 0.115824641151639D+03 0.121356213217474D+02 0.123415853034242D+02 0.692856992548917D+02
 0.212898931321821D+03 -.198669620071064D+03 -.548755087038902D+02 0.533386873037003D+02
 0.811500761927556D+02 0.534588719901711D+02 0.370987614493751D+02 0.484888210884829D+02
 0.214966204411633D+03 0.688899294545078D+02 -.622066353665441D+02 -.171113207647075D+03
 0.988122339324094D+02 0.641851973046380D+02 0.676417973176350D+02 -.326910580636032D+02
0.421487024074D-07 0.000000000000D+00 0.000000000000D+00 0.105865617729D-09 0.000000000000D+00  7 -2 2 23 -11 11 23 21 2 0.21965187D-01 0.10283343D+00 0.60297330D+05 0.60297330D+05 0.60297330D+05 0.11402098D+01  1  2 14  1  7  1       -2 0.501111087137D-05 0.100000000000D+01
  </mgrwgt>
  </event>
  <event>
  9     66 0.53686478E-06 0.29184702E+03 0.75467711E-02 0.99016041E-01
       -2 -1    0    0    0  501 0.00000000E+00 0.00000000E+00 0.13143458E+03 0.13143497E+03 0.32000000E+00 0.0000E+00 0.9000E+01
        2 -1    0    0  502    0 0.00000000E+00 0.00000000E+00 -.34418112E+04 0.34418112E+04 0.32000000E+00 0.0000E+00 0.9000E+01
       25  2    1    2    0    0 0.36833566E+02 -.25037823E+03 -.38599138E+03 0.54839489E+03 0.29614464E+03 0.0000E+00 0.0000E+00
       23  2    1    2    0    0 0.61702635E+02 0.24124327E+03 -.30679058E+03 0.40538660E+03 0.90621758E+02 0.0000E+00 0.0000E+00
       23  1    3    3    0    0 -.47213774E+02 -.13402184E+03 -.57259475E+02 0.17828318E+03 0.91188000E+02 0.0000E+00 0.9000E+01
      -13  1    4    4    0    0 0.31258215E+02 0.19665808E+03 -.28384020E+03 0.34672287E+03 0.10565837E+00 0.0000E+00 0.9000E+01
       13  1    4    4    0    0 0.30444421E+02 0.44585186E+02 -.22950373E+02 0.58663723E+02 0.10565837E+00 0.0000E+00 0.9000E+01
       23  1    3    3    0    0 0.84047340E+02 -.11635639E+03 -.32873190E+03 0.37011171E+03 0.91188000E+02 0.0000E+00 0.9000E+01
       21  1    1    2  502  501 -.98536201E+02 0.91349625E+01 -.26175946E+04 0.26194646E+04 0.75000000E+00 0.0000E+00 0.9000E+01
#aMCatNLO 2  0  0  2  1 0.98958731D+02 0.00000000D+00  -5  7  0 0.00000000D+00 0.00000000D+00 0.00000000D+00 0.00000000D+00 0.00000000D+00
  <mgrwgt>
 0.3984617770D-04    2    2    0
 0.324021398750670D+03 0.000000000000000D+00 0.000000000000000D+00 0.324021398750670D+03
 0.324021398750670D+03 0.000000000000000D+00 0.000000000000000D+00 -.324021398750670D+03
 0.206472244537107D+03 -.778532746048682D+02 -.131181357274674D+03 0.105099265254635D+03
 0.204886184990220D+03 0.313852202711148D+00 0.199527040607185D+03 -.465533066836317D+02
 0.578048944922067D+02 0.214568532586159D+02 0.454181870232669D+02 0.286041528980133D+02
 0.178879473481807D+03 0.560825691435411D+02 -.113763870355778D+03 -.871501114690170D+02
 0.000000000000000D+00 -.000000000000000D+00 0.000000000000000D+00 -.000000000000000D+00
 0.330125813679919D+03 0.000000000000000D+00 0.000000000000000D+00 0.330125813679919D+03
 0.137030588346876D+04 0.000000000000000D+00 0.000000000000000D+00 -.137030588346876D+04
 0.198877102164794D+03 -.472137734554026D+02 -.134021843221558D+03 0.105099265254635D+03
 0.204496381843297D+03 0.312582159450590D+02 0.196658291866250D+03 -.465533066836317D+02
 0.610973048153161D+02 0.304444194209860D+02 0.445849797443245D+02 0.286041528980133D+02
 0.191084165313761D+03 0.840473393556256D+02 -.116356390919601D+03 -.871501114690170D+02
 0.104487674301151D+04 -.985362012662681D+02 0.913496253058357D+01 -.104018006978885D+04
-.782862844195D-04 0.000000000000D+00 0.000000000000D+00 0.756163204815D-08 0.000000000000D+00  7 -2 2 23 -13 13 23 21 2 0.19846822D-01 0.52535328D+00 0.11935796D+06 0.11935796D+06 0.11935796D+06 0.11154695D+01  1  2 13  2  7  2        2 -.251282182385D-03 0.100000000000D+01
0.976438660580D-04 0.000000000000D+00 0.000000000000D+00 0.756163204815D-08 0.124364212506D-10  7 -2 2 23 -13 13 23 21 2 0.20220727D-01 0.52950923D+00 0.11935796D+06 0.11935796D+06 0.11935796D+06 0.11154695D+01  1  2  1  2  7  2        2 0.291128360088D-03 0.100000000000D+01
  </mgrwgt>
  </event>
  <event>
  9     66 0.53686478E-06 0.17975072E+03 0.75467711E-02 0.10406262E+00
       -2 -1    0    0    0  502 0.00000000E+00 0.00000000E+00 0.48640420E+02 0.48641473E+02 0.32000000E+00 0.0000E+00 0.9000E+01
        2 -1    0    0  501    0 0.00000000E+00 0.00000000E+00 -.16114248E+04 0.16114248E+04 0.32000000E+00 0.0000E+00 0.9000E+01
       25  2    1    2    0    0 0.22851920E+02 0.11798902E+02 -.55185538E+03 0.62803585E+03 0.29870260E+03 0.0000E+00 0.0000E+00
       23  2    1    2    0    0 0.15287685E+02 0.71309156E+02 -.56884521E+03 0.58058808E+03 0.90437456E+02 0.0000E+00 0.0000E+00
       23  1    3    3    0    0 -.67950785E+02 0.92583908E+02 -.24275889E+03 0.28361280E+03 0.91188000E+02 0.0000E+00 0.9000E+01
      -11  1    4    4    0    0 -.81669654E+01 0.39279587E+02 -.49606478E+03 0.49768449E+03 0.51099893E-03 0.0000E+00 0.9000E+01
       11  1    4    4    0    0 0.23454650E+02 0.32029569E+02 -.72780433E+02 0.82903591E+02 0.51099893E-03 0.0000E+00 0.9000E+01
       23  1    3    3    0    0 0.90802705E+02 -.80785006E+02 -.30909648E+03 0.34442305E+03 0.91188000E+02 0.0000E+00 0.9000E+01
       21  1    1    2  501  502 -.38139605E+02 -.83108057E+02 -.44208377E+03 0.45144236E+03 0.75000000E+00 0.0000E+00 0.9000E+01
#aMCatNLO 2  0  0  1  1 0.91441668D+02 0.00000000D+00  -5  7  0 0.00000000D+00 0.00000000D+00 0.00000000D+00 0.00000000D+00 0.00000000D+00
  <mgrwgt>
 0.2977833540D-04    1    2    0
 0.221607993279193D+03 0.000000000000000D+00 0.000000000000000D+00 0.221607993279193D+03
 0.221607993279193D+03 0.000000000000000D+00 0.000000000000000D+00 -.221607993279193D+03
 0.148050458487462D+03 -.809081296257437D+02 0.643492225185896D+02 0.540068424930084D+02
 0.961615274627562D+02 -.165489968705050D+02 0.210147316981955D+02 -.923663960442503D+02
 0.340189054471152D+02 0.202530330008988D+02 0.250530896125284D+02 0.109290110692089D+02
 0.164985095161053D+03 0.772040934953499D+02 -.110417043829313D+03 0.274305424820329D+02
 0.000000000000000D+00 -.000000000000000D+00 -.000000000000000D+00 -.000000000000000D+00
 0.250358871987392D+03 0.000000000000000D+00 0.000000000000000D+00 0.250358871987392D+03
 0.313072691035476D+03 0.000000000000000D+00 0.000000000000000D+00 -.313072691035476D+03
 0.156272452991998D+03 -.679507850443201D+02 0.925839078670383D+02 0.540068424930084D+02
 0.100703209411146D+03 -.816696536585896D+01 0.392795868641035D+02 -.923663960442503D+02
 0.411759295491406D+02 0.234546499381616D+02 0.320295689568747D+02 0.109290110692089D+02
 0.154398945965506D+03 0.908027050969733D+02 -.807850063902491D+02 0.274305424820329D+02
 0.110881025105077D+03 -.381396046249558D+02 -.831080572977674D+02 -.627138190480840D+02
0.166528279531D-06 0.000000000000D+00 0.000000000000D+00 0.215996202376D-07 0.190708113682D-10  7 -2 2 23 -11 11 23 21 2 0.74831891D-02 0.24791040D+00 0.55188976D+05 0.55188976D+05 0.55188976D+05 0.11435425D+01  1  2  1  1  7  1       -2 0.297783354039D-04 0.100000000000D+01
  </mgrwgt>
  </event>
  <event>
  8     66 0.53686478E-06 0.81646866E+03 0.75467711E-02 0.88605400E-01
       -2 -1    0    0    0  501 0.00000000E+00 0.00000000E+00 0.65312390E+03 0.65312398E+03 0.32000000E+00 0.0000E+00 0.9000E+01
        2 -1    0    0  501    0 0.00000000E+00 0.00000000E+00 -.10279424E+04 0.10279424E+04 0.32000000E+00 0.0000E+00 0.9000E+01
       25  2    1    2    0    0 0.19697685E+03 0.76242620E+03 -.25050365E+03 0.87884279E+03 0.29919722E+03 0.0000E+00 0.0000E+00
       23  2    1    2    0    0 -.19697685E+03 -.76242620E+03 -.12431480E+03 0.80222359E+03 0.89526148E+02 0.0000E+00 0.0000E+00
       23  1    3    3    0    0 -.40734485E+02 0.25918747E+03 -.66579114E+02 0.28563171E+03 0.91188000E+02 0.0000E+00 0.9000E+01
      -11  1    4    4    0    0 -.28095323E+02 -.37497211E+02 -.18606887E+02 0.50414326E+02 0.51099893E-03 0.0000E+00 0.9000E+01
       11  1    4    4    0    0 -.16888153E+03 -.72492899E+03 -.10570791E+03 0.75180927E+03 0.51099893E-03 0.0000E+00 0.9000E+01
       23  1    3    3    0    0 0.23771134E+03 0.50323873E+03 -.18392454E+03 0.59321108E+03 0.91188000E+02 0.0000E+00 0.9000E+01
#aMCatNLO 1  0  0  1  1 0.12631346D+03 0.00000000D+00  -5  7  0 0.00000000D+00 0.00000000D+00 0.00000000D+00 0.00000000D+00 0.00000000D+00
  <mgrwgt>
 0.2580699218D-03    4    2    0
 0.819374044075005D+03 0.000000000000000D+00 0.000000000000000D+00 0.819374044075005D+03
 0.819374044075005D+03 0.000000000000000D+00 0.000000000000000D+00 -.819374044075005D+03
 0.277779593876244D+03 -.407344849049842D+02 0.259187468613779D+03 -.296804365840110D+01
 0.474603899905822D+02 -.280953227663784D+02 -.374972110714822D+02 -.755649512485133D+01
 0.747045876721426D+03 -.168881528848971D+03 -.724928988030663D+03 0.635179773997645D+02
 0.566462227561758D+03 0.237711336520334D+03 0.503238730488367D+03 -.529934386165120D+02
 0.000000000000000D+00 0.000000000000000D+00 -.000000000000000D+00 -.000000000000000D+00
 0.856814125721522D+03 0.000000000000000D+00 0.000000000000000D+00 0.856814125721522D+03
 0.935738002462232D+03 0.000000000000000D+00 0.000000000000000D+00 -.935738002462232D+03
 0.298570989961889D+03 -.476079982070725D+02 0.280274961290479D+03 -.296804365840110D+01
 0.455243240435946D+02 -.292042514058682D+02 -.340950899819484D+02 -.755649512485133D+01
 0.700169857502450D+03 -.186140913812088D+03 -.671978315206112D+03 0.635179773997645D+02
 0.599343780696439D+03 0.223808022582393D+03 0.545893195237730D+03 -.529934386165120D+02
 0.148943175979381D+03 0.391451408426352D+02 -.120094751340149D+03 -.789238767407099D+02
0.164734809558D-03 0.000000000000D+00 0.000000000000D+00 0.483159225656D-06 0.000000000000D+00  7 -2 2 23 -11 11 23 21 0 0.10048061D+00 0.15814499D+00 0.66662108D+06 0.66662108D+06 0.66662108D+06 0.10597929D+01  1  2  2  1  7  1       -2 0.400096805264D-03 0.100000000000D+01
-.915179346077D-05 0.000000000000D+00 -.632625044373D-06 0.483159225656D-06 0.000000000000D+00  7 -2 2 23 -11 11 23 21 2 0.10048061D+00 0.15814499D+00 0.66662108D+06 0.66662108D+06 0.66662108D+06 0.10597929D+01  1  2  3  1  7  1       -2 -.249647904222D-04 0.100000000000D+01
0.997648024839D-05 0.000000000000D+00 0.000000000000D+00 0.483159225656D-06 0.000000000000D+00  7 -2 2 23 -11 11 23 21 2 0.10048061D+00 0.15814499D+00 0.66662108D+06 0.66662108D+06 0.66662108D+06 0.10597929D+01  1  2 15  1  7  1       -2 0.272144186404D-04 0.100000000000D+01
-.528900428755D-04 0.000000000000D+00 0.000000000000D+00 0.483159225656D-06 0.000000000000D+00  7 -2 2 23 -11 11 23 21 2 0.10048061D+00 0.15814499D+00 0.66662108D+06 0.66662108D+06 0.66662108D+06 0.10597929D+01  1  2  4  1  7  1       -2 -.144276511644D-03 0.100000000000D+01
  </mgrwgt>
  </event>
  <event>
  8     66 0.53686478E-06 0.19855735E+03 0.75467711E-02 0.98370443E-01
       -2 -1    0    0    0  501 0.00000000E+00 0.00000000E+00 0.47184183E+02 0.47185268E+02 0.32000000E+00 0.0000E+00 0.9000E+01
        2 -1    0    0  501    0 0.00000000E+00 0.00000000E+00 -.17601290E+04 0.17601290E+04 0.32000000E+00 0.0000E+00 0.9000E+01
       25  2    1    2    0    0 0.16914683E+03 -.36841954E+02 -.13705621E+04 0.14136594E+04 0.30004086E+03 0.0000E+00 0.0000E+00
       23  2    1    2    0    0 -.16914683E+03 0.36841954E+02 -.34238272E+03 0.39365488E+03 0.88149053E+02 0.0000E+00 0.0000E+00
       23  1    3    3    0    0 -.37047711E+02 0.10525394E+02 -.23557923E+03 0.25553110E+03 0.91188000E+02 0.0000E+00 0.9000E+01
      -13  1    4    4    0    0 -.95931181E+02 -.10743730E+02 -.11537264E+03 0.15042964E+03 0.10565837E+00 0.0000E+00 0.9000E+01
       13  1    4    4    0    0 -.73215648E+02 0.47585684E+02 -.22701008E+03 0.24322524E+03 0.10565837E+00 0.0000E+00 0.9000E+01
       23  1    3    3    0    0 0.20619454E+03 -.47367349E+02 -.11349829E+04 0.11581283E+04 0.91188000E+02 0.0000E+00 0.9000E+01
#aMCatNLO 1  0  0  2  1 0.18690541D+03 0.00000000D+00  -5  7  0 0.00000000D+00 0.00000000D+00 0.00000000D+00 0.00000000D+00 0.00000000D+00
  <mgrwgt>
 0.2842616739D-03    7    2    0
 0.288186147473035D+03 0.000000000000000D+00 0.000000000000000D+00 0.288186147473035D+03
 0.288186147473035D+03 0.000000000000000D+00 0.000000000000000D+00 -.288186147473035D+03
 0.101133910793811D+03 -.370477099323442D+02 0.105253940447173D+02 0.207243778536971D+02
 0.128817270249369D+03 -.959312145346111D+02 -.107438129618089D+02 0.852974892681794D+02
 0.880137293381761D+02 -.732156158755080D+02 0.475857676229490D+02 0.110220172254661D+02
 0.258407384564714D+03 0.206194540342463D+03 -.473673487058573D+02 -.117043884347343D+03
 0.000000000000000D+00 -.000000000000000D+00 -.000000000000000D+00 -.000000000000000D+00
 0.318765282716427D+03 0.000000000000000D+00 0.000000000000000D+00 0.318765282716427D+03
 0.855516755070704D+03 0.000000000000000D+00 0.000000000000000D+00 -.855516755070704D+03
 0.102212243053917D+03 -.185840257679880D+02 0.368405406440370D+02 0.207243778536971D+02
 0.114701499944495D+03 -.738198857689887D+02 0.207700957897493D+02 0.852974892681794D+02
 0.915209447237306D+02 -.569139969085127D+02 0.708194564742169D+02 0.110220172254661D+02
 0.297484988209397D+03 0.256669167012617D+03 0.245710135704640D+02 -.117043884347343D+03
 0.568362361855591D+03 -.107351258567128D+03 -.153001106478467D+03 -.536751472354277D+03
0.235730881863D-05 0.000000000000D+00 0.000000000000D+00 0.501782200116D-07 0.000000000000D+00  7 -2 2 23 -13 13 23 21 0 0.72591908D-02 0.27078916D+00 0.65848663D+05 0.65848663D+05 0.65848663D+05 0.11369237D+01  1  2  2  2  7  2        2 0.281112777995D-03 0.100000000000D+01
-.128817173503D-06 0.000000000000D+00 -.905268655721D-08 0.501782200116D-07 0.000000000000D+00  7 -2 2 23 -13 13 23 21 2 0.72591908D-02 0.27078916D+00 0.65848663D+05 0.65848663D+05 0.65848663D+05 0.11369237D+01  1  2  3  2  7  2        2 -.198563985907D-04 0.100000000000D+01
0.153365129535D-06 0.000000000000D+00 0.000000000000D+00 0.501782200116D-07 0.000000000000D+00  7 -2 2 23 -13 13 23 21 2 0.72591908D-02 0.27078916D+00 0.65848663D+05 0.65848663D+05 0.65848663D+05 0.11369237D+01  1  2 15  2  7  2        2 0.236403195253D-04 0.100000000000D+01
0.660371915185D-06 0.000000000000D+00 0.000000000000D+00 0.501782200116D-07 0.000000000000D+00  7 -2 2 23 -13 13 23 21 2 0.72591908D-02 0.78611391D+00 0.13250616D+06 0.13250616D+06 0.13250616D+06 0.11118271D+01  1  2 12  2  7  2        2 0.262251885689D-06 0.100000000000D+01
-.329466776688D-05 0.000000000000D+00 -.608829353748D-06 0.501782200116D-07 0.000000000000D+00  7 -2 2 23 -13 13 23 21 2 0.72591908D-02 0.80865335D+00 0.65848663D+05 0.65848663D+05 0.65848663D+05 0.11369237D+01  1  2  5  2  7  2        2 -.896929653159D-06 0.100000000000D+01
0.795796016850D-07 0.000000000000D+00 0.000000000000D+00 0.501782200116D-07 0.000000000000D+00  7 -2 21 23 -13 13 23 -2 2 0.72591908D-02 0.78611391D+00 0.13250616D+06 0.13250616D+06 0.13250616D+06 0.11118271D+01  1  2 12  4  7  2        2 0.190167261523D-09 0.100000000000D+01
-.379054486715D-06 0.000000000000D+00 -.757203254246D-07 0.501782200116D-07 0.000000000000D+00  7 -2 21 23 -13 13 23 -2 2 0.72591908D-02 0.80865335D+00 0.65848663D+05 0.65848663D+05 0.65848663D+05 0.11369237D+01  1  2  5  4  7  2        2 -.537465366420D-09 0.100000000000D+01
  </mgrwgt>
  </event>
  <event>
  8     66 0.53686478E-06 0.27013785E+03 0.75467711E-02 0.95675094E-01
       -2 -1    0    0    0  501 0.00000000E+00 0.00000000E+00 0.54006697E+03 0.54006706E+03 0.32000000E+00 0.0000E+00 0.9000E+01
        2 -1    0    0  501    0 0.00000000E+00 0.00000000E+00 -.19378272E+04 0.19378272E+04 0.32000000E+00 0.0000E+00 0.9000E+01
       25  2    1    2    0    0 -.71788939E+02 -.15644777E+03 0.47891624E+03 0.59115295E+03 0.30078479E+03 0.0000E+00 0.0000E+00
       23  2    1    2    0    0 0.71788939E+02 0.15644777E+03 -.18766765E+04 0.18867413E+04 0.90822456E+02 0.0000E+00 0.0000E+00
       23  1    3    3    0    0 -.13920634E+03 -.17689628E+02 0.23114529E+03 0.28536770E+03 0.91188000E+02 0.0000E+00 0.9000E+01
      -11  1    4    4    0    0 -.21173791E+02 0.32365391E+02 -.30711700E+03 0.30954273E+03 0.51099893E-03 0.0000E+00 0.9000E+01
       11  1    4    4    0    0 0.92962730E+02 0.12408238E+03 -.15695595E+04 0.15771986E+04 0.51099893E-03 0.0000E+00 0.9000E+01
       23  1    3    3    0    0 0.67417396E+02 -.13875814E+03 0.24777095E+03 0.30578525E+03 0.91188000E+02 0.0000E+00 0.9000E+01
#aMCatNLO 1  0  0  2  2 0.38926359D+03 0.00000000D+00  -5  7  0 0.00000000D+00 0.00000000D+00 0.00000000D+00 0.00000000D+00 0.00000000D+00
  <mgrwgt>
 0.4825999409D-03    3    2    0
 0.102301349610837D+04 0.000000000000000D+00 0.000000000000000D+00 0.102301349610837D+04
 0.102301349610837D+04 0.000000000000000D+00 0.000000000000000D+00 -.102301349610837D+04
 0.503510806419320D+03 -.139206335029984D+03 -.176896281218427D+02 0.474885832786644D+03
 0.165070268733443D+03 -.211737906264559D+02 0.323653911415014D+02 -.160475374018869D+03
 0.837849950440311D+03 0.929627300276904D+02 0.124082379022879D+03 -.823379641170859D+03
 0.539595966623661D+03 0.674173956287494D+02 -.138758142042538D+03 0.508969182403083D+03
 0.000000000000000D+00 0.000000000000000D+00 0.000000000000000D+00 0.000000000000000D+00
 0.333054590857641D+04 0.000000000000000D+00 0.000000000000000D+00 0.333054590857641D+04
 0.105791166455111D+04 0.000000000000000D+00 0.000000000000000D+00 -.105791166455111D+04
 0.531650202923787D+03 -.199907737102563D+03 -.941117919815133D+02 0.474885832786644D+03
 0.165715002495709D+03 -.405708984844013D+02 0.794472037427307D+01 -.160475374018869D+03
 0.823392933412597D+03 -.445184734028558D+01 0.143887261697022D+01 -.823379641170859D+03
 0.561969062273761D+03 0.282209004374982D+01 -.220082672604120D+03 0.508969182403083D+03
 0.230573037202167D+04 0.242108392883500D+03 0.304810871594390D+03 0.227263424402529D+04
0.312844740432D-03 0.000000000000D+00 0.000000000000D+00 0.425208303025D-05 0.000000000000D+00  7 -2 2 23 -11 11 23 21 0 0.83087235D-01 0.29812727D+00 0.72974460D+05 0.72974460D+05 0.72974460D+05 0.11331264D+01  1  2  2  2  7  2        2 0.416140611149D-03 0.100000000000D+01
0.200885107789D-04 0.000000000000D+00 -.120140617717D-05 0.425208303025D-05 0.000000000000D+00  7 -2 2 23 -11 11 23 21 2 0.83087235D-01 0.29812727D+00 0.72974460D+05 0.72974460D+05 0.72974460D+05 0.11331264D+01  1  2  3  2  7  2        2 0.343096062997D-04 0.100000000000D+01
0.188238844937D-04 0.000000000000D+00 0.000000000000D+00 0.425208303025D-05 0.000000000000D+00  7 -2 2 23 -11 11 23 21 2 0.83087235D-01 0.29812727D+00 0.72974460D+05 0.72974460D+05 0.72974460D+05 0.11331264D+01  1  2 15  2  7  2        2 0.321497234473D-04 0.100000000000D+01
  </mgrwgt>
  </event>
  <event>
  8     66 0.53686478E-06 0.18273171E+03 0.75467711E-02 0.10029023E+00
       -2 -1    0    0    0  501 0.00000000E+00 0.00000000E+00 0.59131484E+02 0.59132350E+02 0.32000000E+00 0.0000E+00 0.9000E+01
        2 -1    0    0  501    0 0.00000000E+00 0.00000000E+00 -.30149447E+04 0.30149448E+04 0.32000000E+00 0.0000E+00 0.9000E+01
       25  2    1    2    0    0 0.17046681E+03 0.13797266E+03 -.27018593E+04 0.27273034E+04 0.30007396E+03 0.0000E+00 0.0000E+00
       23  2    1    2    0    0 -.17046681E+03 -.13797266E+03 -.25395394E+03 0.34677376E+03 0.87544563E+02 0.0000E+00 0.0000E+00
       23  1    3    3    0    0 0.31812737E+01 -.17468432E+02 -.13551169E+04 0.13582976E+04 0.91188000E+02 0.0000E+00 0.9000E+01
      -11  1    4    4    0    0 -.56507434E+02 -.10155842E+03 -.13355302E+03 0.17704128E+03 0.51099893E-03 0.0000E+00 0.9000E+01
       11  1    4    4    0    0 -.11395938E+03 -.36414235E+02 -.12040091E+03 0.16973248E+03 0.51099893E-03 0.0000E+00 0.9000E+01
       23  1    3    3    0    0 0.16728554E+03 0.15544109E+03 -.13467425E+04 0.13690058E+04 0.91188000E+02 0.0000E+00 0.9000E+01
#aMCatNLO 1  0  0  2  1 0.52874740D+02 0.00000000D+00  -5  7  0 0.00000000D+00 0.00000000D+00 0.00000000D+00 0.00000000D+00 0.00000000D+00
  <mgrwgt>
 0.5532864187D-03    9    2    0
 0.422231589488114D+03 0.000000000000000D+00 0.000000000000000D+00 0.422231589488114D+03
 0.422231589488114D+03 0.000000000000000D+00 0.000000000000000D+00 -.422231589488114D+03
 0.201357522293936D+03 0.318127370265503D+01 -.174684318862130D+02 -.178645833495827D+03
 0.177012737552204D+03 -.565074336614473D+02 -.101558423837331D+03 0.133515189189843D+03
 0.196442106184779D+03 -.113959376489782D+03 -.364142351190444D+02 0.155810028794898D+03
 0.269650812945309D+03 0.167285536448574D+03 0.155441090842588D+03 -.110679384488914D+03
 0.000000000000000D+00 -.000000000000000D+00 -.000000000000000D+00 -.000000000000000D+00
 0.446291643103794D+03 0.000000000000000D+00 0.000000000000000D+00 0.446291643103794D+03
 0.453141890891660D+03 0.000000000000000D+00 0.000000000000000D+00 -.453141890891660D+03
 0.200664694470706D+03 0.356625039907390D+01 -.490064237566203D+01 -.178645833495827D+03
 0.170895112655361D+03 -.561742769122782D+02 -.906823268254168D+02 0.133515189189843D+03
 0.194329379246303D+03 -.113585173499891D+03 -.241981595619607D+02 0.155810028794898D+03
 0.280227707927863D+03 0.167812100423324D+03 0.172631079899220D+03 -.110679384488914D+03
 0.533166396952215D+02 -.161890041022923D+01 -.528499511361806D+02 -.685024778786559D+01
0.134218838743D-04 0.000000000000D+00 0.000000000000D+00 0.771332225257D-07 0.000000000000D+00  7 -2 2 23 -11 11 23 21 0 0.90972193D-02 0.46383772D+00 0.82554621D+05 0.82554621D+05 0.82554621D+05 0.11286191D+01  1  2  2  2  7  2        2 0.222067537196D-03 0.100000000000D+01
-.611314867236D-06 0.000000000000D+00 -.515435681405D-07 0.771332225257D-07 0.000000000000D+00  7 -2 2 23 -11 11 23 21 2 0.90972193D-02 0.46383772D+00 0.82554621D+05 0.82554621D+05 0.82554621D+05 0.11286191D+01  1  2  3  2  7  2        2 -.128834251439D-04 0.100000000000D+01
0.791849410870D-06 0.000000000000D+00 0.000000000000D+00 0.771332225257D-07 0.000000000000D+00  7 -2 2 23 -11 11 23 21 2 0.90972193D-02 0.46383772D+00 0.82554621D+05 0.82554621D+05 0.82554621D+05 0.11286191D+01  1  2 15  2  7  2        2 0.166881801130D-04 0.100000000000D+01
0.169039118787D-04 0.000000000000D+00 0.000000000000D+00 0.771332225257D-07 0.000000000000D+00  7 -2 2 23 -11 11 23 21 2 0.90972193D-02 0.51015840D+00 0.97504484D+05 0.97504484D+05 0.97504484D+05 0.11226238D+01  1  2 12  2  7  2        2 0.223708549864D-03 0.100000000000D+01
-.144638382316D-04 0.000000000000D+00 0.000000000000D+00 0.771332225257D-07 0.000000000000D+00  7 -2 2 23 -11 11 23 21 2 0.90972193D-02 0.46383772D+00 0.82554621D+05 0.82554621D+05 0.82554621D+05 0.11286191D+01  1  2  4  2  7  2        2 -.304824546462D-03 0.100000000000D+01
-.548265143582D-04 0.000000000000D+00 -.121213846957D-04 0.771332225257D-07 0.000000000000D+00  7 -2 2 23 -11 11 23 21 2 0.90972193D-02 0.50667883D+00 0.82554621D+05 0.82554621D+05 0.82554621D+05 0.11286191D+01  1  2  5  2  7  2        2 -.765542761497D-03 0.100000000000D+01
0.557268962950D-04 0.000000000000D+00 0.120742378839D-04 0.771332225257D-07 0.000000000000D+00  7 -2 2 23 -11 11 23 21 2 0.90972193D-02 0.46383772D+00 0.82554621D+05 0.82554621D+05 0.82554621D+05 0.11286191D+01  1  2  6  2  7  2        2 0.117444108658D-02 0.100000000000D+01
0.263065919131D-06 0.000000000000D+00 0.000000000000D+00 0.771332225257D-07 0.000000000000D+00  7 -2 21 23 -11 11 23 -2 2 0.90972193D-02 0.51015840D+00 0.97504484D+05 0.97504484D+05 0.97504484D+05 0.11226238D+01  1  2 12  4  7  2        2 0.166967329644D-06 0.100000000000D+01
-.767690723171D-06 0.000000000000D+00 -.176730463974D-06 0.771332225257D-07 0.000000000000D+00  7 -2 21 23 -11 11 23 -2 2 0.90972193D-02 0.50667883D+00 0.82554621D+05 0.82554621D+05 0.82554621D+05 0.11286191D+01  1  2  5  4  7  2        2 -.535169252670D-06 0.100000000000D+01
  </mgrwgt>
  </event>
  <event>
  9     66 0.53686478E-06 0.18875254E+03 0.75467711E-02 0.10540301E+00
       -2 -1    0    0    0  502 0.00000000E+00 0.00000000E+00 0.13716403E+04 0.13716403E+04 0.32000000E+00 0.0000E+00 0.9000E+01
        2 -1    0    0  501    0 0.00000000E+00 0.00000000E+00 -.88813504E+02 0.88814081E+02 0.32000000E+00 0.0000E+00 0.9000E+01
       25  2    1    2    0    0 -.78282444E+02 0.43841057E+02 0.25319939E+03 0.40237904E+03 0.29958101E+03 0.0000E+00 0.0000E+00
       23  2    1    2    0    0 0.20965763E+02 -.30385356E+02 0.96796837E+03 0.97281895E+03 0.89727981E+02 0.0000E+00 0.0000E+00
       23  1    3    3    0    0 -.16004030E+03 0.38805967E+02 0.13129738E+03 0.22950611E+03 0.91188000E+02 0.0000E+00 0.9000E+01
      -11  1    4    4    0    0 0.24324917E+02 0.21244089E+01 0.85154840E+03 0.85189841E+03 0.51099893E-03 0.0000E+00 0.9000E+01
       11  1    4    4    0    0 -.33591542E+01 -.32509765E+02 0.11641997E+03 0.12092054E+03 0.51099893E-03 0.0000E+00 0.9000E+01
       23  1    3    3    0    0 0.81757854E+02 0.50350909E+01 0.12190201E+03 0.17287293E+03 0.91188000E+02 0.0000E+00 0.9000E+01
       21  1    1    2  501  502 0.57316680E+02 -.13455701E+02 0.61658997E+02 0.85256391E+02 0.75000000E+00 0.0000E+00 0.9000E+01
#aMCatNLO 2  0  0  1  1 0.58874933D+02 0.00000000D+00  -5  7  0 0.00000000D+00 0.00000000D+00 0.00000000D+00 0.00000000D+00 0.00000000D+00
  <mgrwgt>
 0.1369758785D-03    1    2    0
 0.314822391150543D+03 0.000000000000000D+00 0.000000000000000D+00 0.314822391150543D+03
 0.314822391150543D+03 0.000000000000000D+00 0.000000000000000D+00 -.314822391150543D+03
 0.231217780048093D+03 -.138387644943405D+03 0.337227756384633D+02 -.157664341550728D+03
 0.211247933739443D+03 0.433732624764697D+02 -.234739298366782D+01 0.206733982106261D+03
 0.386984578012813D+02 0.130685600429814D+00 -.333290422565088D+02 0.196654137951696D+02
 0.148480610712269D+03 0.948836968665051D+02 0.195365960171332D+01 -.687350543507026D+02
 0.000000000000000D+00 0.000000000000000D+00 -.000000000000000D+00 -.000000000000000D+00
 0.334085538100480D+03 0.000000000000000D+00 0.000000000000000D+00 0.334085538100480D+03
 0.364634512866314D+03 0.000000000000000D+00 0.000000000000000D+00 -.364634512866314D+03
 0.245544488920606D+03 -.160040298226658D+03 0.388059665796342D+02 -.157664341550728D+03
 0.208170973196853D+03 0.243249174973731D+02 0.212440884936345D+01 0.206733982106261D+03
 0.381431153682729D+02 -.335915419997880D+01 -.325097651994427D+02 0.196654137951696D+02
 0.140532764669108D+03 0.817578544526491D+02 0.503509088777905D+01 -.687350543507026D+02
 0.663287088119533D+02 0.573166804766144D+02 -.134557011173339D+02 -.305489747658340D+02
0.166960845612D-04 0.000000000000D+00 0.000000000000D+00 0.247431855018D-06 0.507082027877D-09  7 -2 2 23 -11 11 23 21 2 0.21102032D+00 0.13663579D-01 0.45537627D+05 0.45537627D+05 0.45537627D+05 0.11508837D+01  1  2  1  1  7  1       -2 0.136975878477D-03 0.100000000000D+01
  </mgrwgt>
  </event>
  <event>
  8     66 0.53686478E-06 0.23511726E+03 0.75467711E-02 0.89805682E-01
       -2 -1    0    0    0  501 0.00000000E+00 0.00000000E+00 0.15744178E+03 0.15744210E+03 0.32000000E+00 0.0000E+00 0.9000E+01
        2 -1    0    0  501    0 0.00000000E+00 0.00000000E+00 -.38911316E+03 0.38911329E+03 0.32000000E+00 0.0000E+00 0.9000E+01
       25  2    1    2    0    0 0.98961079E+02 -.84605393E+02 -.20482005E+03 0.38566559E+03 0.29972541E+03 0.0000E+00 0.0000E+00
       23  2    1    2    0    0 -.98961079E+02 0.84605393E+02 -.26851327E+02 0.16088980E+03 0.90626529E+02 0.0000E+00 0.0000E+00
       23  1    3    3    0    0 -.28684032E+02 0.56101785E+02 -.10426860E+03 0.15217548E+03 0.91188000E+02 0.0000E+00 0.9000E+01
      -13  1    4    4    0    0 -.43383675E+02 0.82306152E+02 -.43668200E+02 0.10277825E+03 0.10565837E+00 0.0000E+00 0.9000E+01
       13  1    4    4    0    0 -.55577404E+02 0.22992414E+01 0.16816873E+02 0.58111554E+02 0.10565837E+00 0.0000E+00 0.9000E+01
       23  1    3    3    0    0 0.12764511E+03 -.14070718E+03 -.10055145E+03 0.23349011E+03 0.91188000E+02 0.0000E+00 0.9000E+01
#aMCatNLO 1  0  0  2  1 0.70939387D+03 0.00000000D+00  -5  7  0 0.00000000D+00 0.00000000D+00 0.00000000D+00 0.00000000D+00 0.00000000D+00
  <mgrwgt>
 0.2006450641D-03    3    2    0
 0.247513215658511D+03 0.000000000000000D+00 0.000000000000000D+00 0.247513215658511D+03
 0.247513215658511D+03 0.000000000000000D+00 0.000000000000000D+00 -.247513215658511D+03
 0.119218437432609D+03 -.286840301816040D+02 0.561017835550665D+02 -.439044505073703D+02
 0.930401819796760D+02 -.433836602170266D+02 0.823062606071576D+02 -.113814987847249D+00
 0.720308152681573D+02 -.555774206781232D+02 0.229913405742540D+01 0.457635514525295D+02
 0.210736996636580D+03 0.127645111076754D+03 -.140707178219650D+03 -.174528595731192D+01
 0.000000000000000D+00 0.000000000000000D+00 -.000000000000000D+00 0.000000000000000D+00
 0.230794743292514D+04 0.000000000000000D+00 0.000000000000000D+00 0.230794743292514D+04
 0.499602320027223D+03 0.000000000000000D+00 0.000000000000000D+00 -.499602320027223D+03
 0.285715221787385D+03 -.207984230756516D+03 0.167728636789551D+03 -.439044505073703D+02
 0.277699408185053D+03 -.207543100569903D+03 0.184506936883978D+03 -.113814987847249D+00
 0.195224580137895D+03 -.173915190112595D+03 0.759726312336819D+02 0.457635514525295D+02
 0.106398841406964D+03 -.127791734350151D+02 -.532832882993278D+02 -.174528595731192D+01
 0.194251170143506D+04 0.602221694874028D+03 -.374924916607883D+03 0.180834511289791D+04
0.139659101902D-05 0.000000000000D+00 0.000000000000D+00 0.974454873433D-07 0.000000000000D+00  7 -2 2 23 -13 13 23 21 0 0.24221847D-01 0.59863598D-01 0.55280126D+05 0.55280126D+05 0.55280126D+05 0.11434801D+01  1  2  2  2  7  2        2 0.198129907676D-03 0.100000000000D+01
-.773393552542D-07 0.000000000000D+00 -.536327724390D-08 0.974454873433D-07 0.000000000000D+00  7 -2 2 23 -13 13 23 21 2 0.24221847D-01 0.59863598D-01 0.55280126D+05 0.55280126D+05 0.55280126D+05 0.11434801D+01  1  2  3  2  7  2        2 -.143462548243D-04 0.100000000000D+01
0.908983346444D-07 0.000000000000D+00 0.000000000000D+00 0.974454873433D-07 0.000000000000D+00  7 -2 2 23 -13 13 23 21 2 0.24221847D-01 0.59863598D-01 0.55280126D+05 0.55280126D+05 0.55280126D+05 0.11434801D+01  1  2 15  2  7  2        2 0.168614112133D-04 0.100000000000D+01
  </mgrwgt>
  </event>
  <event>
  8     66 0.53686478E-06 0.22761406E+03 0.75467711E-02 0.95309578E-01
       -2 -1    0    0    0  501 0.00000000E+00 0.00000000E+00 0.81173309E+02 0.81173940E+02 0.32000000E+00 0.0000E+00 0.9000E+01
        2 -1    0    0  501    0 0.00000000E+00 0.00000000E+00 -.12933452E+04 0.12933453E+04 0.32000000E+00 0.0000E+00 0.9000E+01
       25  2    1    2    0    0 0.12650800E+03 -.80016035E+02 -.31352296E+03 0.45886072E+03 0.29974934E+03 0.0000E+00 0.0000E+00
       23  2    1    2    0    0 -.12650800E+03 0.80016035E+02 -.89864895E+03 0.91565848E+03 0.91943924E+02 0.0000E+00 0.0000E+00
       23  1    3    3    0    0 -.19832286E+02 -.11195255E+02 0.58390184E+00 0.93990668E+02 0.91188000E+02 0.0000E+00 0.9000E+01
      -13  1    4    4    0    0 -.14131587E+03 0.74762529E+02 -.82602841E+03 0.84135757E+03 0.10565837E+00 0.0000E+00 0.9000E+01
       13  1    4    4    0    0 0.14807869E+02 0.52535063E+01 -.72620536E+02 0.74300913E+02 0.10565837E+00 0.0000E+00 0.9000E+01
       23  1    3    3    0    0 0.14634029E+03 -.68820780E+02 -.31410687E+03 0.36487005E+03 0.91188000E+02 0.0000E+00 0.9000E+01
#aMCatNLO 1  0  0  1  1 0.38151286D+03 0.00000000D+00  -5  7  0 0.00000000D+00 0.00000000D+00 0.00000000D+00 0.00000000D+00 0.00000000D+00
  <mgrwgt>
 0.4273582558D-03    3    2    0
 0.324014770882271D+03 0.000000000000000D+00 0.000000000000000D+00 0.324014770882271D+03
 0.324014770882271D+03 0.000000000000000D+00 0.000000000000000D+00 -.324014770882271D+03
 0.200453464399340D+03 -.198322859774106D+02 -.111952550209504D+02 0.177052779542213D+03
 0.239454946841880D+03 -.141316074380931D+03 0.747626208376455D+02 -.178266623948784D+03
 0.217571431339709D+02 0.148080747185987D+02 0.525341460390590D+01 -.150497785857455D+02
 0.186363987389352D+03 0.146340285639743D+03 -.688207804206010D+02 0.162636229923159D+02
 0.000000000000000D+00 -.000000000000000D+00 -.000000000000000D+00 -.000000000000000D+00
 0.502263847951895D+03 0.000000000000000D+00 0.000000000000000D+00 0.502263847951895D+03
 0.664179761639795D+03 0.000000000000000D+00 0.000000000000000D+00 -.664179761639795D+03
 0.219519132253819D+03 0.896041011551786D+02 0.222893785022932D+02 0.177052779542213D+03
 0.211193013295368D+03 -.238863062981795D+02 0.110693017043127D+03 -.178266623948784D+03
 0.344890005123615D+02 0.294646851733013D+02 0.973794888567139D+01 -.150497785857455D+02
 0.286792436751066D+03 0.269635305408059D+03 -.310957726754054D+02 0.162636229923159D+02
 0.414450026779076D+03 -.364817785438360D+03 -.111624571755687D+03 -.161915913687900D+03
0.453648508970D-05 0.000000000000D+00 0.000000000000D+00 0.437805448320D-06 0.000000000000D+00  7 -2 2 23 -13 13 23 21 0 0.12488253D-01 0.19897624D+00 0.51808162D+05 0.51808162D+05 0.51808162D+05 0.11459408D+01  1  2  2  1  7  1       -2 0.420196987635D-03 0.100000000000D+01
-.213813483878D-06 0.000000000000D+00 -.174212972284D-07 0.437805448320D-06 0.000000000000D+00  7 -2 2 23 -13 13 23 21 2 0.12488253D-01 0.19897624D+00 0.51808162D+05 0.51808162D+05 0.51808162D+05 0.11459408D+01  1  2  3  1  7  1       -2 -.260071583432D-04 0.100000000000D+01
0.272688647344D-06 0.000000000000D+00 0.000000000000D+00 0.437805448320D-06 0.000000000000D+00  7 -2 2 23 -13 13 23 21 2 0.12488253D-01 0.19897624D+00 0.51808162D+05 0.51808162D+05 0.51808162D+05 0.11459408D+01  1  2 15  1  7  1       -2 0.331684265241D-04 0.100000000000D+01
  </mgrwgt>
  </event>
  <event>
  9     66 0.53686478E-06 0.18770210E+03 0.75467711E-02 0.10454582E+00
       -2 -1    0    0    0  501 0.00000000E+00 0.00000000E+00 0.63262736E+03 0.63262744E+03 0.32000000E+00 0.0000E+00 0.9000E+01
       21 -1    0    0  501  502 0.00000000E+00 0.00000000E+00 -.90483823E+02 0.90486931E+02 0.75000000E+00 0.0000E+00 0.9000E+01
       25  2    1    2    0    0 0.23413058E+02 0.50813363E+02 0.42286630E+03 0.52122470E+03 0.29954817E+03 0.0000E+00 0.0000E+00
       23  2    1    2    0    0 0.11558279E+02 0.10338136E+02 0.30150333E+02 0.88284186E+02 0.81514318E+02 0.0000E+00 0.0000E+00
       23  1    3    3    0    0 0.10626671E+03 -.44516281E+02 0.23523092E+03 0.27735023E+03 0.91188000E+02 0.0000E+00 0.9000E+01
      -11  1    4    4    0    0 0.21768345E+02 -.31053103E+02 0.24813334E+02 0.45319506E+02 0.51099893E-03 0.0000E+00 0.9000E+01
       11  1    4    4    0    0 -.10210066E+02 0.41391239E+02 0.53369990E+01 0.42964680E+02 0.51099893E-03 0.0000E+00 0.9000E+01
       23  1    3    3    0    0 -.82853648E+02 0.95329644E+02 0.18763538E+03 0.24387447E+03 0.91188000E+02 0.0000E+00 0.9000E+01
       -2  1    1    2    0  502 -.34971337E+02 -.61151499E+02 0.89126902E+02 0.11360549E+03 0.32000000E+00 0.0000E+00 0.9000E+01
#aMCatNLO 2  0  0  2  1 0.70445016D+02 0.00000000D+00  -5  7  0 0.00000000D+00 0.00000000D+00 0.00000000D+00 0.00000000D+00 0.00000000D+00
  <mgrwgt>
 0.3135529201D-03    1    2    0
 0.200819885589651D+03 0.000000000000000D+00 0.000000000000000D+00 0.200819885589651D+03
 0.200819885589651D+03 0.000000000000000D+00 0.000000000000000D+00 -.200819885589651D+03
 0.153097031500454D+03 0.930314352353804D+02 -.676597107798651D+02 0.434829311969793D+02
 0.436198435659244D+02 0.181479535381561D+02 -.373837840521870D+02 -.132587791682376D+02
 0.537684004416706D+02 -.150517223765496D+02 0.329250338098605D+02 -.397546058737181D+02
 0.151154495671254D+03 -.961276663969869D+02 0.721184610221916D+02 0.953045384497645D+01
 0.000000000000000D+00 -.000000000000000D+00 -.000000000000000D+00 0.000000000000000D+00
 0.242786836953110D+03 0.000000000000000D+00 0.000000000000000D+00 0.242786836953110D+03
 0.235776875778198D+03 0.000000000000000D+00 0.000000000000000D+00 -.235776875778198D+03
 0.153232923479956D+03 0.106266706441996D+03 -.445162811868152D+02 0.434829311969793D+02
 0.401740126147342D+02 0.217683451909086D+02 -.310531031007559D+02 -.132587791682376D+02
 0.582915846419465D+02 -.102100662803124D+02 0.413912393924871D+02 -.397546058737181D+02
 0.156072255648567D+03 -.828536482687067D+02 0.953296441685686D+02 0.953045384497645D+01
 0.707929363461036D+02 -.349713370838853D+02 -.611514992734845D+02 0.700996117491162D+01
0.557270357735D-06 0.000000000000D+00 0.000000000000D+00 0.795303793145D-09 0.344678920711D-13  7 -2 21 23 -11 11 23 -2 2 0.97327384D-01 0.13920812D-01 0.51464287D+05 0.51464287D+05 0.51464287D+05 0.11461944D+01  1  2  1  4  7  2        2 0.313552920114D-03 0.100000000000D+01
  </mgrwgt>
  </event>
  <event>
  8     66 0.53686478E-06 0.13866134E+03 0.75467711E-02 0.98445313E-01
       -2 -1    0    0    0  501 0.00000000E+00 0.00000000E+00 0.67967476E+02 0.67968230E+02 0.32000000E+00 0.0000E+00 0.9000E+01
        2 -1    0    0  501    0 0.00000000E+00 0.00000000E+00 -.23479930E+04 0.23479930E+04 0.32000000E+00 0.0000E+00 0.9000E+01
       25  2    1    2    0    0 -.84883027E+02 0.29683544E+03 -.88044701E+03 0.97998543E+03 0.29978008E+03 0.0000E+00 0.0000E+00
       23  2    1    2    0    0 0.84883027E+02 -.29683544E+03 -.13995785E+04 0.14359758E+04 0.88826451E+02 0.0000E+00 0.0000E+00
       23  1    3    3    0    0 -.13295869E+03 0.22562269E+03 -.74761281E+03 0.79738559E+03 0.91188000E+02 0.0000E+00 0.9000E+01
      -13  1    4    4    0    0 0.61888381E+02 -.28158993E+03 -.11819511E+04 0.12166065E+04 0.10565837E+00 0.0000E+00 0.9000E+01
       13  1    4    4    0    0 0.22994646E+02 -.15245510E+02 -.21762741E+03 0.21936928E+03 0.10565837E+00 0.0000E+00 0.9000E+01
       23  1    3    3    0    0 0.48075665E+02 0.71212756E+02 -.13283420E+03 0.18259984E+03 0.91188000E+02 0.0000E+00 0.9000E+01
#aMCatNLO 1  0  0  2  1 0.53130107D+01 0.00000000D+00  -5  7  0 0.00000000D+00 0.00000000D+00 0.00000000D+00 0.00000000D+00 0.00000000D+00
  <mgrwgt>
 0.2449333042D-03   11    2    0
 0.399484787909987D+03 0.000000000000000D+00 0.000000000000000D+00 0.399484787909987D+03
 0.399484787909987D+03 0.000000000000000D+00 0.000000000000000D+00 -.399484787909987D+03
 0.277703181632670D+03 -.132958691972848D+03 0.225622685085967D+03 0.148390009224266D+02
 0.305888848994728D+03 0.618884358590393D+02 -.281590307722133D+03 -.102199354416726D+03
 0.422936352887186D+02 0.229945908898638D+02 -.152451337132158D+02 -.320559865517989D+02
 0.173083909903857D+03 0.480756652239448D+02 0.712127563493818D+02 0.119416340046098D+03
 0.000000000000000D+00 0.000000000000000D+00 -.000000000000000D+00 -.000000000000000D+00
 0.399642075512972D+03 0.000000000000000D+00 0.000000000000000D+00 0.399642075512972D+03
 0.447030035301583D+03 0.000000000000000D+00 0.000000000000000D+00 -.447030035301583D+03
 0.278694551425981D+03 -.134804267379565D+03 0.225749895234553D+03 0.148390009224266D+02
 0.305356276462064D+03 0.598609312449978D+02 -.281450557722066D+03 -.102199354416726D+03
 0.421350511337752D+02 0.227145403108901D+02 -.152258306407793D+02 -.320559865517989D+02
 0.172801361908178D+03 0.469283612123115D+02 0.712918366802434D+02 0.119416340046098D+03
 0.476848698845582D+02 0.530043461136556D+01 -.365343551950360D+00 -.473879597886101D+02
0.412200564867D-05 0.000000000000D+00 0.000000000000D+00 0.162283005102D-06 0.000000000000D+00  7 -2 2 23 -13 13 23 21 0 0.10456594D-01 0.36122975D+00 0.12905967D+06 0.12905967D+06 0.12905967D+06 0.11127422D+01  1  2  2  2  7  2        2 0.133456389864D-03 0.100000000000D+01
-.225862375203D-06 0.000000000000D+00 -.158295870399D-07 0.162283005102D-06 0.000000000000D+00  7 -2 2 23 -13 13 23 21 2 0.10456594D-01 0.36122975D+00 0.12905967D+06 0.12905967D+06 0.12905967D+06 0.11127422D+01  1  2  3  2  7  2        2 -.905448612967D-05 0.100000000000D+01
0.268027744120D-06 0.000000000000D+00 0.000000000000D+00 0.162283005102D-06 0.000000000000D+00  7 -2 2 23 -13 13 23 21 2 0.10456594D-01 0.36122975D+00 0.12905967D+06 0.12905967D+06 0.12905967D+06 0.11127422D+01  1  2 15  2  7  2        2 0.107448329511D-04 0.100000000000D+01
0.267445299885D-03 0.000000000000D+00 0.000000000000D+00 0.162283005102D-06 0.000000000000D+00  7 -2 2 23 -13 13 23 21 2 0.10456594D-01 0.40428818D+00 0.13090064D+06 0.13090064D+06 0.13090064D+06 0.11122501D+01  1  2 12  2  7  2        2 0.741169530242D-02 0.100000000000D+01
-.505628377733D-03 0.000000000000D+00 0.000000000000D+00 0.162283005102D-06 0.000000000000D+00  7 -2 2 23 -13 13 23 21 2 0.10456594D-01 0.36122975D+00 0.12905967D+06 0.12905967D+06 0.12905967D+06 0.11127422D+01  1  2  4  2  7  2        2 -.202698883726D-01 0.100000000000D+01
-.519370452198D-03 0.000000000000D+00 -.353103203994D-05 0.162283005102D-06 0.000000000000D+00  7 -2 2 23 -13 13 23 21 2 0.10456594D-01 0.40426687D+00 0.12905967D+06 0.12905967D+06 0.12905967D+06 0.11127422D+01  1  2  5  2  7  2        2 -.144163898283D-01 0.100000000000D+01
0.516514587601D-03 0.000000000000D+00 0.350878045959D-05 0.162283005102D-06 0.000000000000D+00  7 -2 2 23 -13 13 23 21 2 0.10456594D-01 0.36122975D+00 0.12905967D+06 0.12905967D+06 0.12905967D+06 0.11127422D+01  1  2  6  2  7  2        2 0.207063003079D-01 0.100000000000D+01
0.241004196111D-03 0.000000000000D+00 0.000000000000D+00 0.162283005102D-06 0.381834672002D-07  7 -2 2 23 -13 13 23 21 2 0.10460711D-01 0.40422202D+00 0.13090064D+06 0.13090064D+06 0.13090064D+06 0.11122501D+01  1  2 11  2  7  2        2 0.667870484298D-02 0.100000000000D+01
0.480922459364D-05 0.000000000000D+00 0.000000000000D+00 0.162283005102D-06 0.000000000000D+00  7 -2 21 23 -13 13 23 -2 2 0.10456594D-01 0.40428818D+00 0.13090064D+06 0.13090064D+06 0.13090064D+06 0.11122501D+01  1  2 12  4  7  2        2 0.142422158648D-04 0.100000000000D+01
-.932114009001D-05 0.000000000000D+00 -.634700853702D-07 0.162283005102D-06 0.000000000000D+00  7 -2 21 23 -13 13 23 -2 2 0.10456594D-01 0.40426687D+00 0.12905967D+06 0.12905967D+06 0.12905967D+06 0.11127422D+01  1  2  5  4  7  2        2 -.276765776720D-04 0.100000000000D+01
0.431992475122D-05 0.000000000000D+00 0.000000000000D+00 0.162283005102D-06 0.684285410932D-09  7 -2 21 23 -13 13 23 -2 2 0.10460711D-01 0.40422202D+00 0.13090064D+06 0.13090064D+06 0.13090064D+06 0.11122501D+01  1  2 11  4  7  2        2 0.127986770083D-04 0.100000000000D+01
  </mgrwgt>
  </event>
  <event>
  8     66 0.53686478E-06 0.27619967E+03 0.75467711E-02 0.95120729E-01
       -2 -1    0    0    0  501 0.00000000E+00 0.00000000E+00 0.99604719E+02 0.99605233E+02 0.32000000E+00 0.0000E+00 0.9000E+01
        2 -1    0    0  501    0 0.00000000E+00 0.00000000E+00 -.10226639E+04 0.10226639E+04 0.32000000E+00 0.0000E+00 0.9000E+01
       25  2    1    2    0    0 -.15706393E+03 0.87857807E+02 -.82749113E+03 0.89858933E+03 0.30055473E+03 0.0000E+00 0.0000E+00
       23  2    1    2    0    0 0.15706393E+03 -.87857807E+02 -.95568007E+02 0.22367981E+03 0.92256927E+02 0.0000E+00 0.0000E+00
       23  1    3    3    0    0 0.40531663E+02 0.87296735E+02 -.32417858E+03 0.35024354E+03 0.91188000E+02 0.0000E+00 0.9000E+01
      -11  1    4    4    0    0 0.11183850E+03 -.10540483E+03 -.74627102E+02 0.17084271E+03 0.51099893E-03 0.0000E+00 0.9000E+01
       11  1    4    4    0    0 0.45225428E+02 0.17547020E+02 -.20940905E+02 0.52837097E+02 0.51099893E-03 0.0000E+00 0.9000E+01
       23  1    3    3    0    0 -.19759559E+03 0.56107240E+00 -.50331255E+03 0.54834579E+03 0.91188000E+02 0.0000E+00 0.9000E+01
#aMCatNLO 1  0  0  2  1 0.31851113D+03 0.00000000D+00  -5  7  0 0.00000000D+00 0.00000000D+00 0.00000000D+00 0.00000000D+00 0.00000000D+00
  <mgrwgt>
 0.2417058891D-03    5    2    0
 0.319158993148359D+03 0.000000000000000D+00 0.000000000000000D+00 0.319158993148359D+03
 0.319158993148359D+03 0.000000000000000D+00 0.000000000000000D+00 -.319158993148359D+03
 0.146998080003415D+03 0.405316631814634D+02 0.872967346979106D+02 -.634795130063033D+02
 0.192453096773900D+03 0.111838498692467D+03 -.105404826843589D+03 0.115845445081592D+03
 0.626141672918989D+02 0.452254283265381D+02 0.175470197472189D+02 0.395890979479170D+02
 0.236252642227503D+03 -.197595590200469D+03 0.561072398459750D+00 -.919550300232056D+02
 0.000000000000000D+00 -.000000000000000D+00 -.000000000000000D+00 -.000000000000000D+00
 0.457284388545950D+03 0.000000000000000D+00 0.000000000000000D+00 0.457284388545950D+03
 0.608800203957556D+03 0.000000000000000D+00 0.000000000000000D+00 -.608800203957556D+03
 0.195198362909392D+03 0.118358256180276D+03 0.108391993066617D+03 -.634795130063033D+02
 0.255184255009052D+03 0.213645781350735D+03 -.778094915123247D+02 0.115845445081592D+03
 0.940478530821688D+02 0.808554635023593D+02 0.272047057483460D+02 0.395890979479170D+02
 0.168941234387023D+03 -.105441333269970D+03 0.255399104127962D+02 -.919550300232056D+02
 0.352712887115869D+03 -.307418167763400D+03 -.833271177154344D+02 -.151515815411606D+03
0.259599693267D-05 0.000000000000D+00 0.000000000000D+00 0.141259007602D-06 0.000000000000D+00  7 -2 2 23 -11 11 23 21 0 0.15323846D-01 0.15733294D+00 0.76286259D+05 0.76286259D+05 0.76286259D+05 0.11314983D+01  1  2  2  2  7  2        2 0.247822083513D-03 0.100000000000D+01
-.140557325741D-06 0.000000000000D+00 -.996931176316D-08 0.141259007602D-06 0.000000000000D+00  7 -2 2 23 -11 11 23 21 2 0.15323846D-01 0.15733294D+00 0.76286259D+05 0.76286259D+05 0.76286259D+05 0.11314983D+01  1  2  3  2  7  2        2 -.171789688824D-04 0.100000000000D+01
0.170240622268D-06 0.000000000000D+00 0.000000000000D+00 0.141259007602D-06 0.000000000000D+00  7 -2 2 23 -11 11 23 21 2 0.15323846D-01 0.15733294D+00 0.76286259D+05 0.76286259D+05 0.76286259D+05 0.11314983D+01  1  2 15  2  7  2        2 0.208068724773D-04 0.100000000000D+01
-.407614943247D-06 0.000000000000D+00 -.751868547191D-06 0.141259007602D-06 0.000000000000D+00  7 -2 2 23 -11 11 23 21 2 0.15323846D-01 0.35672873D+00 0.76286259D+05 0.76286259D+05 0.76286259D+05 0.11314983D+01  1  2  5  2  7  2        2 -.978562803166D-05 0.100000000000D+01
0.112956861401D-07 0.000000000000D+00 -.668843353868D-07 0.141259007602D-06 0.000000000000D+00  7 -2 21 23 -11 11 23 -2 2 0.15323846D-01 0.35672873D+00 0.76286259D+05 0.76286259D+05 0.76286259D+05 0.11314983D+01  1  2  5  4  7  2        2 0.415300452508D-07 0.100000000000D+01
  </mgrwgt>
  </event>
  <event>
  8     66 0.53686478E-06 0.38773387E+03 0.75467711E-02 0.91801458E-01
       -2 -1    0    0    0  501 0.00000000E+00 0.00000000E+00 0.38224112E+03 0.38224125E+03 0.32000000E+00 0.0000E+00 0.9000E+01
        2 -1    0    0  501    0 0.00000000E+00 0.00000000E+00 -.67080233E+03 0.67080240E+03 0.32000000E+00 0.0000E+00 0.9000E+01
       25  2    1    2    0    0 -.10994723E+03 0.30602256E+03 0.17929565E+03 0.47618037E+03 0.29809833E+03 0.0000E+00 0.0000E+00
       23  2    1    2    0    0 0.10994723E+03 -.30602256E+03 -.46785686E+03 0.57686329E+03 0.90238640E+02 0.0000E+00 0.0000E+00
       23  1    3    3    0    0 0.68477436E+02 0.13989500E+03 0.82954225E+02 0.19863641E+03 0.91188000E+02 0.0000E+00 0.9000E+01
      -11  1    4    4    0    0 0.77644100E+02 -.10230211E+03 -.14454909E+03 0.19336175E+03 0.51099893E-03 0.0000E+00 0.9000E+01
       11  1    4    4    0    0 0.32303128E+02 -.20372045E+03 -.32330777E+03 0.38350153E+03 0.51099893E-03 0.0000E+00 0.9000E+01
       23  1    3    3    0    0 -.17842466E+03 0.16612756E+03 0.96341420E+02 0.27754396E+03 0.91188000E+02 0.0000E+00 0.9000E+01
#aMCatNLO 1  0  0  2  1 0.42111311D+03 0.00000000D+00  -5  7  0 0.00000000D+00 0.00000000D+00 0.00000000D+00 0.00000000D+00 0.00000000D+00
  <mgrwgt>
 0.1866990340D-03    5    2    0
 0.506367792958986D+03 0.000000000000000D+00 0.000000000000000D+00 0.506367792958986D+03
 0.506367792958986D+03 0.000000000000000D+00 0.000000000000000D+00 -.506367792958986D+03
 0.230178725999088D+03 0.684774355119455D+02 0.139894999863080D+03 0.142853856782305D+03
 0.159871053840690D+03 0.776440997304403D+02 -.102302111993758D+03 -.952072765853479D+02
 0.306644479187126D+03 0.323031279707608D+02 -.203720448032054D+03 -.226903776065688D+03
 0.316041326891069D+03 -.178424663213147D+03 0.166127560162732D+03 0.179257195868731D+03
 0.000000000000000D+00 -.000000000000000D+00 -.000000000000000D+00 -.000000000000000D+00
 0.713397415452205D+03 0.000000000000000D+00 0.000000000000000D+00 0.713397415452205D+03
 0.817095119434626D+03 0.000000000000000D+00 0.000000000000000D+00 -.817095119434626D+03
 0.306086619844473D+03 0.155948930050251D+03 0.201609707907178D+03 0.142853856782305D+03
 0.174998546350308D+03 0.132265463260980D+03 -.637645115897591D+02 -.952072765853479D+02
 0.294238208967609D+03 0.130314508311608D+03 -.134569420549775D+03 -.226903776065688D+03
 0.321476339958716D+03 -.744376658318316D+02 0.239494629259280D+03 0.179257195868731D+03
 0.433692819765724D+03 -.344091235791008D+03 -.242770405026924D+03 -.103697703982421D+03
0.131775466000D-04 0.000000000000D+00 0.000000000000D+00 0.676360008331D-07 0.000000000000D+00  7 -2 2 23 -11 11 23 21 0 0.58806342D-01 0.10320037D+00 0.15033755D+06 0.15033755D+06 0.15033755D+06 0.11074749D+01  1  2  2  2  7  2        2 0.195413248300D-03 0.100000000000D+01
-.668657471106D-06 0.000000000000D+00 -.506052486718D-07 0.676360008331D-07 0.000000000000D+00  7 -2 2 23 -11 11 23 21 2 0.58806342D-01 0.10320037D+00 0.15033755D+06 0.15033755D+06 0.15033755D+06 0.11074749D+01  1  2  3  2  7  2        2 -.121616052893D-04 0.100000000000D+01
0.791075175044D-06 0.000000000000D+00 0.000000000000D+00 0.676360008331D-07 0.000000000000D+00  7 -2 2 23 -11 11 23 21 2 0.58806342D-01 0.10320037D+00 0.15033755D+06 0.15033755D+06 0.15033755D+06 0.11074749D+01  1  2 15  2  7  2        2 0.143881500601D-04 0.100000000000D+01
-.169611592434D-05 0.000000000000D+00 -.415987371053D-05 0.676360008331D-07 0.000000000000D+00  7 -2 2 23 -11 11 23 21 2 0.58806342D-01 0.21059662D+00 0.15033755D+06 0.15033755D+06 0.15033755D+06 0.11074749D+01  1  2  5  2  7  2        2 -.112882433968D-04 0.100000000000D+01
0.122496568744D-06 0.000000000000D+00 -.320864511112D-06 0.676360008331D-07 0.000000000000D+00  7 -2 21 23 -11 11 23 -2 2 0.58806342D-01 0.21059662D+00 0.15033755D+06 0.15033755D+06 0.15033755D+06 0.11074749D+01  1  2  5  4  7  2        2 0.347484285590D-06 0.100000000000D+01
  </mgrwgt>
  </event>
  <event>
  8     66 0.53686478E-06 0.20966844E+03 0.75467711E-02 0.98227998E-01
       -2 -1    0    0    0  501 0.00000000E+00 0.00000000E+00 0.40390952E+03 0.40390965E+03 0.32000000E+00 0.0000E+00 0.9000E+01
        2 -1    0    0  501    0 0.00000000E+00 0.00000000E+00 -.12133507E+03 0.12133549E+03 0.32000000E+00 0.0000E+00 0.9000E+01
       25  2    1    2    0    0 0.76023795E+02 -.14011742E+02 0.13980857E+03 0.33905823E+03 0.29906204E+03 0.0000E+00 0.0000E+00
       23  2    1    2    0    0 -.76023795E+02 0.14011742E+02 0.14276588E+03 0.18618691E+03 0.91145606E+02 0.0000E+00 0.0000E+00
       23  1    3    3    0    0 -.79863963E+02 -.95805045E+01 0.91150256E+02 0.15196598E+03 0.91188000E+02 0.0000E+00 0.9000E+01
      -13  1    4    4    0    0 -.93478080E+02 0.24615747E+02 0.13036590E+03 0.16229407E+03 0.10565837E+00 0.0000E+00 0.9000E+01
       13  1    4    4    0    0 0.17454285E+02 -.10604005E+02 0.12399984E+02 0.23892839E+02 0.10565837E+00 0.0000E+00 0.9000E+01
       23  1    3    3    0    0 0.15588776E+03 -.44312375E+01 0.48658313E+02 0.18709225E+03 0.91188000E+02 0.0000E+00 0.9000E+01
#aMCatNLO 1  0  0  2  1 0.25043286D+03 0.00000000D+00  -5  7  0 0.00000000D+00 0.00000000D+00 0.00000000D+00 0.00000000D+00 0.00000000D+00
  <mgrwgt>
 0.1788408928D-03    5    2    0
 0.221378714243067D+03 0.000000000000000D+00 0.000000000000000D+00 0.221378714243067D+03
 0.221378714243067D+03 0.000000000000000D+00 0.000000000000000D+00 -.221378714243067D+03
 0.122104458049875D+03 -.798639510614338D+02 -.958050664105940D+01 0.111449784661665D+02
 0.109328845025138D+03 -.934782378354792D+02 0.246157911549098D+02 0.510752213066382D+02
 0.204301842316676D+02 0.174544125371244D+02 -.106040436586220D+02 -.538673193868556D+00
 0.190893941179453D+03 0.155887776359789D+03 -.443124085522835D+01 -.616815265789361D+02
 0.000000000000000D+00 0.000000000000000D+00 0.000000000000000D+00 -.000000000000000D+00
 0.273988635387513D+03 0.000000000000000D+00 0.000000000000000D+00 0.273988635387513D+03
 0.105222297656012D+04 0.000000000000000D+00 0.000000000000000D+00 -.105222297656012D+04
 0.183429938484670D+03 -.152549821851920D+03 -.439958213518731D+02 0.111449784661665D+02
 0.167434895609869D+03 -.159319641354881D+03 -.655880438173002D+01 0.510752213066382D+02
 0.171156186276314D+02 0.852235969361572D+01 -.148331930968812D+02 -.538673193868556D+00
 0.140695040015601D+03 0.770035848708358D+02 -.417813371844827D+02 -.616815265789361D+02
 0.817536119209859D+03 0.226343518642349D+03 0.107169156014967D+03 -.778234341172604D+03
0.311962452544D-05 0.000000000000D+00 0.000000000000D+00 0.437780992780D-07 0.000000000000D+00  7 -2 2 23 -13 13 23 21 0 0.62139969D-01 0.18666976D-01 0.43960855D+05 0.43960855D+05 0.43960855D+05 0.11522454D+01  1  2  2  2  7  2        2 0.285622698607D-03 0.100000000000D+01
-.172690073629D-06 0.000000000000D+00 -.119801795937D-07 0.437780992780D-07 0.000000000000D+00  7 -2 2 23 -13 13 23 21 2 0.62139969D-01 0.18666976D-01 0.43960855D+05 0.43960855D+05 0.43960855D+05 0.11522454D+01  1  2  3  2  7  2        2 -.209917047972D-04 0.100000000000D+01
0.197783127809D-06 0.000000000000D+00 0.000000000000D+00 0.437780992780D-07 0.000000000000D+00  7 -2 2 23 -13 13 23 21 2 0.62139969D-01 0.18666976D-01 0.43960855D+05 0.43960855D+05 0.43960855D+05 0.11522454D+01  1  2 15  2  7  2        2 0.240419437296D-04 0.100000000000D+01
-.457143017836D-05 0.000000000000D+00 -.150350105670D-05 0.437780992780D-07 0.000000000000D+00  7 -2 2 23 -13 13 23 21 2 0.62139969D-01 0.10223806D+00 0.43960855D+05 0.43960855D+05 0.43960855D+05 0.11522454D+01  1  2  5  2  7  2        2 -.837634419290D-04 0.100000000000D+01
-.102047768830D-05 0.000000000000D+00 -.312873160789D-06 0.437780992780D-07 0.000000000000D+00  7 -2 21 23 -13 13 23 -2 2 0.62139969D-01 0.10223806D+00 0.43960855D+05 0.43960855D+05 0.43960855D+05 0.11522454D+01  1  2  5  4  7  2        2 -.260686027678D-04 0.100000000000D+01
  </mgrwgt>
  </event>
  <event>
  8     66 0.53686478E-06 0.77662821E+02 0.75467711E-02 0.10180385E+00
       -2 -1    0    0    0  501 0.00000000E+00 0.00000000E+00 0.50123004E+02 0.50124026E+02 0.32000000E+00 0.0000E+00 0.9000E+01
        2 -1    0    0  501    0 0.00000000E+00 0.00000000E+00 -.12292876E+04 0.12292877E+04 0.32000000E+00 0.0000E+00 0.9000E+01
       25  2    1    2    0    0 0.35864502E+02 0.58739425E+02 -.10892580E+04 0.11326428E+04 0.30275410E+03 0.0000E+00 0.0000E+00
       23  2    1    2    0    0 -.35864502E+02 -.58739425E+02 -.89906621E+02 0.14676893E+03 0.93388099E+02 0.0000E+00 0.0000E+00
       23  1    3    3    0    0 0.33752966E+01 -.57838217E+02 -.17317040E+03 0.20410754E+03 0.91188000E+02 0.0000E+00 0.9000E+01
      -11  1    4    4    0    0 -.55688511E+02 -.50538701E+02 -.26343086E+02 0.79682676E+02 0.51099893E-03 0.0000E+00 0.9000E+01
       11  1    4    4    0    0 0.19824009E+02 -.82007241E+01 -.63563535E+02 0.67086259E+02 0.51099893E-03 0.0000E+00 0.9000E+01
       23  1    3    3    0    0 0.32489206E+02 0.11657764E+03 -.91608763E+03 0.92853524E+03 0.91188000E+02 0.0000E+00 0.9000E+01
#aMCatNLO 1  0  0  1  2 0.16584408D+03 0.00000000D+00  -5  7  0 0.00000000D+00 0.00000000D+00 0.00000000D+00 0.00000000D+00 0.00000000D+00
  <mgrwgt>
 0.2095369128D-03    7    2    0
 0.248226247529175D+03 0.000000000000000D+00 0.000000000000000D+00 0.248226247529175D+03
 0.248226247529175D+03 0.000000000000000D+00 0.000000000000000D+00 -.248226247529175D+03
 0.114696117485182D+03 0.337529664658773D+01 -.578382161832815D+02 0.385135838822895D+02
 0.142781260837987D+03 -.556885114161574D+02 -.505387013713464D+02 0.121371816359630D+03
 0.219136233813903D+02 0.198240090543349D+02 -.820072411896156D+01 -.446807325809976D+01
 0.217061493353792D+03 0.324892057152348D+02 0.116577641673589D+03 -.155417326983820D+03
 0.000000000000000D+00 0.000000000000000D+00 0.000000000000000D+00 0.000000000000000D+00
 0.456684666516584D+03 0.000000000000000D+00 0.000000000000000D+00 0.456684666516584D+03
 0.296976928996549D+03 0.000000000000000D+00 0.000000000000000D+00 -.296976928996549D+03
 0.134445210743094D+03 -.239194322034659D+02 -.877771494602129D+02 0.385135838822895D+02
 0.175547002593107D+03 -.905630290140532D+02 -.887917230871683D+02 0.121371816359630D+03
 0.206668611476715D+02 0.151590954176068D+02 -.133175559761271D+02 -.446807325809976D+01
 0.192761731136537D+03 -.124090609371329D+02 0.673298100889769D+02 -.155417326983820D+03
 0.230240789892723D+03 0.111732426737045D+03 0.122556618434531D+03 0.159707737520035D+03
0.121212990034D-05 0.000000000000D+00 0.000000000000D+00 0.402255512651D-08 0.000000000000D+00  7 -2 2 23 -11 11 23 21 0 0.77113132D-02 0.18912126D+00 0.31723425D+05 0.31723425D+05 0.31723425D+05 0.11650918D+01  1  2  2  1  7  1       -2 0.254179457061D-03 0.100000000000D+01
-.583193349632D-07 0.000000000000D+00 -.465489797842D-08 0.402255512651D-08 0.000000000000D+00  7 -2 2 23 -11 11 23 21 2 0.77113132D-02 0.18912126D+00 0.31723425D+05 0.31723425D+05 0.31723425D+05 0.11650918D+01  1  2  3  1  7  1       -2 -.166006139547D-04 0.100000000000D+01
0.692175572459D-07 0.000000000000D+00 0.000000000000D+00 0.402255512651D-08 0.000000000000D+00  7 -2 2 23 -11 11 23 21 2 0.77113132D-02 0.18912126D+00 0.31723425D+05 0.31723425D+05 0.31723425D+05 0.11650918D+01  1  2 15  1  7  1       -2 0.197027957787D-04 0.100000000000D+01
0.549972207098D-08 0.000000000000D+00 0.000000000000D+00 0.402255512651D-08 0.000000000000D+00  7 -2 2 23 -11 11 23 21 2 0.14398131D-01 0.18912126D+00 0.77198063D+05 0.77198063D+05 0.77198063D+05 0.11310636D+01  1  2 12  1  7  1       -2 0.563269942731D-06 0.100000000000D+01
-.417242995163D-06 0.000000000000D+00 -.377144165991D-06 0.402255512651D-08 0.000000000000D+00  7 -2 2 23 -11 11 23 21 2 0.17026751D-01 0.18912126D+00 0.31723425D+05 0.31723425D+05 0.31723425D+05 0.11650918D+01  1  2  5  1  7  1       -2 -.350597221512D-04 0.100000000000D+01
0.374044316000D-09 0.000000000000D+00 0.000000000000D+00 0.402255512651D-08 0.000000000000D+00  7 21 2 23 -11 11 23 2 2 0.14398131D-01 0.18912126D+00 0.77198063D+05 0.77198063D+05 0.77198063D+05 0.11310636D+01  1  2 12  3  7  1       -2 0.526067746451D-06 0.100000000000D+01
-.120581251750D-07 0.000000000000D+00 -.323884478055D-07 0.402255512651D-08 0.000000000000D+00  7 21 2 23 -11 11 23 2 2 0.17026751D-01 0.18912126D+00 0.31723425D+05 0.31723425D+05 0.31723425D+05 0.11650918D+01  1  2  5  3  7  1       -2 -.137743416378D-04 0.100000000000D+01
  </mgrwgt>
  </event>
  <event>
  8     66 0.53686478E-06 0.14039539E+03 0.75467711E-02 0.10311300E+00
       -2 -1    0    0    0  501 0.00000000E+00 0.00000000E+00 0.54953284E+02 0.54954216E+02 0.32000000E+00 0.0000E+00 0.9000E+01
        2 -1    0    0  501    0 0.00000000E+00 0.00000000E+00 -.81615637E+03 0.81615643E+03 0.32000000E+00 0.0000E+00 0.9000E+01
       25  2    1    2    0    0 -.61991945E+02 0.27341558E+02 -.58807073E+03 0.66371700E+03 0.30017079E+03 0.0000E+00 0.0000E+00
       23  2    1    2    0    0 0.61991945E+02 -.27341558E+02 -.17313235E+03 0.20739365E+03 0.91906218E+02 0.0000E+00 0.0000E+00
       23  1    3    3    0    0 -.14119973E+02 -.17700374E+02 -.52794046E+03 0.53623601E+03 0.91188000E+02 0.0000E+00 0.9000E+01
      -13  1    4    4    0    0 0.44192959E+01 0.63363872E+01 -.12476251E+03 0.12500150E+03 0.10565837E+00 0.0000E+00 0.9000E+01
       13  1    4    4    0    0 0.57572649E+02 -.33677945E+02 -.48369847E+02 0.82392154E+02 0.10565837E+00 0.0000E+00 0.9000E+01
       23  1    3    3    0    0 -.47871972E+02 0.45041932E+02 -.60130272E+02 0.12748099E+03 0.91188000E+02 0.0000E+00 0.9000E+01
#aMCatNLO 1  0  0  1  2 0.17611468D+03 0.00000000D+00  -5  7  0 0.00000000D+00 0.00000000D+00 0.00000000D+00 0.00000000D+00 0.00000000D+00
  <mgrwgt>
 0.7702712914D-03    3    2    0
 0.211780325499225D+03 0.000000000000000D+00 0.000000000000000D+00 0.211780325499225D+03
 0.211780325499225D+03 0.000000000000000D+00 0.000000000000000D+00 -.211780325499225D+03
 0.154053463320395D+03 -.141200005940970D+02 -.177003566306515D+02 -.122084156119370D+03
 0.328654217661947D+02 0.441924106348374D+01 0.633643245483114D+01 -.319445751268983D+02
 0.825228880274651D+02 0.575727529854266D+02 -.336780117157482D+02 0.485921463710602D+02
 0.154118877884394D+03 -.478719934548133D+02 0.450419358915685D+02 0.105436584875208D+03
 0.000000000000000D+00 -.000000000000000D+00 0.000000000000000D+00 -.000000000000000D+00
 0.311677412657875D+03 0.000000000000000D+00 0.000000000000000D+00 0.311677412657875D+03
 0.323552792347965D+03 0.000000000000000D+00 0.000000000000000D+00 -.323552792347965D+03
 0.173829144316754D+03 -.101437330921693D+02 -.830294139053810D+02 -.122084156119370D+03
 0.330750455385989D+02 0.521890817329316D+01 -.680189347322340D+01 -.319445751268983D+02
 0.104803810096879D+03 0.598444839179180D+02 -.710019694548982D+02 0.485921463710602D+02
 0.147007603612187D+03 -.442202003604088D+02 -.149560899213720D+02 0.105436584875208D+03
 0.176514601441420D+03 -.106994586386330D+02 0.175789366754875D+03 -.118753796900895D+02
0.234873657531D-05 0.000000000000D+00 0.000000000000D+00 0.102609670838D-06 0.000000000000D+00  7 -2 2 23 -13 13 23 21 0 0.84544280D-02 0.12556259D+00 0.19710864D+05 0.19710864D+05 0.19710864D+05 0.11846488D+01  1  2  2  1  7  1       -2 0.749465224026D-03 0.100000000000D+01
-.103674513805D-06 0.000000000000D+00 -.901976688572D-08 0.102609670838D-06 0.000000000000D+00  7 -2 2 23 -13 13 23 21 2 0.84544280D-02 0.12556259D+00 0.19710864D+05 0.19710864D+05 0.19710864D+05 0.11846488D+01  1  2  3  1  7  1       -2 -.464267669508D-04 0.100000000000D+01
0.150136050055D-06 0.000000000000D+00 0.000000000000D+00 0.102609670838D-06 0.000000000000D+00  7 -2 2 23 -13 13 23 21 2 0.84544280D-02 0.12556259D+00 0.19710864D+05 0.19710864D+05 0.19710864D+05 0.11846488D+01  1  2 15  1  7  1       -2 0.672328342906D-04 0.100000000000D+01
  </mgrwgt>
  </event>
  <event>
  8     66 0.53686478E-06 0.35146459E+03 0.75467711E-02 0.92850023E-01
       -2 -1    0    0    0  501 0.00000000E+00 0.00000000E+00 0.19362125E+03 0.19362151E+03 0.32000000E+00 0.0000E+00 0.9000E+01
        2 -1    0    0  501    0 0.00000000E+00 0.00000000E+00 -.12092140E+04 0.12092140E+04 0.32000000E+00 0.0000E+00 0.9000E+01
       25  2    1    2    0    0 -.21559767E+03 -.19685875E+03 -.10139622E+04 0.10970776E+04 0.30037340E+03 0.0000E+00 0.0000E+00
       23  2    1    2    0    0 0.21559767E+03 0.19685875E+03 -.16305903E+01 0.30575800E+03 0.90827164E+02 0.0000E+00 0.0000E+00
       23  1    3    3    0    0 -.10973568E+03 0.25936146E+02 -.48709776E+03 0.50822641E+03 0.91188000E+02 0.0000E+00 0.9000E+01
      -13  1    4    4    0    0 0.71616564E+02 0.40082133E+02 0.35962363E+02 0.89603641E+02 0.10565837E+00 0.0000E+00 0.9000E+01
       13  1    4    4    0    0 0.14398110E+03 0.15677661E+03 -.37592954E+02 0.21615436E+03 0.10565837E+00 0.0000E+00 0.9000E+01
       23  1    3    3    0    0 -.10586199E+03 -.22279489E+03 -.52686440E+03 0.58885114E+03 0.91188000E+02 0.0000E+00 0.9000E+01
#aMCatNLO 1  0  0  2  2 0.38043479D+03 0.00000000D+00  -5  7  0 0.00000000D+00 0.00000000D+00 0.00000000D+00 0.00000000D+00 0.00000000D+00
  <mgrwgt>
 0.3108099421D-03    3    2    0
 0.483869544510022D+03 0.000000000000000D+00 0.000000000000000D+00 0.483869544510022D+03
 0.483869544510022D+03 0.000000000000000D+00 0.000000000000000D+00 -.483869544510022D+03
 0.225541286599074D+03 -.109735677973651D+03 0.259361457732101D+02 -.172739740473522D+03
 0.167630047176766D+03 0.716164663200998D+02 0.400819756421520D+02 0.146165487365961D+03
 0.273885827638975D+03 0.143981200406915D+03 0.156776769626147D+03 0.172348208625620D+03
 0.300681927605229D+03 -.105861988753364D+03 -.222794891041509D+03 -.145773955518059D+03
 0.000000000000000D+00 -.000000000000000D+00 0.000000000000000D+00 0.000000000000000D+00
 0.130896859330041D+04 0.000000000000000D+00 0.000000000000000D+00 0.130896859330041D+04
 0.565771567135630D+03 0.000000000000000D+00 0.000000000000000D+00 -.565771567135630D+03
 0.198228740925472D+03 -.301510841708114D+02 0.152077798959217D+02 -.172739740473522D+03
 0.205913990933079D+03 0.141768550256056D+03 0.306251550747983D+02 0.146165487365961D+03
 0.342149491364955D+03 0.259673480291647D+03 0.141180923137869D+03 0.172348208625620D+03
 0.293539289470527D+03 0.573357279744415D+01 -.237838481231396D+03 -.145773955518059D+03
 0.834908647742005D+03 -.377024519174336D+03 0.508246231228070D+02 0.743197026164777D+03
0.125587556196D-04 0.000000000000D+00 0.000000000000D+00 0.983613553125D-06 0.000000000000D+00  7 -2 2 23 -13 13 23 21 0 0.29787908D-01 0.18603295D+00 0.12352736D+06 0.12352736D+06 0.12352736D+06 0.11142687D+01  1  2  2  2  7  2        2 0.305189064445D-03 0.100000000000D+01
-.611000849612D-06 0.000000000000D+00 -.482289283754D-07 0.983613553125D-06 0.000000000000D+00  7 -2 2 23 -13 13 23 21 2 0.29787908D-01 0.18603295D+00 0.12352736D+06 0.12352736D+06 0.12352736D+06 0.11142687D+01  1  2  3  2  7  2        2 -.184350380625D-04 0.100000000000D+01
0.797296152276D-06 0.000000000000D+00 0.000000000000D+00 0.983613553125D-06 0.000000000000D+00  7 -2 2 23 -13 13 23 21 2 0.29787908D-01 0.18603295D+00 0.12352736D+06 0.12352736D+06 0.12352736D+06 0.11142687D+01  1  2 15  2  7  2        2 0.240559156729D-04 0.100000000000D+01
  </mgrwgt>
  </event>
  <event>
  8     66 0.53686478E-06 0.64148800E+03 0.75467711E-02 0.86123573E-01
       -2 -1    0    0    0  501 0.00000000E+00 0.00000000E+00 0.57598593E+03 0.57598602E+03 0.32000000E+00 0.0000E+00 0.9000E+01
        2 -1    0    0  501    0 0.00000000E+00 0.00000000E+00 -.10247493E+04 0.10247493E+04 0.32000000E+00 0.0000E+00 0.9000E+01
       25  2    1    2    0    0 0.61065986E+03 -.47630875E+02 -.65735884E+03 0.94713688E+03 0.29962221E+03 0.0000E+00 0.0000E+00
       23  2    1    2    0    0 -.61065986E+03 0.47630875E+02 0.20859548E+03 0.65359848E+03 0.92221054E+02 0.0000E+00 0.0000E+00
       23  1    3    3    0    0 0.68424094E+02 -.39086573E+02 -.58080145E+02 0.13378405E+03 0.91188000E+02 0.0000E+00 0.9000E+01
      -11  1    4    4    0    0 -.35812492E+03 0.25147103E+02 0.74005417E+02 0.36655509E+03 0.51099893E-03 0.0000E+00 0.9000E+01
       11  1    4    4    0    0 -.25253495E+03 0.22483772E+02 0.13459006E+03 0.28704338E+03 0.51099893E-03 0.0000E+00 0.9000E+01
       23  1    3    3    0    0 0.54223577E+03 -.85443018E+01 -.59927869E+03 0.81335284E+03 0.91188000E+02 0.0000E+00 0.9000E+01
#aMCatNLO 1  0  0  2  2 0.80163178D+03 0.00000000D+00  -5  7  0 0.00000000D+00 0.00000000D+00 0.00000000D+00 0.00000000D+00 0.00000000D+00
  <mgrwgt>
 0.3644465593D-03    3    2    0
 0.768271621888257D+03 0.000000000000000D+00 0.000000000000000D+00 0.768271621888257D+03
 0.768271621888257D+03 0.000000000000000D+00 0.000000000000000D+00 -.768271621888257D+03
 0.122410231965165D+03 0.684240940114998D+02 -.390865731254446D+02 -.214335416060926D+02
 0.403482698427909D+03 -.358124916797363D+03 0.251471033344013D+02 0.184153346679984D+03
 0.338343606877156D+03 -.252534947203453D+03 0.224837716212970D+02 0.224046818252958D+03
 0.672306706506283D+03 0.542235769989316D+03 -.854430183025372D+01 -.386766623326849D+03
 0.000000000000000D+00 0.000000000000000D+00 0.000000000000000D+00 0.000000000000000D+00
 0.133485722436882D+04 0.000000000000000D+00 0.000000000000000D+00 0.133485722436882D+04
 0.120958701631374D+04 0.000000000000000D+00 0.000000000000000D+00 -.120958701631374D+04
 0.121417135666131D+03 0.202894197512390D+02 -.745373210529158D+02 -.214335416060926D+02
 0.597752438131551D+03 -.555781675447582D+03 -.120425294001938D+03 0.184153346679984D+03
 0.480749422990453D+03 -.414234499491393D+03 -.966064716646595D+02 0.224046818252958D+03
 0.533164571697901D+03 0.304260156873559D+03 -.183811167205452D+03 -.386766623326849D+03
 0.811360672196529D+03 0.645466598314178D+03 0.475380253924965D+03 0.125270208055076D+03
0.107489564279D-03 0.000000000000D+00 0.000000000000D+00 0.190961095200D-05 0.000000000000D+00  7 -2 2 23 -11 11 23 21 0 0.88613231D-01 0.15765375D+00 0.41150686D+06 0.41150686D+06 0.41150686D+06 0.10745408D+01  1  2  2  2  7  2        2 0.361367188527D-03 0.100000000000D+01
-.573547428875D-05 0.000000000000D+00 -.412788229482D-06 0.190961095200D-05 0.000000000000D+00  7 -2 2 23 -11 11 23 21 2 0.88613231D-01 0.15765375D+00 0.41150686D+06 0.41150686D+06 0.41150686D+06 0.10745408D+01  1  2  3  2  7  2        2 -.222637126698D-04 0.100000000000D+01
0.652876748471D-05 0.000000000000D+00 0.000000000000D+00 0.190961095200D-05 0.000000000000D+00  7 -2 2 23 -11 11 23 21 2 0.88613231D-01 0.15765375D+00 0.41150686D+06 0.41150686D+06 0.41150686D+06 0.10745408D+01  1  2 15  2  7  2        2 0.253430834225D-04 0.100000000000D+01
  </mgrwgt>
  </event>
  <event>
  8     66 0.53686478E-06 0.72987168E+03 0.75467711E-02 0.89489766E-01
       -2 -1    0    0    0  501 0.00000000E+00 0.00000000E+00 0.34265364E+03 0.34265379E+03 0.32000000E+00 0.0000E+00 0.9000E+01
        2 -1    0    0  501    0 0.00000000E+00 0.00000000E+00 -.17049559E+04 0.17049560E+04 0.32000000E+00 0.0000E+00 0.9000E+01
       25  2    1    2    0    0 0.56886851E+03 0.41756652E+03 -.44543410E+03 0.88690072E+03 0.30034675E+03 0.0000E+00 0.0000E+00
       23  2    1    2    0    0 -.56886851E+03 -.41756652E+03 -.91686819E+03 0.11607090E+04 0.92870843E+02 0.0000E+00 0.0000E+00
       23  1    3    3    0    0 0.34824796E+03 0.35692737E+03 -.37548956E+03 0.63085770E+03 0.91188000E+02 0.0000E+00 0.9000E+01
      -11  1    4    4    0    0 -.47824622E+03 -.33501637E+03 -.69975144E+03 0.91137670E+03 0.51099893E-03 0.0000E+00 0.9000E+01
       11  1    4    4    0    0 -.90622293E+02 -.82550146E+02 -.21711675E+03 0.24933233E+03 0.51099893E-03 0.0000E+00 0.9000E+01
       23  1    3    3    0    0 0.22062055E+03 0.60639154E+02 -.69944541E+02 0.25604302E+03 0.91188000E+02 0.0000E+00 0.9000E+01
#aMCatNLO 1  0  0  1  2 0.14774677D+03 0.00000000D+00  -5  7  0 0.00000000D+00 0.00000000D+00 0.00000000D+00 0.00000000D+00 0.00000000D+00
  <mgrwgt>
 0.1735324290D-03    4    2    0
 0.764336014099845D+03 0.000000000000000D+00 0.000000000000000D+00 0.764336014099845D+03
 0.764336014099845D+03 0.000000000000000D+00 0.000000000000000D+00 -.764336014099845D+03
 0.510390776441005D+03 0.348247957020811D+03 0.356927365123808D+03 0.592428036866900D+02
 0.597165918330485D+03 -.478246218361925D+03 -.335016373478212D+03 -.125106826910114D+03
 0.140485766168417D+03 -.906222934366247D+02 -.825501460345944D+02 -.686245132433043D+02
 0.280629567259782D+03 0.220620554777738D+03 0.606391543889988D+02 0.134488536466729D+03
 0.000000000000000D+00 -.000000000000000D+00 -.000000000000000D+00 -.000000000000000D+00
 0.823162031222821D+03 0.000000000000000D+00 0.000000000000000D+00 0.823162031222821D+03
 0.866646230689475D+03 0.000000000000000D+00 0.000000000000000D+00 -.866646230689475D+03
 0.554021831232968D+03 0.397916699373354D+03 0.369834461225408D+03 0.592428036866900D+02
 0.547067975489478D+03 -.424852771071418D+03 -.321141362299497D+03 -.125106826910114D+03
 0.130656595010491D+03 -.779699629576716D+02 -.792622664212567D+02 -.686245132433043D+02
 0.304048922865061D+03 0.247903438384825D+03 0.677289815915071D+02 0.134488536466729D+03
 0.154012937314297D+03 -.142997403729090D+03 -.371598140961613D+02 -.434841994666546D+02
0.792483326272D-04 0.000000000000D+00 0.000000000000D+00 0.110891579195D-05 0.000000000000D+00  7 -2 2 23 -11 11 23 21 0 0.52715959D-01 0.26230093D+00 0.53271267D+06 0.53271267D+06 0.53271267D+06 0.10665706D+01  1  2  2  1  7  1       -2 0.331437698438D-03 0.100000000000D+01
-.439128970770D-05 0.000000000000D+00 -.304334463854D-06 0.110891579195D-05 0.000000000000D+00  7 -2 2 23 -11 11 23 21 2 0.52715959D-01 0.26230093D+00 0.53271267D+06 0.53271267D+06 0.53271267D+06 0.10665706D+01  1  2  3  1  7  1       -2 -.208921486780D-04 0.100000000000D+01
0.490262023427D-05 0.000000000000D+00 0.000000000000D+00 0.110891579195D-05 0.000000000000D+00  7 -2 2 23 -11 11 23 21 2 0.52715959D-01 0.26230093D+00 0.53271267D+06 0.53271267D+06 0.53271267D+06 0.10665706D+01  1  2 15  1  7  1       -2 0.233248721137D-04 0.100000000000D+01
-.337012046352D-04 0.000000000000D+00 0.000000000000D+00 0.110891579195D-05 0.000000000000D+00  7 -2 2 23 -11 11 23 21 2 0.52715959D-01 0.26230093D+00 0.53271267D+06 0.53271267D+06 0.53271267D+06 0.10665706D+01  1  2  4  1  7  1       -2 -.160337992875D-03 0.100000000000D+01
  </mgrwgt>
  </event>
  <event>
  8     66 0.53686478E-06 0.23761517E+03 0.75467711E-02 0.96972843E-01
       -2 -1    0    0    0  501 0.00000000E+00 0.00000000E+00 0.26309940E+02 0.26311886E+02 0.32000000E+00 0.0000E+00 0.9000E+01
        2 -1    0    0  501    0 0.00000000E+00 0.00000000E+00 -.33795957E+04 0.33795957E+04 0.32000000E+00 0.0000E+00 0.9000E+01
       25  2    1    2    0    0 -.12747375E+03 -.67963585E+02 -.11862182E+04 0.12321185E+04 0.30022293E+03 0.0000E+00 0.0000E+00
       23  2    1    2    0    0 0.12747375E+03 0.67963585E+02 -.21670675E+04 0.21737891E+04 0.91151378E+02 0.0000E+00 0.0000E+00
       23  1    3    3    0    0 -.27875849E+02 0.65607237E+02 -.23304050E+03 0.26020088E+03 0.91188000E+02 0.0000E+00 0.9000E+01
      -11  1    4    4    0    0 0.76544383E+02 0.86359569E+02 -.15923912E+04 0.15965671E+04 0.51099893E-03 0.0000E+00 0.9000E+01
       11  1    4    4    0    0 0.50929372E+02 -.18395984E+02 -.57467636E+03 0.57722191E+03 0.51099893E-03 0.0000E+00 0.9000E+01
       23  1    3    3    0    0 -.99597906E+02 -.13357082E+03 -.95317772E+03 0.97191766E+03 0.91188000E+02 0.0000E+00 0.9000E+01
#aMCatNLO 1  0  0  2  1 0.25939777D+03 0.00000000D+00  -5  7  0 0.00000000D+00 0.00000000D+00 0.00000000D+00 0.00000000D+00 0.00000000D+00
  <mgrwgt>
 0.2435529665D-03    3    2    0
 0.298195067441192D+03 0.000000000000000D+00 0.000000000000000D+00 0.298195067441192D+03
 0.298195067441192D+03 0.000000000000000D+00 0.000000000000000D+00 -.298195067441192D+03
 0.175671531868924D+03 -.278758488557404D+02 0.656072369991722D+02 0.132150910965762D+03
 0.164351388413621D+03 0.765443827291899D+02 0.863595689952369D+02 -.117022908821518D+03
 0.652432512506096D+02 0.509293716988628D+02 -.183959842123938D+02 -.363932507062314D+02
 0.191123963349228D+03 -.995979055723122D+02 -.133570821782015D+03 0.212652485619877D+02
 0.000000000000000D+00 -.000000000000000D+00 -.000000000000000D+00 0.000000000000000D+00
 0.502034596980241D+03 0.000000000000000D+00 0.000000000000000D+00 0.502034596980241D+03
 0.420296712418860D+03 0.000000000000000D+00 0.000000000000000D+00 -.420296712418860D+03
 0.198482471324242D+03 0.351790522645911D+02 0.111259206772577D+03 0.132150910965762D+03
 0.228218857577453D+03 0.142702910588030D+03 0.134258575423000D+03 -.117022908821518D+03
 0.843977787349915D+02 0.761478653372037D+02 -.137706285491589D+00 -.363932507062314D+02
 0.139261095516299D+03 -.439192357181625D+02 -.932592693405279D+02 0.212652485619877D+02
 0.271971106246115D+03 -.210110592471662D+03 -.152120806569558D+03 0.817378845613808D+02
0.731213913074D-05 0.000000000000D+00 0.000000000000D+00 0.288279744972D-06 0.000000000000D+00  7 -2 2 23 -11 11 23 21 0 0.40478339D-02 0.51993795D+00 0.56460967D+05 0.56460967D+05 0.56460967D+05 0.11426818D+01  1  2  2  2  7  2        2 0.239605599379D-03 0.100000000000D+01
-.380757526427D-06 0.000000000000D+00 -.280805395925D-07 0.288279744972D-06 0.000000000000D+00  7 -2 2 23 -11 11 23 21 2 0.40478339D-02 0.51993795D+00 0.56460967D+05 0.56460967D+05 0.56460967D+05 0.11426818D+01  1  2  3  2  7  2        2 -.162911450408D-04 0.100000000000D+01
0.473015605886D-06 0.000000000000D+00 0.000000000000D+00 0.288279744972D-06 0.000000000000D+00  7 -2 2 23 -11 11 23 21 2 0.40478339D-02 0.51993795D+00 0.56460967D+05 0.56460967D+05 0.56460967D+05 0.11426818D+01  1  2 15  2  7  2        2 0.202385121953D-04 0.100000000000D+01
  </mgrwgt>
  </event>
  <event>
  9     66 0.53686478E-06 0.35001446E+03 0.75467711E-02 0.97084439E-01
       -2 -1    0    0    0  502 0.00000000E+00 0.00000000E+00 0.45383193E+03 0.45383205E+03 0.32000000E+00 0.0000E+00 0.9000E+01
        2 -1    0    0  501    0 0.00000000E+00 0.00000000E+00 -.97581903E+03 0.97581908E+03 0.32000000E+00 0.0000E+00 0.9000E+01
       25  2    1    2    0    0 0.13104461E+03 -.33076604E+03 0.26453117E+03 0.53498487E+03 0.29942147E+03 0.0000E+00 0.0000E+00
       23  2    1    2    0    0 -.16838477E+03 0.23144677E+03 -.68252866E+03 0.74609639E+03 0.94304911E+02 0.0000E+00 0.0000E+00
       23  1    3    3    0    0 0.20050293E+01 -.11877479E+03 -.14653939E+02 0.15047079E+03 0.91188000E+02 0.0000E+00 0.9000E+01
      -13  1    4    4    0    0 -.12586845E+03 0.13866096E+03 -.53396649E+03 0.56585330E+03 0.10565837E+00 0.0000E+00 0.9000E+01
       13  1    4    4    0    0 -.42516323E+02 0.92785810E+02 -.14856216E+03 0.18024309E+03 0.10565837E+00 0.0000E+00 0.9000E+01
       23  1    3    3    0    0 0.12903958E+03 -.21199125E+03 0.27918511E+03 0.38451408E+03 0.91188000E+02 0.0000E+00 0.9000E+01
       21  1    1    2  501  502 0.37340158E+02 0.99319266E+02 -.10398961E+03 0.14856987E+03 0.75000000E+00 0.0000E+00 0.9000E+01
#aMCatNLO 2  0  0  1  2 0.10610657D+03 0.00000000D+00  -5  7  0 0.00000000D+00 0.00000000D+00 0.00000000D+00 0.00000000D+00 0.00000000D+00
  <mgrwgt>
 0.7570205540D-04    1    2    0
 0.603156011276501D+03 0.000000000000000D+00 0.000000000000000D+00 0.603156011276501D+03
 0.603156011276501D+03 0.000000000000000D+00 0.000000000000000D+00 -.603156011276501D+03
 0.145002489626433D+03 0.662569357669861D+01 -.106484507069570D+03 0.364365282737260D+02
 0.423422441639390D+03 -.112928070059640D+03 0.173080773371092D+03 -.369563067643038D+03
 0.146259726477623D+03 -.381036112056847D+02 0.104522629766254D+03 -.949475764258449D+02
 0.491627364809555D+03 0.144405987688627D+03 -.171118896067776D+03 0.428074115795157D+03
 0.000000000000000D+00 0.000000000000000D+00 0.000000000000000D+00 -.000000000000000D+00
 0.636758331222057D+03 0.000000000000000D+00 0.000000000000000D+00 0.636758331222057D+03
 0.695485803369988D+03 0.000000000000000D+00 0.000000000000000D+00 -.695485803369988D+03
 0.154124436879435D+03 0.200502932177150D+01 -.118774786735989D+03 0.364365282737260D+02
 0.414302584541784D+03 -.125868550307103D+03 0.138661020607300D+03 -.369563067643038D+03
 0.139398231082712D+03 -.425162180179592D+02 0.927857519519941D+02 -.949475764258449D+02
 0.503144317616929D+03 0.129039581165168D+03 -.211991251907049D+03 0.428074115795157D+03
 0.121274564471184D+03 0.373401578381219D+02 0.993192660837435D+02 -.587274721479313D+02
0.973021875436D-05 0.000000000000D+00 0.000000000000D+00 0.190118625394D-06 0.110841328568D-09  7 -2 2 23 -13 13 23 21 2 0.69820186D-01 0.15012575D+00 0.16386023D+06 0.16386023D+06 0.16386023D+06 0.11045357D+01  1  2  1  1  7  1       -2 0.757020553988D-04 0.100000000000D+01
  </mgrwgt>
  </event>
  <event>
  8     66 0.53686478E-06 0.25508677E+03 0.75467711E-02 0.86764237E-01
       -2 -1    0    0    0  501 0.00000000E+00 0.00000000E+00 0.15493065E+03 0.15493098E+03 0.32000000E+00 0.0000E+00 0.9000E+01
        2 -1    0    0  501    0 0.00000000E+00 0.00000000E+00 -.24567728E+04 0.24567729E+04 0.32000000E+00 0.0000E+00 0.9000E+01
       25  2    1    2    0    0 0.12062802E+03 0.14091463E+03 -.23698355E+04 0.23958927E+04 0.29962259E+03 0.0000E+00 0.0000E+00
       23  2    1    2    0    0 -.12062802E+03 -.14091463E+03 0.67993305E+02 0.21581111E+03 0.86852121E+02 0.0000E+00 0.0000E+00
       23  1    3    3    0    0 -.40163794E+02 0.55340595E+02 -.41153927E+03 0.42703107E+03 0.91188000E+02 0.0000E+00 0.9000E+01
      -11  1    4    4    0    0 -.76428732E+02 -.12299172E+03 0.16691255E+02 0.14576320E+03 0.51099893E-03 0.0000E+00 0.9000E+01
       11  1    4    4    0    0 -.44199292E+02 -.17922911E+02 0.51302050E+02 0.70047902E+02 0.51099893E-03 0.0000E+00 0.9000E+01
       23  1    3    3    0    0 0.16079182E+03 0.85574033E+02 -.19582962E+04 0.19688617E+04 0.91188000E+02 0.0000E+00 0.9000E+01
#aMCatNLO 1  0  0  2  1 0.10191633D+04 0.00000000D+00  -5  7  0 0.00000000D+00 0.00000000D+00 0.00000000D+00 0.00000000D+00 0.00000000D+00
  <mgrwgt>
 0.4990757489D-03    3    2    0
 0.616952086612209D+03 0.000000000000000D+00 0.000000000000000D+00 0.616952086612209D+03
 0.616952086612209D+03 0.000000000000000D+00 0.000000000000000D+00 -.616952086612209D+03
 0.136137177141573D+03 -.401637940737211D+02 0.553405952466313D+02 -.744470806642424D+02
 0.339662481738366D+03 -.764287322411263D+02 -.122991716822067D+03 0.307249553265485D+03
 0.243968376540302D+03 -.441992922917562D+02 -.179229113053627D+02 0.239260862998858D+03
 0.514136137804178D+03 0.160791818606604D+03 0.855740328807983D+02 -.472063335600101D+03
 0.000000000000000D+00 0.000000000000000D+00 0.000000000000000D+00 0.000000000000000D+00
 0.215110608147314D+04 0.000000000000000D+00 0.000000000000000D+00 0.215110608147314D+04
 0.992409748334054D+03 0.000000000000000D+00 0.000000000000000D+00 -.992409748334054D+03
 0.155164492561155D+03 -.952945032462246D+02 -.337247422434584D+02 -.744470806642424D+02
 0.560147092381808D+03 -.246723464818792D+03 -.398108036881652D+03 0.307249553265485D+03
 0.348229893156747D+03 -.156276612728832D+03 -.198987231346646D+03 0.239260862998858D+03
 0.536837624991399D+03 -.381117061268565D+02 -.235760661053986D+03 -.472063335600101D+03
 0.154313672671608D+04 0.536406286920705D+03 0.866580671525743D+03 0.115869633313908D+04
0.610477554941D-04 0.000000000000D+00 0.000000000000D+00 0.144879643821D-06 0.000000000000D+00  7 -2 2 23 -11 11 23 21 0 0.23835512D-01 0.37796508D+00 0.65069259D+05 0.65069259D+05 0.65069259D+05 0.11373662D+01  1  2  2  2  7  2        2 0.468410680623D-03 0.100000000000D+01
-.175033979654D-06 0.000000000000D+00 -.234439455341D-06 0.144879643821D-06 0.000000000000D+00  7 -2 2 23 -11 11 23 21 2 0.23835512D-01 0.37796508D+00 0.65069259D+05 0.65069259D+05 0.65069259D+05 0.11373662D+01  1  2  3  2  7  2        2 -.173732117392D-05 0.100000000000D+01
0.326451969066D-05 0.000000000000D+00 0.000000000000D+00 0.144879643821D-06 0.000000000000D+00  7 -2 2 23 -11 11 23 21 2 0.23835512D-01 0.37796508D+00 0.65069259D+05 0.65069259D+05 0.65069259D+05 0.11373662D+01  1  2 15  2  7  2        2 0.324023894816D-04 0.100000000000D+01
  </mgrwgt>
  </event>
  <event>
  8     66 0.53686478E-06 0.32232240E+03 0.75467711E-02 0.91999427E-01
       -2 -1    0    0    0  501 0.00000000E+00 0.00000000E+00 0.10307528E+03 0.10307577E+03 0.32000000E+00 0.0000E+00 0.9000E+01
        2 -1    0    0  501    0 0.00000000E+00 0.00000000E+00 -.16046301E+04 0.16046301E+04 0.32000000E+00 0.0000E+00 0.9000E+01
       25  2    1    2    0    0 -.35632075E+01 -.26061764E+03 -.36918079E+03 0.54202734E+03 0.29927399E+03 0.0000E+00 0.0000E+00
       23  2    1    2    0    0 0.35632075E+01 0.26061764E+03 -.11323740E+04 0.11656785E+04 0.92743310E+02 0.0000E+00 0.0000E+00
       23  1    3    3    0    0 -.29129212E+02 -.54589955E+01 -.17721705E+02 0.97507035E+02 0.91188000E+02 0.0000E+00 0.9000E+01
      -13  1    4    4    0    0 -.20371960E+02 0.24927818E+03 -.10168675E+04 0.10471744E+04 0.10565837E+00 0.0000E+00 0.9000E+01
       13  1    4    4    0    0 0.23935168E+02 0.11339460E+02 -.11550651E+03 0.11850418E+03 0.10565837E+00 0.0000E+00 0.9000E+01
       23  1    3    3    0    0 0.25566004E+02 -.25515865E+03 -.35145909E+03 0.44452030E+03 0.91188000E+02 0.0000E+00 0.9000E+01
#aMCatNLO 1  0  0  2  1 0.50312866D+03 0.00000000D+00  -5  7  0 0.00000000D+00 0.00000000D+00 0.00000000D+00 0.00000000D+00 0.00000000D+00
  <mgrwgt>
 0.3123165950D-03    5    2    0
 0.406691699440980D+03 0.000000000000000D+00 0.000000000000000D+00 0.406691699440980D+03
 0.406691699440980D+03 0.000000000000000D+00 0.000000000000000D+00 -.406691699440980D+03
 0.172001573797574D+03 -.291292117627207D+02 -.545899562849969D+01 0.142796983279245D+03
 0.321353802191177D+03 -.203720174711890D+02 0.249278492921143D+03 -.201775816325553D+03
 0.355682554657083D+02 0.239352249294331D+02 0.113391518704989D+02 -.237408811822371D+02
 0.284459767427501D+03 0.255660043044766D+02 -.255158649163142D+03 0.827197142285452D+02
 0.000000000000000D+00 0.000000000000000D+00 0.000000000000000D+00 -.000000000000000D+00
 0.655414647370531D+03 0.000000000000000D+00 0.000000000000000D+00 0.655414647370531D+03
 0.835330791954684D+03 0.000000000000000D+00 0.000000000000000D+00 -.835330791954684D+03
 0.210462417787868D+03 -.591129675295872D+02 -.109972071878765D+03 0.142796983279245D+03
 0.233122958515897D+03 -.638409351659679D+02 0.977607729638841D+02 -.201775816325553D+03
 0.309980400329090D+02 0.187166747117723D+02 -.685092215007851D+01 -.237408811822371D+02
 0.481832288230037D+03 -.345084454435407D+02 -.464557551556329D+03 0.827197142285452D+02
 0.534329734758505D+03 0.138745673427323D+03 0.483619772621288D+03 -.179916144584153D+03
0.723095966879D-05 0.000000000000D+00 0.000000000000D+00 0.147976585962D-06 0.000000000000D+00  7 -2 2 23 -13 13 23 21 0 0.15857775D-01 0.24686621D+00 0.10389173D+06 0.10389173D+06 0.10389173D+06 0.11203639D+01  1  2  2  2  7  2        2 0.308261912932D-03 0.100000000000D+01
-.375316420480D-06 0.000000000000D+00 -.277687890836D-07 0.147976585962D-06 0.000000000000D+00  7 -2 2 23 -13 13 23 21 2 0.15857775D-01 0.24686621D+00 0.10389173D+06 0.10389173D+06 0.10389173D+06 0.11203639D+01  1  2  3  2  7  2        2 -.200835149192D-04 0.100000000000D+01
0.458740523346D-06 0.000000000000D+00 0.000000000000D+00 0.147976585962D-06 0.000000000000D+00  7 -2 2 23 -13 13 23 21 2 0.15857775D-01 0.24686621D+00 0.10389173D+06 0.10389173D+06 0.10389173D+06 0.11203639D+01  1  2 15  2  7  2        2 0.245476127394D-04 0.100000000000D+01
-.165756039011D-06 0.000000000000D+00 -.186588090755D-05 0.147976585962D-06 0.000000000000D+00  7 -2 2 23 -13 13 23 21 2 0.15857775D-01 0.58373985D+00 0.10389173D+06 0.10389173D+06 0.10389173D+06 0.11203639D+01  1  2  5  2  7  2        2 -.415854350352D-06 0.100000000000D+01
0.102083784923D-06 0.000000000000D+00 -.175339376866D-06 0.147976585962D-06 0.000000000000D+00  7 -2 21 23 -13 13 23 -2 2 0.15857775D-01 0.58373985D+00 0.10389173D+06 0.10389173D+06 0.10389173D+06 0.11203639D+01  1  2  5  4  7  2        2 0.643863230257D-08 0.100000000000D+01
  </mgrwgt>
  </event>
  <event>
  9     66 0.53686478E-06 0.42303997E+03 0.75467711E-02 0.92254689E-01
       21 -1    0    0  502  501 0.00000000E+00 0.00000000E+00 0.61355289E+03 0.61355335E+03 0.75000000E+00 0.0000E+00 0.9000E+01
        2 -1    0    0  501    0 0.00000000E+00 0.00000000E+00 -.79978977E+03 0.79978984E+03 0.32000000E+00 0.0000E+00 0.9000E+01
       25  2    1    2    0    0 -.42636179E+03 0.16056035E+03 -.21292163E+03 0.58543859E+03 0.29973109E+03 0.0000E+00 0.0000E+00
       23  2    1    2    0    0 0.35759351E+03 0.15776852E+03 0.21154691E+03 0.45342299E+03 0.89868187E+02 0.0000E+00 0.0000E+00
       23  1    3    3    0    0 -.16260670E+03 0.15520890E+03 -.18469442E+03 0.30489018E+03 0.91188000E+02 0.0000E+00 0.9000E+01
      -13  1    4    4    0    0 0.34262442E+03 0.15712206E+03 0.21977862E+03 0.43632727E+03 0.10565837E+00 0.0000E+00 0.9000E+01
       13  1    4    4    0    0 0.14969090E+02 0.64645767E+00 -.82317065E+01 0.17095723E+02 0.10565837E+00 0.0000E+00 0.9000E+01
       23  1    3    3    0    0 -.26375509E+03 0.53514484E+01 -.28227212E+02 0.28054841E+03 0.91188000E+02 0.0000E+00 0.9000E+01
        2  1    1    2  502    0 0.68768277E+02 -.31832887E+03 -.18486217E+03 0.37448160E+03 0.32000000E+00 0.0000E+00 0.9000E+01
#aMCatNLO 2  0  0  1  2 0.32567215D+03 0.00000000D+00  -5  7  0 0.00000000D+00 0.00000000D+00 0.00000000D+00 0.00000000D+00 0.00000000D+00
  <mgrwgt>
 0.3436937026D-04    1    2    0
 0.493246680445677D+03 0.000000000000000D+00 0.000000000000000D+00 0.493246680445677D+03
 0.493246680445677D+03 0.000000000000000D+00 0.000000000000000D+00 -.493246680445677D+03
 0.259398738864707D+03 -.143455287178567D+03 0.665568769814663D+02 -.184291120479500D+03
 0.432979638103526D+03 0.372150970173493D+03 0.204457431788339D+02 0.220356515667347D+03
 0.188260981413613D+02 0.161879274572924D+02 -.499786089855804D+01 -.820940693986288D+01
 0.275288885781759D+03 -.244883610452219D+03 -.820047592617422D+02 -.278559882479848D+02
 0.000000000000000D+00 0.000000000000000D+00 -.000000000000000D+00 -.000000000000000D+00
 0.614365535060945D+03 0.000000000000000D+00 0.000000000000000D+00 0.614365535060945D+03
 0.798732293966135D+03 0.000000000000000D+00 0.000000000000000D+00 -.798732293966135D+03
 0.304646041110859D+03 -.162606698191534D+03 0.155208903211694D+03 -.184291120479500D+03
 0.436619063863036D+03 0.342624870918704D+03 0.157122279640799D+03 0.220356515667347D+03
 0.170842646831729D+02 0.149686375312209D+02 0.646241378561713D+00 -.820940693986288D+01
 0.280511303462789D+03 -.263755087049818D+03 0.535144844539690D+01 -.278559882479848D+02
 0.374237155907223D+03 0.687682767914267D+02 -.318328872676452D+03 -.184366758905190D+03
0.787056106225D-06 0.000000000000D+00 0.000000000000D+00 0.918265791233D-06 0.266124179736D-11  7 21 2 23 -13 13 23 2 2 0.94392782D-01 0.12304461D+00 0.38396327D+06 0.38396327D+06 0.38396327D+06 0.10767110D+01  1  2  1  3  7  1       -2 0.343693702610D-04 0.100000000000D+01
  </mgrwgt>
  </event>
  <event>
  9     66 0.53686478E-06 0.20303054E+03 0.75467711E-02 0.10463413E+00
       -2 -1    0    0    0  502 0.00000000E+00 0.00000000E+00 0.68226174E+03 0.68226182E+03 0.32000000E+00 0.0000E+00 0.9000E+01
        2 -1    0    0  501    0 0.00000000E+00 0.00000000E+00 -.32560469E+03 0.32560485E+03 0.32000000E+00 0.0000E+00 0.9000E+01
       25  2    1    2    0    0 0.10922162E+02 -.13501258E+03 -.21283011E+03 0.39248653E+03 0.30066814E+03 0.0000E+00 0.0000E+00
       23  2    1    2    0    0 0.30135918E+02 0.11845704E+03 0.26628666E+03 0.30896381E+03 0.98029651E+02 0.0000E+00 0.0000E+00
       23  1    3    3    0    0 0.14045792E+02 -.13895494E+03 -.24436946E+03 0.29586727E+03 0.91188000E+02 0.0000E+00 0.9000E+01
      -11  1    4    4    0    0 -.29640659E+02 0.41744263E+02 0.14330305E+03 0.15217397E+03 0.51099893E-03 0.0000E+00 0.9000E+01
       11  1    4    4    0    0 0.59776577E+02 0.76712774E+02 0.12298360E+03 0.15678985E+03 0.51099893E-03 0.0000E+00 0.9000E+01
       23  1    3    3    0    0 -.31236295E+01 0.39423553E+01 0.31539347E+02 0.96619258E+02 0.91188000E+02 0.0000E+00 0.9000E+01
       21  1    1    2  501  502 -.41058080E+02 0.16555543E+02 0.30320051E+03 0.30641632E+03 0.75000000E+00 0.0000E+00 0.9000E+01
#aMCatNLO 2  0  0  1  2 0.44270215D+02 0.00000000D+00  -5  7  0 0.00000000D+00 0.00000000D+00 0.00000000D+00 0.00000000D+00 0.00000000D+00
  <mgrwgt>
 0.4096080973D-04    2    2    0
 0.349003984718058D+03 0.000000000000000D+00 0.000000000000000D+00 0.349003984718058D+03
 0.349003984718058D+03 0.000000000000000D+00 0.000000000000000D+00 -.349003984718058D+03
 0.311919326439620D+03 -.438593706390058D+01 -.131522846489035D+03 -.267695572003049D+03
 0.144683281109515D+03 -.380539668972172D+02 0.451366981644028D+02 0.132090218846121D+03
 0.146447785894423D+03 0.511297784908233D+02 0.801993575305561D+02 0.111358712261521D+03
 0.949575759925584D+02 -.868987452970554D+01 0.618679079407568D+01 0.242466408954070D+02
 0.000000000000000D+00 -.000000000000000D+00 0.000000000000000D+00 0.000000000000000D+00
 0.632104982096062D+03 0.000000000000000D+00 0.000000000000000D+00 0.632104982096062D+03
 0.351440222825565D+03 0.000000000000000D+00 0.000000000000000D+00 -.351440222825565D+03
 0.315407559947328D+03 0.140457918355855D+02 -.138954935103434D+03 -.267695572003049D+03
 0.141665020560934D+03 -.296406589683705D+02 0.417442627391420D+02 0.132090218846121D+03
 0.147847392744623D+03 0.597765766224035D+02 0.767127735917852D+02 0.111358712261521D+03
 0.944904765870483D+02 -.312362952816572D+01 0.394235532486387D+01 0.242466408954070D+02
 0.284134755081694D+03 -.410580799614528D+02 0.165555434476431D+02 0.280664759270497D+03
-.726867514895D-04 0.000000000000D+00 0.000000000000D+00 0.874049127923D-08 0.000000000000D+00  7 -2 2 23 -11 11 23 21 2 0.10501299D+00 0.49745724D-01 0.50814861D+05 0.50814861D+05 0.50814861D+05 0.11466784D+01  1  2 13  1  7  1       -2 -.905838995511D-03 0.100000000000D+01
0.764587891191D-04 0.000000000000D+00 0.000000000000D+00 0.874049127923D-08 0.377571430352D-10  7 -2 2 23 -11 11 23 21 2 0.10496322D+00 0.50092977D-01 0.50814861D+05 0.50814861D+05 0.50814861D+05 0.11466784D+01  1  2  1  1  7  1       -2 0.946799805243D-03 0.100000000000D+01
  </mgrwgt>
  </event>
  <event>
  8     66 0.53686478E-06 0.53228221E+03 0.75467711E-02 0.86813897E-01
       -2 -1    0    0    0  501 0.00000000E+00 0.00000000E+00 0.11497411E+03 0.11497455E+03 0.32000000E+00 0.0000E+00 0.9000E+01
        2 -1    0    0  501    0 0.00000000E+00 0.00000000E+00 -.27908889E+04 0.27908890E+04 0.32000000E+00 0.0000E+00 0.9000E+01
       25  2    1    2    0    0 -.45069099E+03 -.20882803E+03 -.18397799E+04 0.19289826E+04 0.29908587E+03 0.0000E+00 0.0000E+00
       23  2    1    2    0    0 0.45069099E+03 0.20882803E+03 -.83613497E+03 0.97688092E+03 0.91886532E+02 0.0000E+00 0.0000E+00
       23  1    3    3    0    0 -.41601622E+03 -.16580373E+03 -.12801625E+04 0.13592982E+04 0.91188000E+02 0.0000E+00 0.9000E+01
      -13  1    4    4    0    0 0.43845525E+03 0.18865913E+03 -.81818009E+03 0.94723490E+03 0.10565837E+00 0.0000E+00 0.9000E+01
       13  1    4    4    0    0 0.12235734E+02 0.20168906E+02 -.17954874E+02 0.29646022E+02 0.10565837E+00 0.0000E+00 0.9000E+01
       23  1    3    3    0    0 -.34674765E+02 -.43024300E+02 -.55961740E+03 0.56968440E+03 0.91188000E+02 0.0000E+00 0.9000E+01
#aMCatNLO 1  0  0  1  2 0.79368651D+03 0.00000000D+00  -5  7  0 0.00000000D+00 0.00000000D+00 0.00000000D+00 0.00000000D+00 0.00000000D+00
  <mgrwgt>
 0.3819067571D-03    5    2    0
 0.566463266823245D+03 0.000000000000000D+00 0.000000000000000D+00 0.566463266823245D+03
 0.566463266823245D+03 0.000000000000000D+00 0.000000000000000D+00 -.566463266823245D+03
 0.462809594273560D+03 -.416016221437427D+03 -.165803731611961D+03 -.729184153155491D+02
 0.497080570166175D+03 0.438455816074463D+03 0.188659348437647D+03 0.138756047919682D+03
 0.336305003191303D+02 0.122351703954919D+02 0.201686836033172D+02 0.239694672201446D+02
 0.139405868887625D+03 -.346747650325278D+02 -.430243004290024D+02 -.898070998242770D+02
 0.000000000000000D+00 -.000000000000000D+00 0.000000000000000D+00 0.000000000000000D+00
 0.259642604020377D+04 0.000000000000000D+00 0.000000000000000D+00 0.259642604020377D+04
 0.774317832756966D+03 0.000000000000000D+00 0.000000000000000D+00 -.774317832756966D+03
 0.587428262974870D+03 -.315599252998723D+03 -.481494266852877D+03 -.729184153155491D+02
 0.574083743267465D+03 0.540873637249318D+03 -.133321461057059D+03 0.138756047919682D+03
 0.301956542393027D+02 0.183378155283287D+02 0.983207898117140D+00 0.239694672201446D+02
 0.191571345512155D+03 -.302885904758356D+01 -.142512595623543D+03 -.898070998242770D+02
 0.198746486696694D+04 -.240583340731340D+03 0.756345115635363D+03 0.182210820744680D+04
0.529764005715D-04 0.000000000000D+00 0.000000000000D+00 0.501097622294D-06 0.000000000000D+00  7 -2 2 23 -13 13 23 21 0 0.17688360D-01 0.42936756D+00 0.28332435D+06 0.28332435D+06 0.28332435D+06 0.10863942D+01  1  2  2  1  7  1       -2 0.396114583953D-03 0.100000000000D+01
-.292927191668D-05 0.000000000000D+00 -.203443327201D-06 0.501097622294D-06 0.000000000000D+00  7 -2 2 23 -13 13 23 21 2 0.17688360D-01 0.42936756D+00 0.28332435D+06 0.28332435D+06 0.28332435D+06 0.10863942D+01  1  2  3  1  7  1       -2 -.258507400601D-04 0.100000000000D+01
0.325395631625D-05 0.000000000000D+00 0.000000000000D+00 0.501097622294D-06 0.000000000000D+00  7 -2 2 23 -13 13 23 21 2 0.17688360D-01 0.42936756D+00 0.28332435D+06 0.28332435D+06 0.28332435D+06 0.10863942D+01  1  2 15  1  7  1       -2 0.287160705086D-04 0.100000000000D+01
-.219542950670D-04 0.000000000000D+00 -.273992464788D-04 0.501097622294D-06 0.000000000000D+00  7 -2 2 23 -13 13 23 21 2 0.12069202D+00 0.42936756D+00 0.28332435D+06 0.28332435D+06 0.28332435D+06 0.10863942D+01  1  2  5  1  7  1       -2 -.417750458460D-05 0.100000000000D+01
-.760024098084D-05 0.000000000000D+00 -.643701691973D-05 0.501097622294D-06 0.000000000000D+00  7 21 2 23 -13 13 23 2 2 0.12069202D+00 0.42936756D+00 0.28332435D+06 0.28332435D+06 0.28332435D+06 0.10863942D+01  1  2  5  3  7  1       -2 -.128956527261D-04 0.100000000000D+01
  </mgrwgt>
  </event>
  <event>
  8     66 0.53686478E-06 0.46525191E+03 0.75467711E-02 0.83455615E-01
       -2 -1    0    0    0  501 0.00000000E+00 0.00000000E+00 0.36755287E+03 0.36755301E+03 0.32000000E+00 0.0000E+00 0.9000E+01
        2 -1    0    0  501    0 0.00000000E+00 0.00000000E+00 -.68766986E+03 0.68766994E+03 0.32000000E+00 0.0000E+00 0.9000E+01
       25  2    1    2    0    0 0.38754276E+03 -.16136240E+03 0.64958631E+01 0.51573380E+03 0.29951951E+03 0.0000E+00 0.0000E+00
       23  2    1    2    0    0 -.38754276E+03 0.16136240E+03 -.32661286E+03 0.53948915E+03 0.90251713E+02 0.0000E+00 0.0000E+00
       23  1    3    3    0    0 0.22163516E+02 0.95128732E+01 0.36423388E+02 0.10111197E+03 0.91188000E+02 0.0000E+00 0.9000E+01
      -13  1    4    4    0    0 -.36776549E+03 0.16402209E+03 -.28498919E+03 0.49332905E+03 0.10565837E+00 0.0000E+00 0.9000E+01
       13  1    4    4    0    0 -.19777267E+02 -.26596860E+01 -.41623664E+02 0.46160100E+02 0.10565837E+00 0.0000E+00 0.9000E+01
       23  1    3    3    0    0 0.36537924E+03 -.17087528E+03 -.29927525E+02 0.41462182E+03 0.91188000E+02 0.0000E+00 0.9000E+01
#aMCatNLO 1  0  0  2  1 0.13890889D+04 0.00000000D+00  -5  7  0 0.00000000D+00 0.00000000D+00 0.00000000D+00 0.00000000D+00 0.00000000D+00
  <mgrwgt>
 0.4011716294D-03    3    2    0
 0.502747594509221D+03 0.000000000000000D+00 0.000000000000000D+00 0.502747594509221D+03
 0.502747594509221D+03 0.000000000000000D+00 0.000000000000000D+00 -.502747594509221D+03
 0.117708586753797D+03 0.221635157070997D+02 0.951287319279191D+01 0.704155087086299D+02
 0.426996363983558D+03 -.367765965653648D+03 0.164022318365958D+03 -.142023830535144D+03
 0.351908338021197D+02 -.197767901145797D+02 -.265991441651748D+01 -.289861727682196D+02
 0.425599404478968D+03 0.365379240061128D+03 -.170875277142233D+03 0.100594494594733D+03
 0.000000000000000D+00 -.000000000000000D+00 -.000000000000000D+00 0.000000000000000D+00
 0.171416272921047D+04 0.000000000000000D+00 0.000000000000000D+00 0.171416272921047D+04
 0.142045228727763D+04 0.000000000000000D+00 0.000000000000000D+00 -.142045228727763D+04
 0.219518868083231D+03 0.552094655551830D+02 0.178512893503407D+03 0.704155087086299D+02
 0.853102506851343D+03 -.242325161592657D+03 0.805538102646462D+03 -.142023830535144D+03
 0.511664680353639D+02 -.113143739482672D+02 0.406176584950882D+02 -.289861727682196D+02
 0.591026575464778D+03 0.465001529603702D+03 0.338602254400456D+03 0.100594494594733D+03
 0.141980059805338D+04 -.266571459617960D+03 -.136327090904541D+04 0.293710441932836D+03
0.257628535953D-04 0.000000000000D+00 0.000000000000D+00 0.613015846815D-06 0.000000000000D+00  7 -2 2 23 -13 13 23 21 0 0.56546612D-01 0.10579538D+00 0.21645934D+06 0.21645934D+06 0.21645934D+06 0.10951972D+01  1  2  2  2  7  2        2 0.398150586217D-03 0.100000000000D+01
-.142081498434D-05 0.000000000000D+00 -.989361413212D-07 0.613015846815D-06 0.000000000000D+00  7 -2 2 23 -13 13 23 21 2 0.56546612D-01 0.10579538D+00 0.21645934D+06 0.21645934D+06 0.21645934D+06 0.10951972D+01  1  2  3  2  7  2        2 -.263375619948D-04 0.100000000000D+01
0.158378919790D-05 0.000000000000D+00 0.000000000000D+00 0.613015846815D-06 0.000000000000D+00  7 -2 2 23 -13 13 23 21 2 0.56546612D-01 0.10579538D+00 0.21645934D+06 0.21645934D+06 0.21645934D+06 0.10951972D+01  1  2 15  2  7  2        2 0.293586051991D-04 0.100000000000D+01
  </mgrwgt>
  </event>
  <event>
  8     66 0.53686478E-06 0.13499825E+03 0.75467711E-02 0.10115542E+00
       -2 -1    0    0    0  501 0.00000000E+00 0.00000000E+00 0.30984075E+03 0.30984092E+03 0.32000000E+00 0.0000E+00 0.9000E+01
        2 -1    0    0  501    0 0.00000000E+00 0.00000000E+00 -.43252572E+03 0.43252584E+03 0.32000000E+00 0.0000E+00 0.9000E+01
       25  2    1    2    0    0 0.81853370E+02 -.13685211E+03 -.32761072E+03 0.46722118E+03 0.29246944E+03 0.0000E+00 0.0000E+00
       23  2    1    2    0    0 -.81853370E+02 0.13685211E+03 0.20492575E+03 0.27514557E+03 0.91005765E+02 0.0000E+00 0.0000E+00
       23  1    3    3    0    0 0.90331908E+02 -.18785156E+03 -.23882465E+03 0.32984925E+03 0.91188000E+02 0.0000E+00 0.9000E+01
      -11  1    4    4    0    0 -.88468652E+02 0.81735779E+02 0.17393895E+03 0.21157079E+03 0.51099893E-03 0.0000E+00 0.9000E+01
       11  1    4    4    0    0 0.66152823E+01 0.55116327E+02 0.30986805E+02 0.63574787E+02 0.51099893E-03 0.0000E+00 0.9000E+01
       23  1    3    3    0    0 -.84785379E+01 0.50999452E+02 -.88786075E+02 0.13737193E+03 0.91188000E+02 0.0000E+00 0.9000E+01
#aMCatNLO 1  0  0  2  1 0.67927781D+02 0.00000000D+00  -5  7  0 0.00000000D+00 0.00000000D+00 0.00000000D+00 0.00000000D+00 0.00000000D+00
  <mgrwgt>
 0.2848489535D-03    9    2    0
 0.366079497740489D+03 0.000000000000000D+00 0.000000000000000D+00 0.366079497740489D+03
 0.366079497740489D+03 0.000000000000000D+00 0.000000000000000D+00 -.366079497740489D+03
 0.294429107178377D+03 0.903319077382752D+02 -.187851558302705D+03 -.186882814344886D+03
 0.243666763258645D+03 -.884686521031904D+02 0.817357791668597D+02 0.211816079455681D+03
 0.696534816261279D+02 0.661528229804660D+01 0.551163267909723D+02 0.420717965367446D+02
 0.124409643417828D+03 -.847853793313132D+01 0.509994523448733D+02 -.670050616475394D+02
 0.000000000000000D+00 0.000000000000000D+00 0.000000000000000D+00 -.000000000000000D+00
 0.372378137301858D+03 0.000000000000000D+00 0.000000000000000D+00 0.372378137301858D+03
 0.611712145911897D+03 0.000000000000000D+00 0.000000000000000D+00 -.611712145911897D+03
 0.295521162626006D+03 0.656165984947170D+02 -.199466242558345D+03 -.186882814344886D+03
 0.248916454574067D+03 -.109104877188670D+03 0.720380150711660D+02 0.211816079455681D+03
 0.672222727253635D+02 0.881025073511156D+00 0.524215764867269D+02 0.420717965367446D+02
 0.123643433960621D+03 -.188704452345001D+02 0.461158912722669D+02 -.670050616475394D+02
 0.248786959327696D+03 0.614776988549417D+02 0.288907597281849D+02 -.239334008610039D+03
0.936893994594D-05 0.000000000000D+00 0.000000000000D+00 0.480857149376D-08 0.000000000000D+00  7 -2 2 23 -11 11 23 21 0 0.47667830D-01 0.66542440D-01 0.64591793D+05 0.64591793D+05 0.64591793D+05 0.11376402D+01  1  2  2  2  7  2        2 0.351925559995D-03 0.100000000000D+01
-.436218186257D-06 0.000000000000D+00 -.359791962909D-07 0.480857149376D-08 0.000000000000D+00  7 -2 2 23 -11 11 23 21 2 0.47667830D-01 0.66542440D-01 0.64591793D+05 0.64591793D+05 0.64591793D+05 0.11376402D+01  1  2  3  2  7  2        2 -.212067449025D-04 0.100000000000D+01
0.581472084805D-06 0.000000000000D+00 0.000000000000D+00 0.480857149376D-08 0.000000000000D+00  7 -2 2 23 -11 11 23 21 2 0.47667830D-01 0.66542440D-01 0.64591793D+05 0.64591793D+05 0.64591793D+05 0.11376402D+01  1  2 15  2  7  2        2 0.282682624403D-04 0.100000000000D+01
0.540344860670D-04 0.000000000000D+00 0.000000000000D+00 0.480857149376D-08 0.000000000000D+00  7 -2 2 23 -11 11 23 21 2 0.47667830D-01 0.11142893D+00 0.85246137D+05 0.85246137D+05 0.85246137D+05 0.11274558D+01  1  2 12  2  7  2        2 0.142931738246D-02 0.100000000000D+01
-.508953745233D-04 0.000000000000D+00 0.000000000000D+00 0.480857149376D-08 0.000000000000D+00  7 -2 2 23 -11 11 23 21 2 0.47667830D-01 0.66542440D-01 0.64591793D+05 0.64591793D+05 0.64591793D+05 0.11376402D+01  1  2  4  2  7  2        2 -.247427837315D-02 0.100000000000D+01
-.555653715732D-04 0.000000000000D+00 -.348221045848D-05 0.480857149376D-08 0.000000000000D+00  7 -2 2 23 -11 11 23 21 2 0.47667830D-01 0.11194865D+00 0.64591793D+05 0.64591793D+05 0.64591793D+05 0.11376402D+01  1  2  5  2  7  2        2 -.149683036147D-02 0.100000000000D+01
0.507738758594D-04 0.000000000000D+00 0.305890925678D-05 0.480857149376D-08 0.000000000000D+00  7 -2 2 23 -11 11 23 21 2 0.47667830D-01 0.66542440D-01 0.64591793D+05 0.64591793D+05 0.64591793D+05 0.11376402D+01  1  2  6  2  7  2        2 0.246837171623D-02 0.100000000000D+01
0.312201055004D-05 0.000000000000D+00 0.000000000000D+00 0.480857149376D-08 0.000000000000D+00  7 -2 21 23 -11 11 23 -2 2 0.47667830D-01 0.11142893D+00 0.85246137D+05 0.85246137D+05 0.85246137D+05 0.11274558D+01  1  2 12  4  7  2        2 0.989120033370D-04 0.100000000000D+01
-.306974218805D-05 0.000000000000D+00 -.202659024476D-06 0.480857149376D-08 0.000000000000D+00  7 -2 21 23 -11 11 23 -2 2 0.47667830D-01 0.11194865D+00 0.64591793D+05 0.64591793D+05 0.64591793D+05 0.11376402D+01  1  2  5  4  7  2        2 -.996304914676D-04 0.100000000000D+01
  </mgrwgt>
  </event>
  <event>
  8     66 0.53686478E-06 0.38328121E+03 0.75467711E-02 0.84997499E-01
       -2 -1    0    0    0  501 0.00000000E+00 0.00000000E+00 0.14451850E+03 0.14451885E+03 0.32000000E+00 0.0000E+00 0.9000E+01
        2 -1    0    0  501    0 0.00000000E+00 0.00000000E+00 -.10953352E+04 0.10953353E+04 0.32000000E+00 0.0000E+00 0.9000E+01
       25  2    1    2    0    0 -.17308022E+03 -.27929331E+03 -.63382800E+03 0.77443118E+03 0.30007366E+03 0.0000E+00 0.0000E+00
       23  2    1    2    0    0 0.17308022E+03 0.27929331E+03 -.31698875E+03 0.46542297E+03 0.90416569E+02 0.0000E+00 0.0000E+00
       23  1    3    3    0    0 0.32943703E+02 -.14763533E+03 -.32691744E+03 0.37158006E+03 0.91188000E+02 0.0000E+00 0.9000E+01
      -13  1    4    4    0    0 0.37289731E+02 0.73707568E+02 -.13820225E+03 0.16100684E+03 0.10565837E+00 0.0000E+00 0.9000E+01
       13  1    4    4    0    0 0.13579049E+03 0.20558574E+03 -.17878649E+03 0.30441612E+03 0.10565837E+00 0.0000E+00 0.9000E+01
       23  1    3    3    0    0 -.20602392E+03 -.13165799E+03 -.30691056E+03 0.40285112E+03 0.91188000E+02 0.0000E+00 0.9000E+01
#aMCatNLO 1  0  0  1  1 0.11798647D+04 0.00000000D+00  -5  7  0 0.00000000D+00 0.00000000D+00 0.00000000D+00 0.00000000D+00 0.00000000D+00
  <mgrwgt>
 0.4652009913D-03    3    2    0
 0.397864870129573D+03 0.000000000000000D+00 0.000000000000000D+00 0.397864870129573D+03
 0.397864870129573D+03 0.000000000000000D+00 0.000000000000000D+00 -.397864870129573D+03
 0.188338444159473D+03 0.329437033394857D+02 -.147635326047450D+03 -.653807396528495D+02
 0.857323683500719D+02 0.372895966387406D+02 0.737073874984529D+02 -.229509475531043D+02
 0.260689754800934D+03 0.135790623577065D+03 0.205585923838971D+03 0.851732512353473D+02
 0.260969172948668D+03 -.206023923555292D+03 -.131657985289974D+03 0.315843597060656D+01
 0.000000000000000D+00 0.000000000000000D+00 -.000000000000000D+00 -.000000000000000D+00
 0.100354433790243D+04 0.000000000000000D+00 0.000000000000000D+00 0.100354433790243D+04
 0.190347032188882D+04 0.000000000000000D+00 0.000000000000000D+00 -.190347032188882D+04
 0.129877153056424D+03 -.647207619766162D+02 -.945544254142442D+01 -.653807396528495D+02
 0.210662373433718D+03 -.536777670985511D+02 0.202411923824798D+03 -.229509475531043D+02
 0.598949156834524D+03 -.128043630319773D+03 0.578869966815796D+03 0.851732512353473D+02
 0.483629918305368D+03 -.434550974895402D+03 0.191671909876573D+03 0.315843597060656D+01
 0.148389605816122D+04 0.680993134290342D+03 -.963498357975742D+03 -.899925983986383D+03
0.985617945385D-05 0.000000000000D+00 0.000000000000D+00 0.733508359842D-06 0.000000000000D+00  7 -2 2 23 -13 13 23 21 0 0.22233646D-01 0.16851315D+00 0.14690448D+06 0.14690448D+06 0.14690448D+06 0.11082673D+01  1  2  2  1  7  1       -2 0.459416921347D-03 0.100000000000D+01
-.546637099040D-06 0.000000000000D+00 -.378503242944D-07 0.733508359842D-06 0.000000000000D+00  7 -2 2 23 -13 13 23 21 2 0.22233646D-01 0.16851315D+00 0.14690448D+06 0.14690448D+06 0.14690448D+06 0.11082673D+01  1  2  3  1  7  1       -2 -.312958321165D-04 0.100000000000D+01
0.647666118833D-06 0.000000000000D+00 0.000000000000D+00 0.733508359842D-06 0.000000000000D+00  7 -2 2 23 -13 13 23 21 2 0.22233646D-01 0.16851315D+00 0.14690448D+06 0.14690448D+06 0.14690448D+06 0.11082673D+01  1  2 15  1  7  1       -2 0.370799021108D-04 0.100000000000D+01
  </mgrwgt>
  </event>
  <event>
  8     66 0.53686478E-06 0.27792940E+03 0.75467711E-02 0.91088919E-01
       -2 -1    0    0    0  501 0.00000000E+00 0.00000000E+00 0.23359439E+03 0.23359461E+03 0.32000000E+00 0.0000E+00 0.9000E+01
        2 -1    0    0  501    0 0.00000000E+00 0.00000000E+00 -.43711128E+03 0.43711140E+03 0.32000000E+00 0.0000E+00 0.9000E+01
       25  2    1    2    0    0 0.38426033E+02 -.21309346E+03 -.39621415E+02 0.37266424E+03 0.30070483E+03 0.0000E+00 0.0000E+00
       23  2    1    2    0    0 -.38426033E+02 0.21309346E+03 -.16389548E+03 0.29804177E+03 0.12280791E+03 0.0000E+00 0.0000E+00
       23  1    3    3    0    0 0.80186357E+02 -.10108990E+03 0.83163178E+02 0.17855079E+03 0.91188000E+02 0.0000E+00 0.9000E+01
      -13  1    4    4    0    0 0.17306289E+02 -.83122445E+01 -.48770355E+01 0.19809030E+02 0.10565837E+00 0.0000E+00 0.9000E+01
       13  1    4    4    0    0 -.55732322E+02 0.22140571E+03 -.15901845E+03 0.27823274E+03 0.10565837E+00 0.0000E+00 0.9000E+01
       23  1    3    3    0    0 -.41760324E+02 -.11200356E+03 -.12278459E+03 0.19411344E+03 0.91188000E+02 0.0000E+00 0.9000E+01
#aMCatNLO 1  0  0  1  1 0.60038133D+03 0.00000000D+00  -5  7  0 0.00000000D+00 0.00000000D+00 0.00000000D+00 0.00000000D+00 0.00000000D+00
  <mgrwgt>
 0.3952101473D-03    3    2    0
 0.319541633505497D+03 0.000000000000000D+00 0.000000000000000D+00 0.319541633505497D+03
 0.319541633505497D+03 0.000000000000000D+00 0.000000000000000D+00 -.319541633505497D+03
 0.213869465821518D+03 0.801864273105440D+02 -.101090292526351D+03 0.144138082056371D+03
 0.192353636797135D+02 0.173059499900411D+02 -.831190564137599D+01 0.118976276706767D+01
 0.241360753208331D+03 -.557321067650993D+02 0.221406055879554D+03 -.782834841117590D+02
 0.164617684301432D+03 -.417602705354857D+02 -.112003857711827D+03 -.670443607116795D+02
 0.000000000000000D+00 0.000000000000000D+00 -.000000000000000D+00 -.000000000000000D+00
 0.628155557744114D+03 0.000000000000000D+00 0.000000000000000D+00 0.628155557744114D+03
 0.913404265981858D+03 0.000000000000000D+00 0.000000000000000D+00 -.913404265981858D+03
 0.174893048011432D+03 -.385618254063570D+02 -.308639290589210D+01 0.144138082056371D+03
 0.888271935202679D+01 0.871722779857316D+01 -.122356330149053D+01 0.118976276706767D+01
 0.503938115357427D+03 -.283385070322425D+03 0.409289899879869D+03 -.782834841117590D+02
 0.189147087946434D+03 -.149818396209808D+03 -.228226069610611D+02 -.670443607116795D+02
 0.664698853058653D+03 0.463048064140018D+03 -.382157336711425D+03 -.285248708237744D+03
0.623157650546D-05 0.000000000000D+00 0.000000000000D+00 0.510234371552D-09 0.000000000000D+00  7 -2 2 23 -13 13 23 21 0 0.35937624D-01 0.67247916D-01 0.77244754D+05 0.77244754D+05 0.77244754D+05 0.11310415D+01  1  2  2  1  7  1       -2 0.391619625884D-03 0.100000000000D+01
-.338004947435D-06 0.000000000000D+00 -.239308945927D-07 0.510234371552D-09 0.000000000000D+00  7 -2 2 23 -13 13 23 21 2 0.35937624D-01 0.67247916D-01 0.77244754D+05 0.77244754D+05 0.77244754D+05 0.11310415D+01  1  2  3  1  7  1       -2 -.271735673542D-04 0.100000000000D+01
0.382666511281D-06 0.000000000000D+00 0.000000000000D+00 0.510234371552D-09 0.000000000000D+00  7 -2 2 23 -13 13 23 21 2 0.35937624D-01 0.67247916D-01 0.77244754D+05 0.77244754D+05 0.77244754D+05 0.11310415D+01  1  2 15  1  7  1       -2 0.307640888023D-04 0.100000000000D+01
  </mgrwgt>
  </event>
  <event>
  7     66 0.53686478E-06 0.17227151E+03 0.75467711E-02 0.97993567E-01
       -2 -1    0    0    0  501 0.00000000E+00 0.00000000E+00 0.21880685E+03 0.21880708E+03 0.32000000E+00 0.0000E+00 0.9000E+01
        2 -1    0    0  501    0 0.00000000E+00 0.00000000E+00 -.15446683E+04 0.15446683E+04 0.32000000E+00 0.0000E+00 0.9000E+01
       23  2    1    2    0    0 -.52614050E+02 -.21600545E+03 0.10715469E+03 0.26179927E+03 0.87350658E+02 0.0000E+00 0.0000E+00
       23  1    1    2    0    0 -.60700553E+02 0.26100533E+03 -.10942685E+04 0.11302863E+04 0.91188000E+02 0.0000E+00 0.9000E+01
      -11  1    3    3    0    0 -.39931657E+02 -.21261474E+03 0.78243184E+02 0.23004687E+03 0.51099893E-03 0.0000E+00 0.9000E+01
       11  1    3    3    0    0 -.12682394E+02 -.33907125E+01 0.28911507E+02 0.31752406E+02 0.51099893E-03 0.0000E+00 0.9000E+01
       23  1    1    2    0    0 0.11331460E+03 -.44999880E+02 -.33874763E+03 0.37138981E+03 0.91188000E+02 0.0000E+00 0.9000E+01
#aMCatNLO 1  0  0  2  1 0.74694939D+02 0.00000000D+00  -5  7  0 0.00000000D+00 0.00000000D+00 0.00000000D+00 0.00000000D+00 0.00000000D+00
  <mgrwgt>
 0.1232477856D-02    9    2    0
 0.581364109973693D+03 0.000000000000000D+00 0.000000000000000D+00 0.581364109973693D+03
 0.581364109973693D+03 0.000000000000000D+00 0.000000000000000D+00 -.581364109973693D+03
 0.466475032544112D+03 -.607005498065248D+02 0.261005330947204D+03 -.370776705192433D+03
 0.438126121962437D+03 -.399316567831454D+02 -.212614742138361D+03 0.380992037919213D+03
 0.811257842816152D+02 -.126823939167847D+02 -.339071267967264D+01 0.800565601769810D+02
 0.177001281159223D+03 0.113314600506455D+03 -.449998761291696D+02 -.902718929037612D+02
 0.000000000000000D+00 0.000000000000000D+00 0.000000000000000D+00 -.000000000000000D+00
 0.609948667802879D+03 0.000000000000000D+00 0.000000000000000D+00 0.609948667802879D+03
 0.633494531202679D+03 0.000000000000000D+00 0.000000000000000D+00 -.633494531202679D+03
 0.456270317344949D+03 -.782991678787791D+02 0.237194490539292D+03 -.370776705192433D+03
 0.451538049285219D+03 -.568993499438192D+02 -.235571944361880D+03 0.380992037919213D+03
 0.819524386339233D+02 -.157926250995672D+02 -.759883959173404D+01 0.800565601769810D+02
 0.175364186874372D+03 0.106594279136621D+03 -.540924366342056D+02 -.902718929037612D+02
 0.783182068670952D+02 0.443968637855445D+02 0.600687300485273D+02 -.235458633998008D+02
0.524823672946D-04 0.000000000000D+00 0.000000000000D+00 0.410815106182D-10 0.000000000000D+00  7 -2 2 23 -11 11 23 21 0 0.33662613D-01 0.23764129D+00 0.11048054D+06 0.11048054D+06 0.11048054D+06 0.11181872D+01  1  2  2  2  7  2        2 0.672957756464D-03 0.100000000000D+01
-.180760935759D-05 0.000000000000D+00 -.201546109336D-06 0.410815106182D-10 0.000000000000D+00  7 -2 2 23 -11 11 23 21 2 0.33662613D-01 0.23764129D+00 0.11048054D+06 0.11048054D+06 0.11048054D+06 0.11181872D+01  1  2  3  2  7  2        2 -.289806398473D-04 0.100000000000D+01
0.289392741038D-05 0.000000000000D+00 0.000000000000D+00 0.410815106182D-10 0.000000000000D+00  7 -2 2 23 -11 11 23 21 2 0.33662613D-01 0.23764129D+00 0.11048054D+06 0.11048054D+06 0.11048054D+06 0.11181872D+01  1  2 15  2  7  2        2 0.463971198601D-04 0.100000000000D+01
0.874665849042D-04 0.000000000000D+00 0.000000000000D+00 0.410815106182D-10 0.000000000000D+00  7 -2 2 23 -11 11 23 21 2 0.33662613D-01 0.26437932D+00 0.14093267D+06 0.14093267D+06 0.14093267D+06 0.11096952D+01  1  2 12  2  7  2        2 0.110366368509D-02 0.100000000000D+01
-.828411326204D-04 0.000000000000D+00 0.000000000000D+00 0.410815106182D-10 0.000000000000D+00  7 -2 2 23 -11 11 23 21 2 0.33662613D-01 0.23764129D+00 0.11048054D+06 0.11048054D+06 0.11048054D+06 0.11181872D+01  1  2  4  2  7  2        2 -.132815700413D-02 0.100000000000D+01
-.215792063177D-03 0.000000000000D+00 -.543277895082D-04 0.410815106182D-10 0.000000000000D+00  7 -2 2 23 -11 11 23 21 2 0.33662613D-01 0.26555780D+00 0.11048054D+06 0.11048054D+06 0.11048054D+06 0.11181872D+01  1  2  5  2  7  2        2 -.276556781848D-02 0.100000000000D+01
0.220796318833D-03 0.000000000000D+00 0.539943938404D-04 0.410815106182D-10 0.000000000000D+00  7 -2 2 23 -11 11 23 21 2 0.33662613D-01 0.23764129D+00 0.11048054D+06 0.11048054D+06 0.11048054D+06 0.11181872D+01  1  2  6  2  7  2        2 0.353993442712D-02 0.100000000000D+01
0.150120232442D-05 0.000000000000D+00 0.000000000000D+00 0.410815106182D-10 0.000000000000D+00  7 -2 21 23 -11 11 23 -2 2 0.33662613D-01 0.26437932D+00 0.14093267D+06 0.14093267D+06 0.14093267D+06 0.11096952D+01  1  2 12  4  7  2        2 0.532860103147D-05 0.100000000000D+01
-.361729847254D-05 0.000000000000D+00 -.965532992440D-06 0.410815106182D-10 0.000000000000D+00  7 -2 21 23 -11 11 23 -2 2 0.33662613D-01 0.26555780D+00 0.11048054D+06 0.11048054D+06 0.11048054D+06 0.11181872D+01  1  2  5  4  7  2        2 -.130982706352D-04 0.100000000000D+01
  </mgrwgt>
  </event>
  <event>
  9     66 0.53686478E-06 0.20811890E+03 0.75467711E-02 0.10065643E+00
       -2 -1    0    0    0  501 0.00000000E+00 0.00000000E+00 0.70620473E+02 0.70621198E+02 0.32000000E+00 0.0000E+00 0.9000E+01
        2 -1    0    0  502    0 0.00000000E+00 0.00000000E+00 -.25302936E+04 0.25302936E+04 0.32000000E+00 0.0000E+00 0.9000E+01
       25  2    1    2    0    0 -.28685405E+02 -.53435508E+01 -.61495447E+03 0.68457927E+03 0.29937999E+03 0.0000E+00 0.0000E+00
       23  2    1    2    0    0 -.33385000E+02 0.14922210E+03 -.23150309E+03 0.29552747E+03 0.10178906E+03 0.0000E+00 0.0000E+00
       23  1    3    3    0    0 -.12409358E+03 0.22056910E+02 -.23879187E+03 0.28499567E+03 0.91188000E+02 0.0000E+00 0.9000E+01
      -11  1    4    4    0    0 -.44343931E+02 0.99251857E+02 -.78196257E+02 0.13391031E+03 0.51099893E-03 0.0000E+00 0.9000E+01
       11  1    4    4    0    0 0.10958931E+02 0.49970243E+02 -.15330683E+03 0.16161716E+03 0.51099893E-03 0.0000E+00 0.9000E+01
       23  1    3    3    0    0 0.95408175E+02 -.27400461E+02 -.37616260E+03 0.39958360E+03 0.91188000E+02 0.0000E+00 0.9000E+01
       21  1    1    2  502  501 0.62070405E+02 -.14387855E+03 -.16132155E+04 0.16208080E+04 0.75000000E+00 0.0000E+00 0.9000E+01
#aMCatNLO 2  0  0  2  1 0.15669643D+03 0.00000000D+00  -5  7  0 0.00000000D+00 0.00000000D+00 0.00000000D+00 0.00000000D+00 0.00000000D+00
  <mgrwgt>
 0.4080761520D-04    2    2    0
 0.234288851886339D+03 0.000000000000000D+00 0.000000000000000D+00 0.234288851886339D+03
 0.234288851886339D+03 0.000000000000000D+00 0.000000000000000D+00 -.234288851886339D+03
 0.141540967378832D+03 -.104892849033698D+03 -.224501863891287D+02 0.145627420228070D+02
 0.102488706184498D+03 -.292457907685605D+02 0.642545394823762D+02 0.742965192562998D+02
 0.472171938991860D+02 0.177401741757875D+02 0.342513860315398D+02 -.272321900486260D+02
 0.177330836310161D+03 0.116398465626471D+03 -.760557391247873D+02 -.616270712304808D+02
 0.000000000000000D+00 0.000000000000000D+00 -.000000000000000D+00 -.000000000000000D+00
 0.261075874560887D+03 0.000000000000000D+00 0.000000000000000D+00 0.261075874560887D+03
 0.684441231170121D+03 0.000000000000000D+00 0.000000000000000D+00 -.684441231170121D+03
 0.156246754458895D+03 -.124093579226487D+03 0.220569053694083D+02 0.145627420228070D+02
 0.131671141367417D+03 -.443439285530291D+02 0.992518649491300D+02 0.742965192562998D+02
 0.579544267591242D+02 0.109589277908240D+02 0.499702442240351D+02 -.272321900486260D+02
 0.148211513054742D+03 0.954081750331991D+02 -.274004650756817D+02 -.616270712304808D+02
 0.451433270090830D+03 0.620704049554934D+02 -.143878549466892D+03 -.423365356609234D+03
-.163158229441D-06 0.000000000000D+00 0.000000000000D+00 0.186905789319D-08 0.000000000000D+00  7 -2 2 23 -11 11 23 21 2 0.97499850D-02 0.38049217D+00 0.92087941D+05 0.92087941D+05 0.92087941D+05 0.11246715D+01  1  2 13  2  7  2        2 -.639938167755D-05 0.100000000000D+01
0.153323005521D-05 0.000000000000D+00 0.000000000000D+00 0.186905789319D-08 0.919780164481D-12  7 -2 2 23 -11 11 23 21 2 0.10864733D-01 0.38927555D+00 0.92087941D+05 0.92087941D+05 0.92087941D+05 0.11246715D+01  1  2  1  2  7  2        2 0.472069968792D-04 0.100000000000D+01
  </mgrwgt>
  </event>
  <event>
  8     66 0.53686478E-06 0.26994770E+03 0.75467711E-02 0.10194613E+00
       -2 -1    0    0    0  501 0.00000000E+00 0.00000000E+00 0.91004201E+02 0.91004764E+02 0.32000000E+00 0.0000E+00 0.9000E+01
        2 -1    0    0  501    0 0.00000000E+00 0.00000000E+00 -.13561765E+04 0.13561765E+04 0.32000000E+00 0.0000E+00 0.9000E+01
       25  2    1    2    0    0 -.86744788E+02 -.16554668E+03 -.31695904E+03 0.47674919E+03 0.30314418E+03 0.0000E+00 0.0000E+00
       23  2    1    2    0    0 0.86744788E+02 0.16554668E+03 -.94821325E+03 0.97043210E+03 0.87748145E+02 0.0000E+00 0.0000E+00
       23  1    3    3    0    0 0.69219801E+02 -.16508099E+02 -.64718838E+02 0.13254312E+03 0.91188000E+02 0.0000E+00 0.9000E+01
      -11  1    4    4    0    0 0.34406455E+02 0.10227460E+03 -.71691998E+03 0.72499528E+03 0.51099893E-03 0.0000E+00 0.9000E+01
       11  1    4    4    0    0 0.52338333E+02 0.63272081E+02 -.23129327E+03 0.24543682E+03 0.51099893E-03 0.0000E+00 0.9000E+01
       23  1    3    3    0    0 -.15596459E+03 -.14903858E+03 -.25224021E+03 0.34420608E+03 0.91188000E+02 0.0000E+00 0.9000E+01
#aMCatNLO 1  0  0  1  1 0.10141362D+02 0.00000000D+00  -5  7  0 0.00000000D+00 0.00000000D+00 0.00000000D+00 0.00000000D+00 0.00000000D+00
  <mgrwgt>
 0.3607851174D-03    4    2    0
 0.351309255005661D+03 0.000000000000000D+00 0.000000000000000D+00 0.351309255005661D+03
 0.351309255005661D+03 0.000000000000000D+00 0.000000000000000D+00 -.351309255005661D+03
 0.156462483317978D+03 0.692198005771439D+02 -.165080993264706D+02 0.105362987840685D+03
 0.202346381285559D+03 0.344064552873151D+02 0.102274598661378D+03 -.171172895992844D+03
 0.890465332291377D+02 0.523383331249434D+02 0.632720810845163D+02 -.344474632021686D+02
 0.254763112178647D+03 -.155964588989402D+03 -.149038580419424D+03 0.100257371354327D+03
 0.000000000000000D+00 0.000000000000000D+00 -.000000000000000D+00 -.000000000000000D+00
 0.351824809913857D+03 0.000000000000000D+00 0.000000000000000D+00 0.351824809913857D+03
 0.405028130174917D+03 0.000000000000000D+00 0.000000000000000D+00 -.405028130174917D+03
 0.155451900259951D+03 0.670196196591941D+02 -.160328825995265D+02 0.105362987840685D+03
 0.202193696929997D+03 0.315529114704959D+02 0.102890935137055D+03 -.171172895992844D+03
 0.885102080677080D+02 0.510858838163431D+02 0.635425974117150D+02 -.344474632021686D+02
 0.256535889459147D+03 -.159571188639813D+03 -.148259591533881D+03 0.100257371354327D+03
 0.541612453719723D+02 0.991277369377993D+01 -.214105841536212D+01 -.532033202610598D+02
0.524537099343D-05 0.000000000000D+00 0.000000000000D+00 0.249868009384D-08 0.000000000000D+00  7 -2 2 23 -11 11 23 21 0 0.14000692D-01 0.20864258D+00 0.72871758D+05 0.72871758D+05 0.72871758D+05 0.11331782D+01  1  2  2  1  7  1       -2 0.373751325825D-03 0.100000000000D+01
-.266820305276D-06 0.000000000000D+00 -.201436057527D-07 0.249868009384D-08 0.000000000000D+00  7 -2 2 23 -11 11 23 21 2 0.14000692D-01 0.20864258D+00 0.72871758D+05 0.72871758D+05 0.72871758D+05 0.11331782D+01  1  2  3  1  7  1       -2 -.244130393395D-04 0.100000000000D+01
0.332895127595D-06 0.000000000000D+00 0.000000000000D+00 0.249868009384D-08 0.000000000000D+00  7 -2 2 23 -11 11 23 21 2 0.14000692D-01 0.20864258D+00 0.72871758D+05 0.72871758D+05 0.72871758D+05 0.11331782D+01  1  2 15  1  7  1       -2 0.304586333394D-04 0.100000000000D+01
-.207787931230D-06 0.000000000000D+00 0.000000000000D+00 0.249868009384D-08 0.000000000000D+00  7 -2 2 23 -11 11 23 21 2 0.14000692D-01 0.20864258D+00 0.72871758D+05 0.72871758D+05 0.72871758D+05 0.11331782D+01  1  2  4  1  7  1       -2 -.190118024719D-04 0.100000000000D+01
  </mgrwgt>
  </event>
  <event>
  8     66 0.53686478E-06 0.14776116E+03 0.75467711E-02 0.10313509E+00
       -2 -1    0    0    0  501 0.00000000E+00 0.00000000E+00 0.57047739E+02 0.57048636E+02 0.32000000E+00 0.0000E+00 0.9000E+01
        2 -1    0    0  501    0 0.00000000E+00 0.00000000E+00 -.97594703E+03 0.97594709E+03 0.32000000E+00 0.0000E+00 0.9000E+01
       25  2    1    2    0    0 -.25478962E+02 0.50265656E+02 -.40294340E+03 0.50564962E+03 0.30023713E+03 0.0000E+00 0.0000E+00
       23  2    1    2    0    0 0.25478962E+02 -.50265656E+02 -.51595589E+03 0.52734610E+03 0.93314625E+02 0.0000E+00 0.0000E+00
       23  1    3    3    0    0 0.47842647E+02 -.11735095E+02 -.34655699E+03 0.36172314E+03 0.91188000E+02 0.0000E+00 0.9000E+01
      -13  1    4    4    0    0 0.16531046E+02 -.47181016E+02 -.51544849E+03 0.51786724E+03 0.10565837E+00 0.0000E+00 0.9000E+01
       13  1    4    4    0    0 0.89479164E+01 -.30846397E+01 -.50740072E+00 0.94788623E+01 0.10565837E+00 0.0000E+00 0.9000E+01
       23  1    3    3    0    0 -.73321610E+02 0.62000751E+02 -.56386411E+02 0.14392648E+03 0.91188000E+02 0.0000E+00 0.9000E+01
#aMCatNLO 1  0  0  2  2 0.16654504D+03 0.00000000D+00  -5  7  0 0.00000000D+00 0.00000000D+00 0.00000000D+00 0.00000000D+00 0.00000000D+00
  <mgrwgt>
 0.1901578445D-03    5    2    0
 0.235957755096293D+03 0.000000000000000D+00 0.000000000000000D+00 0.235957755096293D+03
 0.235957755096293D+03 0.000000000000000D+00 0.000000000000000D+00 -.235957755096293D+03
 0.116985940990466D+03 0.478426439101408D+02 -.117350915288259D+02 -.542570557247832D+02
 0.129916185087400D+03 0.165310597560181D+02 -.471810778140071D+02 -.119911989005751D+03
 0.197605369129560D+02 0.894790599967582D+01 -.308458487310709D+01 0.173464444042536D+02
 0.205252847201764D+03 -.733216096658347D+02 0.620007542159401D+02 0.156822600326280D+03
 0.000000000000000D+00 -.000000000000000D+00 0.000000000000000D+00 -.000000000000000D+00
 0.279840920779131D+03 0.000000000000000D+00 0.000000000000000D+00 0.279840920779131D+03
 0.484327681513709D+03 0.000000000000000D+00 0.000000000000000D+00 -.484327681513709D+03
 0.139225574105915D+03 0.799208580498011D+02 -.416813806607075D+02 -.542570557247832D+02
 0.153396253835676D+03 0.520023658789501D+02 -.802949533065176D+02 -.119911989005751D+03
 0.240061622538793D+02 0.144275876897502D+02 -.820008574005719D+01 0.173464444042536D+02
 0.183813315479702D+03 -.246097175547517D+02 0.165262649264638D+02 0.156822600326280D+03
 0.263727296617668D+03 -.121741094063750D+03 0.113650154780818D+03 -.204486760734578D+03
0.884683251072D-06 0.000000000000D+00 0.000000000000D+00 0.678233705474D-07 0.000000000000D+00  7 -2 2 23 -13 13 23 21 0 0.87766483D-02 0.15014577D+00 0.21833360D+05 0.21833360D+05 0.21833360D+05 0.11803606D+01  1  2  2  2  7  2        2 0.212620750574D-03 0.100000000000D+01
-.360575001572D-07 0.000000000000D+00 -.339741662657D-08 0.678233705474D-07 0.000000000000D+00  7 -2 2 23 -13 13 23 21 2 0.87766483D-02 0.15014577D+00 0.21833360D+05 0.21833360D+05 0.21833360D+05 0.11803606D+01  1  2  3  2  7  2        2 -.120737682867D-04 0.100000000000D+01
0.541762989548D-07 0.000000000000D+00 0.000000000000D+00 0.678233705474D-07 0.000000000000D+00  7 -2 2 23 -13 13 23 21 2 0.87766483D-02 0.15014577D+00 0.21833360D+05 0.21833360D+05 0.21833360D+05 0.11803606D+01  1  2 15  2  7  2        2 0.181408050297D-04 0.100000000000D+01
-.350830399281D-06 0.000000000000D+00 -.259826954064D-06 0.678233705474D-07 0.000000000000D+00  7 -2 2 23 -13 13 23 21 2 0.87766483D-02 0.32835330D+00 0.21833360D+05 0.21833360D+05 0.21833360D+05 0.11803606D+01  1  2  5  2  7  2        2 -.283128381718D-04 0.100000000000D+01
-.134009306952D-07 0.000000000000D+00 -.220277536546D-07 0.678233705474D-07 0.000000000000D+00  7 -2 21 23 -13 13 23 -2 2 0.87766483D-02 0.32835330D+00 0.21833360D+05 0.21833360D+05 0.21833360D+05 0.11803606D+01  1  2  5  4  7  2        2 -.217104615857D-06 0.100000000000D+01
  </mgrwgt>
  </event>
  <event>
  8     66 0.53686478E-06 0.56344153E+02 0.75467711E-02 0.98132113E-01
       -2 -1    0    0    0  501 0.00000000E+00 0.00000000E+00 0.85535611E+02 0.85536209E+02 0.32000000E+00 0.0000E+00 0.9000E+01
        2 -1    0    0  501    0 0.00000000E+00 0.00000000E+00 -.24320409E+04 0.24320409E+04 0.32000000E+00 0.0000E+00 0.9000E+01
       25  2    1    2    0    0 -.16082891E+03 0.15180373E+03 -.22132657E+04 0.22444236E+04 0.29996971E+03 0.0000E+00 0.0000E+00
       23  2    1    2    0    0 0.16082891E+03 -.15180373E+03 -.13323958E+03 0.27315354E+03 0.89161444E+02 0.0000E+00 0.0000E+00
       23  1    3    3    0    0 -.76739693E+02 0.43359982E+02 -.17137574E+04 0.17184437E+04 0.91188000E+02 0.0000E+00 0.9000E+01
      -11  1    4    4    0    0 0.41334824E+02 0.39785966E+01 -.30803498E+02 0.51703505E+02 0.51099893E-03 0.0000E+00 0.9000E+01
       11  1    4    4    0    0 0.11949408E+03 -.15578233E+03 -.10243608E+03 0.22145004E+03 0.51099893E-03 0.0000E+00 0.9000E+01
       23  1    3    3    0    0 -.84089216E+02 0.10844375E+03 -.49950836E+03 0.52597994E+03 0.91188000E+02 0.0000E+00 0.9000E+01
#aMCatNLO 1  0  0  2  1 0.18593094D+03 0.00000000D+00  -5  7  0 0.00000000D+00 0.00000000D+00 0.00000000D+00 0.00000000D+00 0.00000000D+00
  <mgrwgt>
 0.7190473261D-03    8    2    0
 0.456099643320028D+03 0.000000000000000D+00 0.000000000000000D+00 0.456099643320028D+03
 0.456099643320028D+03 0.000000000000000D+00 0.000000000000000D+00 -.456099643320028D+03
 0.334327980897771D+03 -.767396926750060D+02 0.433599818536787D+02 -.309339423625529D+03
 0.634587105419380D+02 0.413348242267735D+02 0.397859664601734D+01 0.479855292615963D+02
 0.347677039224264D+03 0.119494084672669D+03 -.155782325030291D+03 0.286936150633112D+03
 0.166735555976084D+03 -.840892162244368D+02 0.108443746530595D+03 -.255822562691790D+02
 0.000000000000000D+00 -.000000000000000D+00 -.000000000000000D+00 -.000000000000000D+00
 0.485594918103873D+03 0.000000000000000D+00 0.000000000000000D+00 0.485594918103873D+03
 0.895088119530798D+03 0.000000000000000D+00 0.000000000000000D+00 -.895088119530798D+03
 0.328304523349704D+03 -.120690683976933D+02 0.602666349393575D+02 -.309339423625529D+03
 0.731198349970244D+02 0.546644145295054D+02 0.746331264405935D+01 0.479855292615963D+02
 0.370358854010722D+03 0.189571886729421D+03 -.137462089194930D+03 0.286936150633112D+03
 0.159172132523113D+03 -.522817610559722D+02 0.116759076962006D+03 -.255822562691790D+02
 0.449727692754107D+03 -.179885471805261D+03 -.470269353504928D+02 -.409493201426924D+03
0.145441668629D-04 0.000000000000D+00 0.000000000000D+00 0.401263418666D-06 0.000000000000D+00  7 -2 2 23 -11 11 23 21 0 0.13159372D-01 0.37416019D+00 0.70077995D+05 0.70077995D+05 0.70077995D+05 0.11346185D+01  1  2  2  2  7  2        2 0.301224081636D-03 0.100000000000D+01
-.517244133268D-06 0.000000000000D+00 -.558534303206D-07 0.401263418666D-06 0.000000000000D+00  7 -2 2 23 -11 11 23 21 2 0.13159372D-01 0.37416019D+00 0.70077995D+05 0.70077995D+05 0.70077995D+05 0.11346185D+01  1  2  3  2  7  2        2 -.137910121829D-04 0.100000000000D+01
0.890017134429D-06 0.000000000000D+00 0.000000000000D+00 0.401263418666D-06 0.000000000000D+00  7 -2 2 23 -11 11 23 21 2 0.13159372D-01 0.37416019D+00 0.70077995D+05 0.70077995D+05 0.70077995D+05 0.11346185D+01  1  2 15  2  7  2        2 0.237300654651D-04 0.100000000000D+01
0.406365015747D-05 0.000000000000D+00 0.000000000000D+00 0.401263418666D-06 0.000000000000D+00  7 -2 2 23 -11 11 23 21 2 0.13159372D-01 0.73533422D+00 0.13776666D+06 0.13776666D+06 0.13776666D+06 0.11104794D+01  1  2 12  2  7  2        2 0.164895928402D-05 0.100000000000D+01
-.163881767675D-04 0.000000000000D+00 -.324552223313D-05 0.401263418666D-06 0.000000000000D+00  7 -2 2 23 -11 11 23 21 2 0.13159372D-01 0.73881840D+00 0.70077995D+05 0.70077995D+05 0.70077995D+05 0.11346185D+01  1  2  5  2  7  2        2 -.697816203156D-05 0.100000000000D+01
0.154980351571D-04 0.000000000000D+00 0.261626472026D-05 0.401263418666D-06 0.000000000000D+00  7 -2 2 23 -11 11 23 21 2 0.13159372D-01 0.37416019D+00 0.70077995D+05 0.70077995D+05 0.70077995D+05 0.11346185D+01  1  2  6  2  7  2        2 0.413216077120D-03 0.100000000000D+01
0.297365604926D-06 0.000000000000D+00 0.000000000000D+00 0.401263418666D-06 0.000000000000D+00  7 -2 21 23 -11 11 23 -2 2 0.13159372D-01 0.73533422D+00 0.13776666D+06 0.13776666D+06 0.13776666D+06 0.11104794D+01  1  2 12  4  7  2        2 0.104214099283D-08 0.100000000000D+01
-.101460434384D-05 0.000000000000D+00 -.239085487206D-06 0.401263418666D-06 0.000000000000D+00  7 -2 21 23 -11 11 23 -2 2 0.13159372D-01 0.73881840D+00 0.70077995D+05 0.70077995D+05 0.70077995D+05 0.11346185D+01  1  2  5  4  7  2        2 -.372533969827D-08 0.100000000000D+01
  </mgrwgt>
  </event>
  <event>
  8     66 0.53686478E-06 0.41962990E+03 0.75467711E-02 0.91590810E-01
       -2 -1    0    0    0  501 0.00000000E+00 0.00000000E+00 0.68566137E+03 0.68566145E+03 0.32000000E+00 0.0000E+00 0.9000E+01
        2 -1    0    0  501    0 0.00000000E+00 0.00000000E+00 -.61871392E+03 0.61871401E+03 0.32000000E+00 0.0000E+00 0.9000E+01
       25  2    1    2    0    0 -.30757626E+03 0.47681005E+03 0.25919895E+03 0.69195863E+03 0.29945229E+03 0.0000E+00 0.0000E+00
       23  2    1    2    0    0 0.30757626E+03 -.47681005E+03 -.19225150E+03 0.61241682E+03 0.12705410E+03 0.0000E+00 0.0000E+00
       23  1    3    3    0    0 -.32625921E+02 0.76526887E+02 -.19047517E+02 0.12489545E+03 0.91188000E+02 0.0000E+00 0.9000E+01
      -11  1    4    4    0    0 0.67227933E+02 -.74015233E+02 0.12221028E+02 0.10073333E+03 0.51099893E-03 0.0000E+00 0.9000E+01
       11  1    4    4    0    0 0.24034832E+03 -.40279482E+03 -.20447253E+03 0.51168349E+03 0.51099893E-03 0.0000E+00 0.9000E+01
       23  1    3    3    0    0 -.27495033E+03 0.40028317E+03 0.27824646E+03 0.56706318E+03 0.91188000E+02 0.0000E+00 0.9000E+01
#aMCatNLO 1  0  0  1  2 0.12598427D+03 0.00000000D+00  -5  7  0 0.00000000D+00 0.00000000D+00 0.00000000D+00 0.00000000D+00 0.00000000D+00
  <mgrwgt>
 0.2864021318D-03    9    2    0
 0.651328135291978D+03 0.000000000000000D+00 0.000000000000000D+00 0.651328135291978D+03
 0.651328135291978D+03 0.000000000000000D+00 0.000000000000000D+00 -.651328135291978D+03
 0.126039194040622D+03 -.326259206522149D+02 0.765268868332749D+02 -.254914099965468D+02
 0.100238194600483D+03 0.672279334479339D+02 -.740152327485399D+02 0.706016588077095D+01
 0.522867250845614D+03 0.240348322033702D+03 -.402794821630721D+03 -.231039342472033D+03
 0.553511631097237D+03 -.274950334829421D+03 0.400283167545986D+03 0.249470586587809D+03
 0.000000000000000D+00 0.000000000000000D+00 -.000000000000000D+00 0.000000000000000D+00
 0.799542022330447D+03 0.000000000000000D+00 0.000000000000000D+00 0.799542022330447D+03
 0.681699751737052D+03 0.000000000000000D+00 0.000000000000000D+00 -.681699751737052D+03
 0.134659907814135D+03 -.382101171565746D+02 0.877964372385349D+02 -.254914099965468D+02
 0.914050986523338D+02 0.631229181231684D+02 -.657308399839422D+02 0.706016588077095D+01
 0.480080864320303D+03 0.218865089759722D+03 -.359439189573270D+03 -.231039342472033D+03
 0.602588401927255D+03 -.299714093956992D+03 0.450259279864743D+03 0.249470586587809D+03
 0.172507501353473D+03 0.559362032306766D+02 -.112885687546066D+03 0.117842270593394D+03
0.457737927648D-04 0.000000000000D+00 0.000000000000D+00 0.315292177003D-08 0.000000000000D+00  7 -2 2 23 -11 11 23 21 0 0.10548638D+00 0.95186770D-01 0.35199409D+06 0.35199409D+06 0.35199409D+06 0.10794534D+01  1  2  2  1  7  1       -2 0.196489217651D-03 0.100000000000D+01
-.251605722922D-05 0.000000000000D+00 -.175783416733D-06 0.315292177003D-08 0.000000000000D+00  7 -2 2 23 -11 11 23 21 2 0.10548638D+00 0.95186770D-01 0.35199409D+06 0.35199409D+06 0.35199409D+06 0.10794534D+01  1  2  3  1  7  1       -2 -.125849097659D-04 0.100000000000D+01
0.289023660979D-05 0.000000000000D+00 0.000000000000D+00 0.315292177003D-08 0.000000000000D+00  7 -2 2 23 -11 11 23 21 2 0.10548638D+00 0.95186770D-01 0.35199409D+06 0.35199409D+06 0.35199409D+06 0.10794534D+01  1  2 15  1  7  1       -2 0.144564942776D-04 0.100000000000D+01
0.760128481828D-04 0.000000000000D+00 0.000000000000D+00 0.315292177003D-08 0.000000000000D+00  7 -2 2 23 -11 11 23 21 2 0.13155112D+00 0.95186770D-01 0.43473902D+06 0.43473902D+06 0.43473902D+06 0.10728299D+01  1  2 12  1  7  1       -2 0.212091606513D-03 0.100000000000D+01
-.779366276064D-04 0.000000000000D+00 0.000000000000D+00 0.315292177003D-08 0.000000000000D+00  7 -2 2 23 -11 11 23 21 2 0.10548638D+00 0.95186770D-01 0.35199409D+06 0.35199409D+06 0.35199409D+06 0.10794534D+01  1  2  4  1  7  1       -2 -.389826357880D-03 0.100000000000D+01
-.125012149992D-03 0.000000000000D+00 -.261803538953D-04 0.315292177003D-08 0.000000000000D+00  7 -2 2 23 -11 11 23 21 2 0.13304114D+00 0.95186770D-01 0.35199409D+06 0.35199409D+06 0.35199409D+06 0.10794534D+01  1  2  5  1  7  1       -2 -.345709547688D-03 0.100000000000D+01
0.128306738129D-03 0.000000000000D+00 0.254908056003D-04 0.315292177003D-08 0.000000000000D+00  7 -2 2 23 -11 11 23 21 2 0.10548638D+00 0.95186770D-01 0.35199409D+06 0.35199409D+06 0.35199409D+06 0.10794534D+01  1  2  6  1  7  1       -2 0.641769472870D-03 0.100000000000D+01
0.234521994368D-05 0.000000000000D+00 0.000000000000D+00 0.315292177003D-08 0.000000000000D+00  7 21 2 23 -11 11 23 2 2 0.13155112D+00 0.95186770D-01 0.43473902D+06 0.43473902D+06 0.43473902D+06 0.10728299D+01  1  2 12  3  7  1       -2 0.565732838502D-04 0.100000000000D+01
-.361561910267D-05 0.000000000000D+00 -.838440784258D-06 0.315292177003D-08 0.000000000000D+00  7 21 2 23 -11 11 23 2 2 0.13304114D+00 0.95186770D-01 0.35199409D+06 0.35199409D+06 0.35199409D+06 0.10794534D+01  1  2  5  3  7  1       -2 -.868571279905D-04 0.100000000000D+01
  </mgrwgt>
  </event>
  <event>
  8     66 0.53686478E-06 0.28798402E+03 0.75467711E-02 0.10067298E+00
       -2 -1    0    0    0  501 0.00000000E+00 0.00000000E+00 0.11483561E+03 0.11483605E+03 0.32000000E+00 0.0000E+00 0.9000E+01
        2 -1    0    0  501    0 0.00000000E+00 0.00000000E+00 -.78088383E+03 0.78088390E+03 0.32000000E+00 0.0000E+00 0.9000E+01
       25  2    1    2    0    0 0.21036640E+03 -.21003904E+02 -.36449267E+03 0.51638069E+03 0.29849443E+03 0.0000E+00 0.0000E+00
       23  2    1    2    0    0 -.21036640E+03 0.21003904E+02 -.30155556E+03 0.37933926E+03 0.90924875E+02 0.0000E+00 0.0000E+00
       23  1    3    3    0    0 0.89177697E+02 -.12631057E+03 -.20407850E+03 0.27179093E+03 0.91188000E+02 0.0000E+00 0.9000E+01
      -11  1    4    4    0    0 -.18367527E+03 0.22732461E+02 -.19244813E+03 0.26700122E+03 0.51099893E-03 0.0000E+00 0.9000E+01
       11  1    4    4    0    0 -.26691136E+02 -.17285576E+01 -.10910743E+03 0.11233804E+03 0.51099893E-03 0.0000E+00 0.9000E+01
       23  1    3    3    0    0 0.12118871E+03 0.10530666E+03 -.16041417E+03 0.24458977E+03 0.91188000E+02 0.0000E+00 0.9000E+01
#aMCatNLO 1  0  0  1  2 0.29897670D+02 0.00000000D+00  -5  7  0 0.00000000D+00 0.00000000D+00 0.00000000D+00 0.00000000D+00 0.00000000D+00
  <mgrwgt>
 0.5795497624D-04    4    2    0
 0.299455334248924D+03 0.000000000000000D+00 0.000000000000000D+00 0.299455334248924D+03
 0.299455334248924D+03 0.000000000000000D+00 0.000000000000000D+00 -.299455334248924D+03
 0.179529997398982D+03 0.891776973714092D+02 -.126310568412949D+03 -.295757008531922D+01
 0.185300728737535D+03 -.183675266868870D+03 0.227324613641156D+02 0.910997319643210D+01
 0.466724294700723D+02 -.266911358984468D+02 -.172855756388430D+01 -.382480198943404D+02
 0.187407512891259D+03 0.121188705395908D+03 0.105306664612718D+03 0.320956167832275D+02
 0.000000000000000D+00 -.000000000000000D+00 -.000000000000000D+00 -.000000000000000D+00
 0.309174222743573D+03 0.000000000000000D+00 0.000000000000000D+00 0.309174222743573D+03
 0.323738747312487D+03 0.000000000000000D+00 0.000000000000000D+00 -.323738747312487D+03
 0.176953618998797D+03 0.940867094466183D+02 -.118896071497209D+03 -.295757008531922D+01
 0.181415877862842D+03 -.178625339839483D+03 0.303597940759655D+02 0.910997319643210D+01
 0.459230318076577D+02 -.254160359594507D+02 0.197333923059179D+00 -.382480198943404D+02
 0.195363922566464D+03 0.126459717897673D+03 0.113267921447781D+03 0.320956167832275D+02
 0.332565188202996D+02 -.165050515453576D+02 -.249289779495973D+02 -.145645245689148D+02
0.219767857397D-05 0.000000000000D+00 0.000000000000D+00 0.549731975516D-07 0.000000000000D+00  7 -2 2 23 -11 11 23 21 0 0.17667056D-01 0.12013601D+00 0.82934794D+05 0.82934794D+05 0.82934794D+05 0.11284523D+01  1  2  2  1  7  1       -2 0.238127875977D-03 0.100000000000D+01
-.121866766666D-06 0.000000000000D+00 -.843966438612D-08 0.549731975516D-07 0.000000000000D+00  7 -2 2 23 -11 11 23 21 2 0.17667056D-01 0.12013601D+00 0.82934794D+05 0.82934794D+05 0.82934794D+05 0.11284523D+01  1  2  3  1  7  1       -2 -.168150334688D-04 0.100000000000D+01
0.141425936138D-06 0.000000000000D+00 0.000000000000D+00 0.549731975516D-07 0.000000000000D+00  7 -2 2 23 -11 11 23 21 2 0.17667056D-01 0.12013601D+00 0.82934794D+05 0.82934794D+05 0.82934794D+05 0.11284523D+01  1  2 15  1  7  1       -2 0.195137847222D-04 0.100000000000D+01
-.132536024166D-05 0.000000000000D+00 0.000000000000D+00 0.549731975516D-07 0.000000000000D+00  7 -2 2 23 -11 11 23 21 2 0.17667056D-01 0.12013601D+00 0.82934794D+05 0.82934794D+05 0.82934794D+05 0.11284523D+01  1  2  4  1  7  1       -2 -.182871650995D-03 0.100000000000D+01
  </mgrwgt>
  </event>
  <event>
  8     66 0.53686478E-06 0.15470028E+03 0.75467711E-02 0.93927480E-01
       -2 -1    0    0    0  501 0.00000000E+00 0.00000000E+00 0.53518408E+03 0.53518418E+03 0.32000000E+00 0.0000E+00 0.9000E+01
        2 -1    0    0  501    0 0.00000000E+00 0.00000000E+00 -.63466216E+03 0.63466224E+03 0.32000000E+00 0.0000E+00 0.9000E+01
       25  2    1    2    0    0 0.37991146E+03 -.25902884E+03 -.33707245E+03 0.64433236E+03 0.30019611E+03 0.0000E+00 0.0000E+00
       23  2    1    2    0    0 -.37991146E+03 0.25902884E+03 0.23759437E+03 0.52551405E+03 0.91023499E+02 0.0000E+00 0.0000E+00
       23  1    3    3    0    0 0.19468322E+03 -.26546483E+03 -.19128231E+03 0.39150646E+03 0.91188000E+02 0.0000E+00 0.9000E+01
      -11  1    4    4    0    0 -.61451998E+02 0.69835358E+02 0.17545039E+02 0.94663370E+02 0.51099893E-03 0.0000E+00 0.9000E+01
       11  1    4    4    0    0 -.31845946E+03 0.18919349E+03 0.22004933E+03 0.43085068E+03 0.51099893E-03 0.0000E+00 0.9000E+01
       23  1    3    3    0    0 0.18522824E+03 0.64359906E+01 -.14579014E+03 0.25282590E+03 0.91188000E+02 0.0000E+00 0.9000E+01
#aMCatNLO 1  0  0  1  2 0.50267060D+02 0.00000000D+00  -5  7  0 0.00000000D+00 0.00000000D+00 0.00000000D+00 0.00000000D+00 0.00000000D+00
  <mgrwgt>
 0.2523723189D-03    9    2    0
 0.582804587531257D+03 0.000000000000000D+00 0.000000000000000D+00 0.582804587531257D+03
 0.582804587531257D+03 0.000000000000000D+00 0.000000000000000D+00 -.582804587531257D+03
 0.376604818920533D+03 0.194683220598962D+03 -.265464834295896D+03 -.158564824786698D+03
 0.965048601665126D+02 -.614519975892395D+02 0.698353575815334D+02 0.256877959254899D+02
 0.451196870369430D+03 -.318459461170530D+03 0.189193486093405D+03 0.257619898769425D+03
 0.241302625606039D+03 0.185228238160807D+03 0.643599062095730D+01 -.124742869908217D+03
 0.000000000000000D+00 0.000000000000000D+00 -.000000000000000D+00 0.000000000000000D+00
 0.695605557904172D+03 0.000000000000000D+00 0.000000000000000D+00 0.695605557904172D+03
 0.588973380700404D+03 0.000000000000000D+00 0.000000000000000D+00 -.588973380700404D+03
 0.364227802152817D+03 0.180513135292708D+03 -.258106266572960D+03 -.158564824786698D+03
 0.100334435120170D+03 -.652169905532293D+02 0.717905296996340D+02 0.256877959254899D+02
 0.467564604559603D+03 -.336032834838906D+03 0.198319391651794D+03 0.257619898769425D+03
 0.234565716795695D+03 0.176126188906269D+03 0.111627120491942D+02 -.124742869908217D+03
 0.117886379976291D+03 0.446105011931594D+02 -.231663668276626D+02 0.106632177203768D+03
0.250117110562D-04 0.000000000000D+00 0.000000000000D+00 0.201912529821D-05 0.000000000000D+00  7 -2 2 23 -11 11 23 21 0 0.82336026D-01 0.97640346D-01 0.25583237D+06 0.25583237D+06 0.25583237D+06 0.10897064D+01  1  2  2  1  7  1       -2 0.189032912450D-03 0.100000000000D+01
-.135561039913D-05 0.000000000000D+00 -.960515561904D-07 0.201912529821D-05 0.000000000000D+00  7 -2 2 23 -11 11 23 21 2 0.82336026D-01 0.97640346D-01 0.25583237D+06 0.25583237D+06 0.25583237D+06 0.10897064D+01  1  2  3  1  7  1       -2 -.121660039787D-04 0.100000000000D+01
0.149556433155D-05 0.000000000000D+00 0.000000000000D+00 0.201912529821D-05 0.000000000000D+00  7 -2 2 23 -11 11 23 21 2 0.82336026D-01 0.97640346D-01 0.25583237D+06 0.25583237D+06 0.25583237D+06 0.10897064D+01  1  2 15  1  7  1       -2 0.134220286446D-04 0.100000000000D+01
0.165411416451D-03 0.000000000000D+00 0.000000000000D+00 0.201912529821D-05 0.000000000000D+00  7 -2 2 23 -11 11 23 21 2 0.98652936D-01 0.97640346D-01 0.28302143D+06 0.28302143D+06 0.28302143D+06 0.10864288D+01  1  2 12  1  7  1       -2 0.964537735504D-03 0.100000000000D+01
-.166004654832D-03 0.000000000000D+00 0.000000000000D+00 0.201912529821D-05 0.000000000000D+00  7 -2 2 23 -11 11 23 21 2 0.82336026D-01 0.97640346D-01 0.25583237D+06 0.25583237D+06 0.25583237D+06 0.10897064D+01  1  2  4  1  7  1       -2 -.148981838179D-02 0.100000000000D+01
-.205173536830D-03 0.000000000000D+00 -.180675724863D-04 0.201912529821D-05 0.000000000000D+00  7 -2 2 23 -11 11 23 21 2 0.98786607D-01 0.97640346D-01 0.25583237D+06 0.25583237D+06 0.25583237D+06 0.10897064D+01  1  2  5  1  7  1       -2 -.120392727392D-02 0.100000000000D+01
0.205344184069D-03 0.000000000000D+00 0.177719218058D-04 0.201912529821D-05 0.000000000000D+00  7 -2 2 23 -11 11 23 21 2 0.82336026D-01 0.97640346D-01 0.25583237D+06 0.25583237D+06 0.25583237D+06 0.10897064D+01  1  2  6  1  7  1       -2 0.184287326357D-02 0.100000000000D+01
0.437768401070D-05 0.000000000000D+00 0.000000000000D+00 0.201912529821D-05 0.000000000000D+00  7 21 2 23 -11 11 23 2 2 0.98652936D-01 0.97640346D-01 0.28302143D+06 0.28302143D+06 0.28302143D+06 0.10864288D+01  1  2 12  3  7  1       -2 0.236108679721D-03 0.100000000000D+01
-.528480762775D-05 0.000000000000D+00 -.480961472833D-06 0.201912529821D-05 0.000000000000D+00  7 21 2 23 -11 11 23 2 2 0.98786607D-01 0.97640346D-01 0.25583237D+06 0.25583237D+06 0.25583237D+06 0.10897064D+01  1  2  5  3  7  1       -2 -.287690641341D-03 0.100000000000D+01
  </mgrwgt>
  </event>
  <event>
  8     66 0.53686478E-06 0.37557040E+03 0.75467711E-02 0.93782785E-01
       -2 -1    0    0    0  501 0.00000000E+00 0.00000000E+00 0.55515500E+02 0.55516422E+02 0.32000000E+00 0.0000E+00 0.9000E+01
        2 -1    0    0  501    0 0.00000000E+00 0.00000000E+00 -.27314415E+04 0.27314415E+04 0.32000000E+00 0.0000E+00 0.9000E+01
       25  2    1    2    0    0 -.31217818E+03 0.29237949E+01 -.18361616E+04 0.18865468E+04 0.30017578E+03 0.0000E+00 0.0000E+00
       23  2    1    2    0    0 0.31217818E+03 -.29237949E+01 -.83976437E+03 0.90041115E+03 0.89845815E+02 0.0000E+00 0.0000E+00
       23  1    3    3    0    0 -.14836316E+03 0.11704447E+03 -.77342031E+03 0.80137710E+03 0.91188000E+02 0.0000E+00 0.9000E+01
      -13  1    4    4    0    0 0.70645586E+01 -.14891011E+02 -.21931225E+02 0.27434285E+02 0.10565837E+00 0.0000E+00 0.9000E+01
       13  1    4    4    0    0 0.30511363E+03 0.11967216E+02 -.81783315E+03 0.87297687E+03 0.10565837E+00 0.0000E+00 0.9000E+01
       23  1    3    3    0    0 -.16381502E+03 -.11412067E+03 -.10627413E+04 0.10851697E+04 0.91188000E+02 0.0000E+00 0.9000E+01
#aMCatNLO 1  0  0  2  2 0.27790359D+03 0.00000000D+00  -5  7  0 0.00000000D+00 0.00000000D+00 0.00000000D+00 0.00000000D+00 0.00000000D+00
  <mgrwgt>
 0.4049509020D-03    3    2    0
 0.389408075749693D+03 0.000000000000000D+00 0.000000000000000D+00 0.389408075749693D+03
 0.389408075749693D+03 0.000000000000000D+00 0.000000000000000D+00 -.389408075749693D+03
 0.210304786633679D+03 -.148363161725817D+03 0.117044465736973D+03 -.142062387739601D+02
 0.228186703396060D+02 0.706414652343484D+01 -.148910478838242D+02 0.157811990319087D+02
 0.313924068605927D+03 0.305114037874033D+03 0.119672529691864D+02 0.728733805904012D+02
 0.231768625920173D+03 -.163815022671651D+03 -.114120670822335D+03 -.744483408483498D+02
 0.000000000000000D+00 0.000000000000000D+00 0.000000000000000D+00 0.000000000000000D+00
 0.559248227312581D+03 0.000000000000000D+00 0.000000000000000D+00 0.559248227312581D+03
 0.545889207264408D+03 0.000000000000000D+00 0.000000000000000D+00 -.545889207264408D+03
 0.254823526533929D+03 -.221988265470788D+03 0.844936157609331D+02 -.142062387739601D+02
 0.240710289002416D+02 -.358018228467219D+00 -.181725070471753D+02 0.157811990319087D+02
 0.232008595252943D+03 0.218698423351135D+03 -.262384888341214D+02 0.728733805904012D+02
 0.316009786355264D+03 -.250522800485430D+03 -.152455582745157D+03 -.744483408483498D+02
 0.278224497534611D+03 0.254170660833550D+03 0.112372962865520D+03 0.133590200481735D+02
0.151134073147D-04 0.000000000000D+00 0.000000000000D+00 0.363574091706D-06 0.000000000000D+00  7 -2 2 23 -13 13 23 21 0 0.85409185D-02 0.42022184D+00 0.14105313D+06 0.14105313D+06 0.14105313D+06 0.11096658D+01  1  2  2  2  7  2        2 0.400920580102D-03 0.100000000000D+01
-.838297286718D-06 0.000000000000D+00 -.580394635399D-07 0.363574091706D-06 0.000000000000D+00  7 -2 2 23 -13 13 23 21 2 0.85409185D-02 0.42022184D+00 0.14105313D+06 0.14105313D+06 0.14105313D+06 0.11096658D+01  1  2  3  2  7  2        2 -.273828343476D-04 0.100000000000D+01
0.961681442530D-06 0.000000000000D+00 0.000000000000D+00 0.363574091706D-06 0.000000000000D+00  7 -2 2 23 -13 13 23 21 2 0.85409185D-02 0.42022184D+00 0.14105313D+06 0.14105313D+06 0.14105313D+06 0.11096658D+01  1  2 15  2  7  2        2 0.314131562313D-04 0.100000000000D+01
  </mgrwgt>
  </event>
  <event>
  8     66 0.53686478E-06 0.96640265E+03 0.75467711E-02 0.87611783E-01
       -2 -1    0    0    0  501 0.00000000E+00 0.00000000E+00 0.37241661E+03 0.37241674E+03 0.32000000E+00 0.0000E+00 0.9000E+01
        2 -1    0    0  501    0 0.00000000E+00 0.00000000E+00 -.38365599E+04 0.38365599E+04 0.32000000E+00 0.0000E+00 0.9000E+01
       25  2    1    2    0    0 0.80116337E+03 0.50135649E+03 -.52876983E+03 0.11238090E+04 0.30021319E+03 0.0000E+00 0.0000E+00
       23  2    1    2    0    0 -.80116337E+03 -.50135649E+03 -.29353735E+04 0.30851677E+04 0.92850864E+02 0.0000E+00 0.0000E+00
       23  1    3    3    0    0 0.62895136E+03 0.28576954E+03 -.41944495E+03 0.81332242E+03 0.91188000E+02 0.0000E+00 0.9000E+01
      -13  1    4    4    0    0 -.37283825E+03 -.24681760E+03 -.12430980E+04 0.13210677E+04 0.10565837E+00 0.0000E+00 0.9000E+01
       13  1    4    4    0    0 -.42832513E+03 -.25453889E+03 -.16922755E+04 0.17641000E+04 0.10565837E+00 0.0000E+00 0.9000E+01
       23  1    3    3    0    0 0.17221201E+03 0.21558694E+03 -.10932488E+03 0.31048654E+03 0.91188000E+02 0.0000E+00 0.9000E+01
#aMCatNLO 1  0  0  1  2 0.19079730D+02 0.00000000D+00  -5  7  0 0.00000000D+00 0.00000000D+00 0.00000000D+00 0.00000000D+00 0.00000000D+00
  <mgrwgt>
 0.1287166809D-03    6    2    0
 0.119532377794047D+04 0.000000000000000D+00 0.000000000000000D+00 0.119532377794047D+04
 0.119532377794047D+04 0.000000000000000D+00 0.000000000000000D+00 -.119532377794047D+04
 0.824143935408593D+03 0.628951360489695D+03 0.285769544575504D+03 0.440061278071628D+03
 0.524574686775331D+03 -.372838175686530D+03 -.246817588285976D+03 -.274319840457942D+03
 0.653702103732097D+03 -.428325198269860D+03 -.254538900113307D+03 -.423171257625045D+03
 0.388226829964921D+03 0.172212013466695D+03 0.215586943823780D+03 0.257429820011360D+03
 0.000000000000000D+00 0.000000000000000D+00 -.000000000000000D+00 -.000000000000000D+00
 0.119637079770522D+04 0.000000000000000D+00 0.000000000000000D+00 0.119637079770522D+04
 0.128556341866787D+04 0.000000000000000D+00 0.000000000000000D+00 -.128556341866787D+04
 0.822246738654795D+03 0.624317758635532D+03 0.290427022982915D+03 0.440061278071628D+03
 0.525293590187543D+03 -.375792924927642D+03 -.243847613475251D+03 -.274319840457942D+03
 0.654693763492348D+03 -.432007547551752D+03 -.250837576001149D+03 -.423171257625045D+03
 0.388489599881202D+03 0.170026022774333D+03 0.217784198738837D+03 0.257429820011360D+03
 0.912105241572000D+02 0.134566910695295D+02 -.135260322453517D+02 -.891926209626565D+02
0.882251852447D-03 0.000000000000D+00 0.000000000000D+00 0.391436736278D-05 0.000000000000D+00  7 -2 2 23 -13 13 23 21 0 0.57294874D-01 0.59024000D+00 0.93393407D+06 0.93393407D+06 0.93393407D+06 0.10498456D+01  1  2  2  1  7  1       -2 0.135108056874D-03 0.100000000000D+01
-.463206304647D-04 0.000000000000D+00 -.338807941565D-05 0.391436736278D-05 0.000000000000D+00  7 -2 2 23 -13 13 23 21 2 0.57294874D-01 0.59024000D+00 0.93393407D+06 0.93393407D+06 0.93393407D+06 0.10498456D+01  1  2  3  1  7  1       -2 -.781833056802D-05 0.100000000000D+01
0.546870406495D-04 0.000000000000D+00 0.000000000000D+00 0.391436736278D-05 0.000000000000D+00  7 -2 2 23 -13 13 23 21 2 0.57294874D-01 0.59024000D+00 0.93393407D+06 0.93393407D+06 0.93393407D+06 0.10498456D+01  1  2 15  1  7  1       -2 0.923047370675D-05 0.100000000000D+01
-.330568874454D-04 0.000000000000D+00 0.000000000000D+00 0.391436736278D-05 0.000000000000D+00  7 -2 2 23 -13 13 23 21 2 0.57294874D-01 0.59024000D+00 0.93393407D+06 0.93393407D+06 0.93393407D+06 0.10498456D+01  1  2  4  1  7  1       -2 -.557958022170D-05 0.100000000000D+01
0.443559766046D-04 0.000000000000D+00 0.000000000000D+00 0.391436736278D-05 0.000000000000D+00  7 -2 2 23 -13 13 23 21 2 0.68356483D-01 0.59024000D+00 0.93393407D+06 0.93393407D+06 0.93393407D+06 0.10498456D+01  1  2  5  1  7  1       -2 0.514763129214D-05 0.100000000000D+01
-.436737453950D-04 0.000000000000D+00 0.000000000000D+00 0.391436736278D-05 0.000000000000D+00  7 -2 2 23 -13 13 23 21 2 0.57294874D-01 0.59024000D+00 0.93393407D+06 0.93393407D+06 0.93393407D+06 0.10498456D+01  1  2  6  1  7  1       -2 -.737157018840D-05 0.100000000000D+01
  </mgrwgt>
  </event>
  <event>
  8     66 0.53686478E-06 0.76983952E+02 0.75467711E-02 0.11062521E+00
       -2 -1    0    0    0  501 0.00000000E+00 0.00000000E+00 0.23123083E+03 0.23123105E+03 0.32000000E+00 0.0000E+00 0.9000E+01
        2 -1    0    0  501    0 0.00000000E+00 0.00000000E+00 -.16938021E+03 0.16938051E+03 0.32000000E+00 0.0000E+00 0.9000E+01
       25  2    1    2    0    0 -.18193080E+02 0.13111268E+02 0.30797912E+02 0.30344362E+03 0.30104257E+03 0.0000E+00 0.0000E+00
       23  2    1    2    0    0 0.18193080E+02 -.13111268E+02 0.31052709E+02 0.97167938E+02 0.89299742E+02 0.0000E+00 0.0000E+00
       23  1    3    3    0    0 0.30988812E+02 0.56503472E+02 -.86343561E+02 0.14115031E+03 0.91188000E+02 0.0000E+00 0.9000E+01
      -13  1    4    4    0    0 -.15464437E+01 0.18285734E+02 0.51602390E+02 0.54768397E+02 0.10565837E+00 0.0000E+00 0.9000E+01
       13  1    4    4    0    0 0.19739524E+02 -.31397002E+02 -.20549681E+02 0.42399541E+02 0.10565837E+00 0.0000E+00 0.9000E+01
       23  1    3    3    0    0 -.49181892E+02 -.43392204E+02 0.11714147E+03 0.16229331E+03 0.91188000E+02 0.0000E+00 0.9000E+01
#aMCatNLO 1  0  0  2  1 0.19481416D+02 0.00000000D+00  -5  7  0 0.00000000D+00 0.00000000D+00 0.00000000D+00 0.00000000D+00 0.00000000D+00
  <mgrwgt>
 0.2194788331D-03    9    2    0
 0.197904094318456D+03 0.000000000000000D+00 0.000000000000000D+00 0.197904094318456D+03
 0.197904094318456D+03 0.000000000000000D+00 0.000000000000000D+00 -.197904094318456D+03
 0.156363628618051D+03 0.309772165218166D+02 0.565118292087990D+02 -.109458477180343D+03
 0.473686467445643D+02 -.153344312602643D+01 0.182737467474877D+02 0.436750206227684D+02
 0.461229306330161D+02 0.197489428630479D+02 -.314011724949290D+02 -.274093114089683D+02
 0.145952982641282D+03 -.491927162588380D+02 -.433844034613577D+02 0.931927679665429D+02
 0.000000000000000D+00 0.000000000000000D+00 -.000000000000000D+00 -.000000000000000D+00
 0.207574019013744D+03 0.000000000000000D+00 0.000000000000000D+00 0.207574019013744D+03
 0.208204940437576D+03 0.000000000000000D+00 0.000000000000000D+00 -.208204940437576D+03
 0.156389584987327D+03 0.240505928354145D+02 0.598570105011411D+02 -.109458477180343D+03
 0.478850979681707D+02 -.364305164687836D+01 0.192925725531935D+02 0.436750206227684D+02
 0.446313301775430D+02 0.177389855381472D+02 -.304304727794438D+02 -.274093114089683D+02
 0.147381316662920D+03 -.556892643907410D+02 -.402469251949543D+02 0.931927679665429D+02
 0.194916296553596D+02 0.175427376640576D+02 -.847218507993655D+01 -.630921423831457D+00
0.627902425734D-06 0.000000000000D+00 0.000000000000D+00 0.817073131951D-08 0.000000000000D+00  7 -2 2 23 -13 13 23 21 0 0.35574014D-01 0.26058534D-01 0.19519220D+05 0.19519220D+05 0.19519220D+05 0.11850610D+01  1  2  2  2  7  2        2 0.112385757674D-03 0.100000000000D+01
-.297410025289D-07 0.000000000000D+00 -.241131064532D-08 0.817073131951D-08 0.000000000000D+00  7 -2 2 23 -13 13 23 21 2 0.35574014D-01 0.26058534D-01 0.19519220D+05 0.19519220D+05 0.19519220D+05 0.11850610D+01  1  2  3  2  7  2        2 -.747577387018D-05 0.100000000000D+01
0.397338141755D-07 0.000000000000D+00 0.000000000000D+00 0.817073131951D-08 0.000000000000D+00  7 -2 2 23 -13 13 23 21 2 0.35574014D-01 0.26058534D-01 0.19519220D+05 0.19519220D+05 0.19519220D+05 0.11850610D+01  1  2 15  2  7  2        2 0.998759236468D-05 0.100000000000D+01
0.124814572769D-05 0.000000000000D+00 0.000000000000D+00 0.817073131951D-08 0.000000000000D+00  7 -2 2 23 -13 13 23 21 2 0.35574014D-01 0.28020021D-01 0.22532057D+05 0.22532057D+05 0.22532057D+05 0.11790493D+01  1  2 12  2  7  2        2 0.286925481261D-03 0.100000000000D+01
-.989438572735D-06 0.000000000000D+00 0.000000000000D+00 0.817073131951D-08 0.000000000000D+00  7 -2 2 23 -13 13 23 21 2 0.35574014D-01 0.26058534D-01 0.19519220D+05 0.19519220D+05 0.19519220D+05 0.11850610D+01  1  2  4  2  7  2        2 -.248707790566D-03 0.100000000000D+01
-.412454680222D-05 0.000000000000D+00 -.953346134468D-06 0.817073131951D-08 0.000000000000D+00  7 -2 2 23 -13 13 23 21 2 0.35574014D-01 0.28680532D-01 0.19519220D+05 0.19519220D+05 0.19519220D+05 0.11850610D+01  1  2  5  2  7  2        2 -.931359881383D-03 0.100000000000D+01
0.420099004612D-05 0.000000000000D+00 0.948981423866D-06 0.817073131951D-08 0.000000000000D+00  7 -2 2 23 -13 13 23 21 2 0.35574014D-01 0.26058534D-01 0.19519220D+05 0.19519220D+05 0.19519220D+05 0.11850610D+01  1  2  6  2  7  2        2 0.105597151895D-02 0.100000000000D+01
0.153496578264D-07 0.000000000000D+00 0.000000000000D+00 0.817073131951D-08 0.000000000000D+00  7 -2 21 23 -13 13 23 -2 2 0.35574014D-01 0.28020021D-01 0.22532057D+05 0.22532057D+05 0.22532057D+05 0.11790493D+01  1  2 12  4  7  2        2 0.201533371360D-04 0.100000000000D+01
-.616844090807D-07 0.000000000000D+00 -.149293816659D-07 0.817073131951D-08 0.000000000000D+00  7 -2 21 23 -13 13 23 -2 2 0.35574014D-01 0.28680532D-01 0.19519220D+05 0.19519220D+05 0.19519220D+05 0.11850610D+01  1  2  5  4  7  2        2 -.784014084684D-04 0.100000000000D+01
  </mgrwgt>
  </event>
  <event>
  8     66 0.53686478E-06 0.31059451E+03 0.75467711E-02 0.99210176E-01
       -2 -1    0    0    0  501 0.00000000E+00 0.00000000E+00 0.11163297E+03 0.11163343E+03 0.32000000E+00 0.0000E+00 0.9000E+01
        2 -1    0    0  501    0 0.00000000E+00 0.00000000E+00 -.11336144E+04 0.11336144E+04 0.32000000E+00 0.0000E+00 0.9000E+01
       25  2    1    2    0    0 -.28776099E+02 0.23774556E+03 -.32623933E+03 0.50373067E+03 0.29993578E+03 0.0000E+00 0.0000E+00
       23  2    1    2    0    0 0.28776099E+02 -.23774556E+03 -.69574207E+03 0.74151719E+03 0.91867816E+02 0.0000E+00 0.0000E+00
       23  1    3    3    0    0 0.42280580E+02 0.20298162E+00 -.26018075E+02 0.10382620E+03 0.91188000E+02 0.0000E+00 0.9000E+01
      -11  1    4    4    0    0 0.28690954E+02 -.12575177E+02 -.84366818E+02 0.89994811E+02 0.51099893E-03 0.0000E+00 0.9000E+01
       11  1    4    4    0    0 0.85144918E-01 -.22517038E+03 -.61137526E+03 0.65152238E+03 0.51099893E-03 0.0000E+00 0.9000E+01
       23  1    3    3    0    0 -.71056679E+02 0.23754258E+03 -.30022126E+03 0.39990447E+03 0.91188000E+02 0.0000E+00 0.9000E+01
#aMCatNLO 1  0  0  2  1 0.55189418D+02 0.00000000D+00  -5  7  0 0.00000000D+00 0.00000000D+00 0.00000000D+00 0.00000000D+00 0.00000000D+00
  <mgrwgt>
 0.2980195893D-03    4    2    0
 0.355737344428832D+03 0.000000000000000D+00 0.000000000000000D+00 0.355737344428832D+03
 0.355737344428832D+03 0.000000000000000D+00 0.000000000000000D+00 -.355737344428832D+03
 0.144347182095335D+03 0.422805797773917D+02 0.202981617545177D+00 0.103601008716201D+03
 0.363252920128047D+02 0.286909543639916D+02 -.125751774932522D+02 -.183907827052599D+02
 0.262121346757519D+03 0.851449186477140D-01 -.225170380641944D+03 -.134186038237516D+03
 0.268680867992005D+03 -.710566790600310D+02 0.237542576517651D+03 0.489758122265757D+02
 0.000000000000000D+00 -.000000000000000D+00 -.000000000000000D+00 0.000000000000000D+00
 0.441415167315446D+03 0.000000000000000D+00 0.000000000000000D+00 0.441415167315446D+03
 0.365805835221536D+03 0.000000000000000D+00 0.000000000000000D+00 -.365805835221536D+03
 0.148054777166046D+03 0.535810734895294D+02 0.930190508989926D+00 0.103601008716201D+03
 0.385927491310319D+02 0.315863209169729D+02 -.123888549877975D+02 -.183907827052599D+02
 0.261793682449366D+03 0.203329521091407D+02 -.223867394613522D+03 -.134186038237516D+03
 0.265170804011766D+03 -.504248492394242D+02 0.238870275154057D+03 0.489758122265757D+02
 0.936089897787722D+02 -.550754972762188D+02 -.354421606172735D+01 0.756093320939108D+02
0.523602458828D-05 0.000000000000D+00 0.000000000000D+00 0.646487092771D-06 0.000000000000D+00  7 -2 2 23 -11 11 23 21 0 0.17174342D-01 0.17440225D+00 0.96468952D+05 0.96468952D+05 0.96468952D+05 0.11230055D+01  1  2  2  2  7  2        2 0.357240495589D-03 0.100000000000D+01
-.284376991519D-06 0.000000000000D+00 -.201077130959D-07 0.646487092771D-06 0.000000000000D+00  7 -2 2 23 -11 11 23 21 2 0.17174342D-01 0.17440225D+00 0.96468952D+05 0.96468952D+05 0.96468952D+05 0.11230055D+01  1  2  3  2  7  2        2 -.244690558905D-04 0.100000000000D+01
0.341973623465D-06 0.000000000000D+00 0.000000000000D+00 0.646487092771D-06 0.000000000000D+00  7 -2 2 23 -11 11 23 21 2 0.17174342D-01 0.17440225D+00 0.96468952D+05 0.96468952D+05 0.96468952D+05 0.11230055D+01  1  2 15  2  7  2        2 0.294249252056D-04 0.100000000000D+01
-.745856254437D-06 0.000000000000D+00 0.000000000000D+00 0.646487092771D-06 0.000000000000D+00  7 -2 2 23 -11 11 23 21 2 0.17174342D-01 0.17440225D+00 0.96468952D+05 0.96468952D+05 0.96468952D+05 0.11230055D+01  1  2  4  2  7  2        2 -.641767756196D-04 0.100000000000D+01
  </mgrwgt>
  </event>
  <event>
  8     66 0.53686478E-06 0.11316899E+04 0.75467711E-02 0.85112590E-01
       -2 -1    0    0    0  501 0.00000000E+00 0.00000000E+00 0.10775575E+04 0.10775576E+04 0.32000000E+00 0.0000E+00 0.9000E+01
        2 -1    0    0  501    0 0.00000000E+00 0.00000000E+00 -.15480761E+04 0.15480761E+04 0.32000000E+00 0.0000E+00 0.9000E+01
       25  2    1    2    0    0 0.44508415E+03 -.10234730E+04 -.85762883E+03 0.14406674E+04 0.30724361E+03 0.0000E+00 0.0000E+00
       23  2    1    2    0    0 -.44508415E+03 0.10234730E+04 0.38711024E+03 0.11849663E+04 0.93241103E+02 0.0000E+00 0.0000E+00
       23  1    3    3    0    0 0.33306290E+03 -.85314865E+03 -.59517761E+03 0.10960589E+04 0.91188000E+02 0.0000E+00 0.9000E+01
      -11  1    4    4    0    0 -.77224173E+02 0.10558880E+03 0.53849046E+02 0.14146479E+03 0.51099893E-03 0.0000E+00 0.9000E+01
       11  1    4    4    0    0 -.36785998E+03 0.91788416E+03 0.33326120E+03 0.10435015E+04 0.51099893E-03 0.0000E+00 0.9000E+01
       23  1    3    3    0    0 0.11202125E+03 -.17032430E+03 -.26245122E+03 0.34460851E+03 0.91188000E+02 0.0000E+00 0.9000E+01
#aMCatNLO 1  0  0  2  1 0.26646168D+03 0.00000000D+00  -5  7  0 0.00000000D+00 0.00000000D+00 0.00000000D+00 0.00000000D+00 0.00000000D+00
  <mgrwgt>
 0.2890852832D-03    4    2    0
 0.129156537682832D+04 0.000000000000000D+00 0.000000000000000D+00 0.129156537682832D+04
 0.129156537682832D+04 0.000000000000000D+00 0.000000000000000D+00 -.129156537682832D+04
 0.100568160721634D+04 0.333062900664753D+03 -.853148651040832D+03 -.405322991177703D+03
 0.153601087939506D+03 -.772241728220458D+02 0.105588797489588D+03 0.805029638762053D+02
 0.112137497549417D+04 -.367859975825256D+03 0.917884156410875D+03 0.528819013709120D+03
 0.302473083006611D+03 0.112021247982549D+03 -.170324302859631D+03 -.203998986407622D+03
 0.000000000000000D+00 -.000000000000000D+00 -.000000000000000D+00 0.000000000000000D+00
 0.154494244043046D+04 0.000000000000000D+00 0.000000000000000D+00 0.154494244043046D+04
 0.137042196189819D+04 0.000000000000000D+00 0.000000000000000D+00 -.137042196189819D+04
 0.104504901649699D+04 0.438553385364535D+03 -.852758111392317D+03 -.405322991177703D+03
 0.146490502547459D+03 -.617873294996028D+02 0.105645946713828D+03 0.805029638762053D+02
 0.108972974618348D+04 -.254119777032400D+03 0.918305237585968D+03 0.528819013709120D+03
 0.315568488455692D+03 0.143813578083963D+03 -.170206603472254D+03 -.203998986407622D+03
 0.318526648645037D+03 -.266459856916495D+03 -.986469435226235D+00 0.174520478532271D+03
0.130236265326D-02 0.000000000000D+00 0.000000000000D+00 0.172108447111D-07 0.000000000000D+00  7 -2 2 23 -11 11 23 21 0 0.16577808D+00 0.23816556D+00 0.12807221D+07 0.12807221D+07 0.12807221D+07 0.10407851D+01  1  2  2  2  7  2        2 0.401037656253D-03 0.100000000000D+01
-.708173481844D-04 0.000000000000D+00 -.500141550848D-05 0.172108447111D-07 0.000000000000D+00  7 -2 2 23 -11 11 23 21 2 0.16577808D+00 0.23816556D+00 0.12807221D+07 0.12807221D+07 0.12807221D+07 0.10407851D+01  1  2  3  2  7  2        2 -.236219087837D-04 0.100000000000D+01
0.804725518643D-04 0.000000000000D+00 0.000000000000D+00 0.172108447111D-07 0.000000000000D+00  7 -2 2 23 -11 11 23 21 2 0.16577808D+00 0.23816556D+00 0.12807221D+07 0.12807221D+07 0.12807221D+07 0.10407851D+01  1  2 15  2  7  2        2 0.268425086291D-04 0.100000000000D+01
-.345283042085D-03 0.000000000000D+00 0.000000000000D+00 0.172108447111D-07 0.000000000000D+00  7 -2 2 23 -11 11 23 21 2 0.16577808D+00 0.23816556D+00 0.12807221D+07 0.12807221D+07 0.12807221D+07 0.10407851D+01  1  2  4  2  7  2        2 -.115172972920D-03 0.100000000000D+01
  </mgrwgt>
  </event>
  <event>
  8     66 0.53686478E-06 0.30489663E+03 0.75467711E-02 0.90953437E-01
       -2 -1    0    0    0  501 0.00000000E+00 0.00000000E+00 0.47961388E+02 0.47962456E+02 0.32000000E+00 0.0000E+00 0.9000E+01
        2 -1    0    0  501    0 0.00000000E+00 0.00000000E+00 -.21107438E+04 0.21107438E+04 0.32000000E+00 0.0000E+00 0.9000E+01
       25  2    1    2    0    0 -.22410154E+03 0.62439216E+02 -.13959383E+04 0.14464757E+04 0.29921266E+03 0.0000E+00 0.0000E+00
       23  2    1    2    0    0 0.22410154E+03 -.62439216E+02 -.66684413E+03 0.71223054E+03 0.92038541E+02 0.0000E+00 0.0000E+00
       23  1    3    3    0    0 0.33646342E+02 0.10010526E+02 -.44648809E+03 0.45705487E+03 0.91188000E+02 0.0000E+00 0.9000E+01
      -13  1    4    4    0    0 0.13103064E+03 -.25086720E+02 -.50066927E+03 0.51813908E+03 0.10565837E+00 0.0000E+00 0.9000E+01
       13  1    4    4    0    0 0.93070902E+02 -.37352497E+02 -.16617486E+03 0.19409146E+03 0.10565837E+00 0.0000E+00 0.9000E+01
       23  1    3    3    0    0 -.25774788E+03 0.52428690E+02 -.94945017E+03 0.98942085E+03 0.91188000E+02 0.0000E+00 0.9000E+01
#aMCatNLO 1  0  0  2  1 0.56863467D+03 0.00000000D+00  -5  7  0 0.00000000D+00 0.00000000D+00 0.00000000D+00 0.00000000D+00 0.00000000D+00
  <mgrwgt>
 0.3565933121D-03    3    2    0
 0.318175078450548D+03 0.000000000000000D+00 0.000000000000000D+00 0.318175078450548D+03
 0.318175078450548D+03 0.000000000000000D+00 0.000000000000000D+00 -.318175078450548D+03
 0.103149869458294D+03 0.336463414707100D+02 0.100105264731589D+02 -.330508288947447D+02
 0.134734505534241D+03 0.131030690330387D+03 -.250867035772801D+02 -.188415094067461D+02
 0.119751482883117D+03 0.930708527469954D+02 -.373525127860304D+02 0.654448149987611D+02
 0.278714299025444D+03 -.257747884548092D+03 0.524286898901515D+02 -.135524766972703D+02
 0.000000000000000D+00 -.000000000000000D+00 -.000000000000000D+00 0.000000000000000D+00
 0.122951552044656D+04 0.000000000000000D+00 0.000000000000000D+00 0.122951552044656D+04
 0.527389530608196D+03 0.000000000000000D+00 0.000000000000000D+00 -.527389530608196D+03
 0.151715180984944D+03 0.483363767097487D+02 0.106176655594523D+03 -.330508288947447D+02
 0.176210617156215D+03 0.148953095939889D+03 0.922396570449598D+02 -.188415094067461D+02
 0.140160112171315D+03 0.108051763168978D+03 0.607177874245150D+02 0.654448149987611D+02
 0.385311367247577D+03 -.219474451528490D+03 0.302980022258622D+03 -.135524766972703D+02
 0.903507773494703D+03 -.858667842901262D+02 -.562114122322620D+03 0.702125989838361D+03
0.468676801093D-05 0.000000000000D+00 0.000000000000D+00 0.119151487913D-06 0.000000000000D+00  7 -2 2 23 -13 13 23 21 0 0.73787591D-02 0.32472990D+00 0.92961955D+05 0.92961955D+05 0.92961955D+05 0.11243323D+01  1  2  2  2  7  2        2 0.352426403684D-03 0.100000000000D+01
-.259800702992D-06 0.000000000000D+00 -.179984232163D-07 0.119151487913D-06 0.000000000000D+00  7 -2 2 23 -13 13 23 21 2 0.73787591D-02 0.32472990D+00 0.92961955D+05 0.92961955D+05 0.92961955D+05 0.11243323D+01  1  2  3  2  7  2        2 -.246958888830D-04 0.100000000000D+01
0.303636570958D-06 0.000000000000D+00 0.000000000000D+00 0.119151487913D-06 0.000000000000D+00  7 -2 2 23 -13 13 23 21 2 0.73787591D-02 0.32472990D+00 0.92961955D+05 0.92961955D+05 0.92961955D+05 0.11243323D+01  1  2 15  2  7  2        2 0.288627972551D-04 0.100000000000D+01
  </mgrwgt>
  </event>
  <event>
  8     66 0.53686478E-06 0.23514918E+03 0.75467711E-02 0.87370342E-01
       -2 -1    0    0    0  501 0.00000000E+00 0.00000000E+00 0.18197875E+03 0.18197903E+03 0.32000000E+00 0.0000E+00 0.9000E+01
        2 -1    0    0  501    0 0.00000000E+00 0.00000000E+00 -.84997638E+03 0.84997644E+03 0.32000000E+00 0.0000E+00 0.9000E+01
       25  2    1    2    0    0 -.13353784E+03 -.17051887E+02 0.15128348E+02 0.32954823E+03 0.30041645E+03 0.0000E+00 0.0000E+00
       23  2    1    2    0    0 0.13353784E+03 0.17051887E+02 -.68312598E+03 0.70240725E+03 0.92691518E+02 0.0000E+00 0.0000E+00
       23  1    3    3    0    0 0.25018185E+02 0.76614904E+02 0.23206138E+02 0.12389322E+03 0.91188000E+02 0.0000E+00 0.9000E+01
      -11  1    4    4    0    0 0.11574204E+03 0.31753216E+02 -.38229160E+03 0.40068860E+03 0.51099893E-03 0.0000E+00 0.9000E+01
       11  1    4    4    0    0 0.17795802E+02 -.14701329E+02 -.30083438E+03 0.30171865E+03 0.51099893E-03 0.0000E+00 0.9000E+01
       23  1    3    3    0    0 -.15855603E+03 -.93666791E+02 -.80777901E+01 0.20565501E+03 0.91188000E+02 0.0000E+00 0.9000E+01
#aMCatNLO 1  0  0  1  1 0.97229753D+03 0.00000000D+00  -5  7  0 0.00000000D+00 0.00000000D+00 0.00000000D+00 0.00000000D+00 0.00000000D+00
  <mgrwgt>
 0.2558351916D-03    5    2    0
 0.393291007167979D+03 0.000000000000000D+00 0.000000000000000D+00 0.393291007167979D+03
 0.393291007167979D+03 0.000000000000000D+00 0.000000000000000D+00 -.393291007167979D+03
 0.182249182214921D+03 0.250181852775153D+02 0.766149036573994D+02 0.135660458561051D+03
 0.201025332382963D+03 0.115742038169171D+03 0.317532155456827D+02 -.161265923749057D+03
 0.140358609740278D+03 0.177958019335751D+02 -.147013286698522D+02 -.138447534095431D+03
 0.262948889997796D+03 -.158556025380261D+03 -.936667905332299D+02 0.164052999283436D+03
 0.000000000000000D+00 0.000000000000000D+00 0.000000000000000D+00 0.000000000000000D+00
 0.215356457158876D+04 0.000000000000000D+00 0.000000000000000D+00 0.215356457158876D+04
 0.779962558278524D+03 0.000000000000000D+00 0.000000000000000D+00 -.779962558278524D+03
 0.210192320897205D+03 -.128546759738070D+03 -.306191274206454D+02 0.135660458561051D+03
 0.179848646990151D+03 -.332964586169050D+02 -.723200076405149D+02 -.161265923749057D+03
 0.215532456312127D+03 -.121466716318121D+03 -.111948009601452D+03 -.138447534095431D+03
 0.645055915694541D+03 -.513864286495018D+03 -.341777693127563D+03 0.164052999283436D+03
 0.168289778997326D+04 0.797174221168113D+03 0.556664837790175D+03 0.137360201331024D+04
0.534974339168D-05 0.000000000000D+00 0.000000000000D+00 0.258204673022D-06 0.000000000000D+00  7 -2 2 23 -11 11 23 21 0 0.27996757D-01 0.13076562D+00 0.55295135D+05 0.55295135D+05 0.55295135D+05 0.11434698D+01  1  2  2  1  7  1       -2 0.242142660144D-03 0.100000000000D+01
-.201615170345D-06 0.000000000000D+00 -.205444232439D-07 0.258204673022D-06 0.000000000000D+00  7 -2 2 23 -11 11 23 21 2 0.27996757D-01 0.13076562D+00 0.55295135D+05 0.55295135D+05 0.55295135D+05 0.11434698D+01  1  2  3  1  7  1       -2 -.119319374897D-04 0.100000000000D+01
0.319096402398D-06 0.000000000000D+00 0.000000000000D+00 0.258204673022D-06 0.000000000000D+00  7 -2 2 23 -11 11 23 21 2 0.27996757D-01 0.13076562D+00 0.55295135D+05 0.55295135D+05 0.55295135D+05 0.11434698D+01  1  2 15  1  7  1       -2 0.188846817433D-04 0.100000000000D+01
0.726212433276D-05 0.000000000000D+00 -.338233781628D-05 0.258204673022D-06 0.000000000000D+00  7 -2 2 23 -11 11 23 21 2 0.24731994D+00 0.13076562D+00 0.55295135D+05 0.55295135D+05 0.55295135D+05 0.11434698D+01  1  2  5  1  7  1       -2 0.260687943901D-05 0.100000000000D+01
0.143951489038D-05 0.000000000000D+00 -.887593832751D-06 0.258204673022D-06 0.000000000000D+00  7 21 2 23 -11 11 23 2 2 0.24731994D+00 0.13076562D+00 0.55295135D+05 0.55295135D+05 0.55295135D+05 0.11434698D+01  1  2  5  3  7  1       -2 0.413290775682D-05 0.100000000000D+01
  </mgrwgt>
  </event>
  <event>
  8     66 0.53686478E-06 0.94386645E+02 0.75467711E-02 0.10631274E+00
       -2 -1    0    0    0  501 0.00000000E+00 0.00000000E+00 0.16401454E+02 0.16404575E+02 0.32000000E+00 0.0000E+00 0.9000E+01
        2 -1    0    0  501    0 0.00000000E+00 0.00000000E+00 -.34544022E+04 0.34544022E+04 0.32000000E+00 0.0000E+00 0.9000E+01
       25  2    1    2    0    0 -.10023697E+03 0.10148433E+02 -.18356769E+04 0.18628351E+04 0.30049091E+03 0.0000E+00 0.0000E+00
       23  2    1    2    0    0 0.10023697E+03 -.10148433E+02 -.16023239E+04 0.16079717E+04 0.89333911E+02 0.0000E+00 0.0000E+00
       23  1    3    3    0    0 -.94433717E+02 -.73238451E+02 -.14508083E+04 0.14585752E+04 0.91188000E+02 0.0000E+00 0.9000E+01
      -11  1    4    4    0    0 0.26217539E+02 -.45111650E+01 -.10872967E+04 0.10876221E+04 0.51099893E-03 0.0000E+00 0.9000E+01
       11  1    4    4    0    0 0.74019431E+02 -.56372679E+01 -.51502719E+03 0.52034955E+03 0.51099893E-03 0.0000E+00 0.9000E+01
       23  1    3    3    0    0 -.58032524E+01 0.83386884E+02 -.38486852E+03 0.40425992E+03 0.91188000E+02 0.0000E+00 0.9000E+01
#aMCatNLO 1  0  0  1  2 0.23580063D+02 0.00000000D+00  -5  7  0 0.00000000D+00 0.00000000D+00 0.00000000D+00 0.00000000D+00 0.00000000D+00
  <mgrwgt>
 0.3240039939D-03    9    2    0
 0.238039200413623D+03 0.000000000000000D+00 0.000000000000000D+00 0.238039200413623D+03
 0.238039200413623D+03 0.000000000000000D+00 0.000000000000000D+00 -.238039200413623D+03
 0.156597402674128D+03 -.944337174447948D+02 -.732384510765908D+02 -.438850484076479D+02
 0.772967020776170D+02 0.262175386301107D+02 -.451116498969492D+01 -.725745837789669D+02
 0.742922005261624D+02 0.740194312109041D+02 -.563726789363847D+01 0.294551742977820D+01
 0.167892095549339D+03 -.580325239622002D+01 0.833868839599242D+02 0.113514114756837D+03
 0.000000000000000D+00 -.000000000000000D+00 0.000000000000000D+00 0.000000000000000D+00
 0.355139765966193D+03 0.000000000000000D+00 0.000000000000000D+00 0.355139765966193D+03
 0.239521021039136D+03 0.000000000000000D+00 0.000000000000000D+00 -.239521021039136D+03
 0.154825850976247D+03 -.879571864191628D+02 -.774172375508334D+02 -.438850484076479D+02
 0.786037325033141D+02 0.294597306939264D+02 -.660309171552230D+01 -.725745837789669D+02
 0.776152353712995D+02 0.771785826553837D+02 -.767561516226552D+01 0.294551742977820D+01
 0.165617182029010D+03 0.113259185514482D+01 0.789117394681662D+02 0.113514114756837D+03
 0.117998786125458D+03 -.198137187852922D+02 0.127842049604550D+02 0.115618744927057D+03
0.526183009204D-05 0.000000000000D+00 0.000000000000D+00 0.349468139440D-07 0.000000000000D+00  7 -2 2 23 -11 11 23 21 0 0.25235418D-02 0.53144674D+00 0.35130297D+05 0.35130297D+05 0.35130297D+05 0.11610277D+01  1  2  2  1  7  1       -2 0.311802318008D-03 0.100000000000D+01
-.272017385841D-06 0.000000000000D+00 -.202068130251D-07 0.349468139440D-07 0.000000000000D+00  7 -2 2 23 -11 11 23 21 2 0.25235418D-02 0.53144674D+00 0.35130297D+05 0.35130297D+05 0.35130297D+05 0.11610277D+01  1  2  3  1  7  1       -2 -.217282299121D-04 0.100000000000D+01
0.338992121791D-06 0.000000000000D+00 0.000000000000D+00 0.349468139440D-07 0.000000000000D+00  7 -2 2 23 -11 11 23 21 2 0.25235418D-02 0.53144674D+00 0.35130297D+05 0.35130297D+05 0.35130297D+05 0.11610277D+01  1  2 15  1  7  1       -2 0.270780440665D-04 0.100000000000D+01
0.737127599927D-04 0.000000000000D+00 0.000000000000D+00 0.349468139440D-07 0.000000000000D+00  7 -2 2 23 -11 11 23 21 2 0.37697463D-02 0.53144674D+00 0.40080635D+05 0.40080635D+05 0.40080635D+05 0.11558397D+01  1  2 12  1  7  1       -2 0.323011592829D-02 0.100000000000D+01
-.687705632027D-04 0.000000000000D+00 0.000000000000D+00 0.349468139440D-07 0.000000000000D+00  7 -2 2 23 -11 11 23 21 2 0.25235418D-02 0.53144674D+00 0.35130297D+05 0.35130297D+05 0.35130297D+05 0.11610277D+01  1  2  4  1  7  1       -2 -.549326140986D-02 0.100000000000D+01
-.747623020298D-04 0.000000000000D+00 -.219047654364D-05 0.349468139440D-07 0.000000000000D+00  7 -2 2 23 -11 11 23 21 2 0.37949523D-02 0.53144674D+00 0.35130297D+05 0.35130297D+05 0.35130297D+05 0.11610277D+01  1  2  5  1  7  1       -2 -.328908874300D-02 0.100000000000D+01
0.699250793354D-04 0.000000000000D+00 0.201999583854D-05 0.349468139440D-07 0.000000000000D+00  7 -2 2 23 -11 11 23 21 2 0.25235418D-02 0.53144674D+00 0.35130297D+05 0.35130297D+05 0.35130297D+05 0.11610277D+01  1  2  6  1  7  1       -2 0.558548195631D-02 0.100000000000D+01
0.351736490167D-05 0.000000000000D+00 0.000000000000D+00 0.349468139440D-07 0.000000000000D+00  7 21 2 23 -11 11 23 2 2 0.37697463D-02 0.53144674D+00 0.40080635D+05 0.40080635D+05 0.40080635D+05 0.11558397D+01  1  2 12  3  7  1       -2 0.265065011938D-02 0.100000000000D+01
-.353414507508D-05 0.000000000000D+00 -.105797546964D-06 0.349468139440D-07 0.000000000000D+00  7 21 2 23 -11 11 23 2 2 0.37949523D-02 0.53144674D+00 0.35130297D+05 0.35130297D+05 0.35130297D+05 0.11610277D+01  1  2  5  3  7  1       -2 -.267704598942D-02 0.100000000000D+01
  </mgrwgt>
  </event>
  <event>
  8     66 0.53686478E-06 0.31374743E+03 0.75467711E-02 0.94267009E-01
       -2 -1    0    0    0  501 0.00000000E+00 0.00000000E+00 0.24936811E+03 0.24936831E+03 0.32000000E+00 0.0000E+00 0.9000E+01
        2 -1    0    0  501    0 0.00000000E+00 0.00000000E+00 -.58733496E+03 0.58733504E+03 0.32000000E+00 0.0000E+00 0.9000E+01
       25  2    1    2    0    0 -.22823016E+03 0.10715902E+03 0.17599526E+02 0.39213537E+03 0.29981385E+03 0.0000E+00 0.0000E+00
       23  2    1    2    0    0 0.22823016E+03 -.10715902E+03 -.35556638E+03 0.44456799E+03 0.87413894E+02 0.0000E+00 0.0000E+00
       23  1    3    3    0    0 0.20409090E+02 0.17560516E+02 -.45680660E+02 0.10548401E+03 0.91188000E+02 0.0000E+00 0.9000E+01
      -11  1    4    4    0    0 0.11423182E+03 -.43249361E+02 -.10131875E+03 0.15869753E+03 0.51099893E-03 0.0000E+00 0.9000E+01
       11  1    4    4    0    0 0.11399833E+03 -.63909660E+02 -.25424762E+03 0.28587046E+03 0.51099893E-03 0.0000E+00 0.9000E+01
       23  1    3    3    0    0 -.24863925E+03 0.89598505E+02 0.63280186E+02 0.28665136E+03 0.91188000E+02 0.0000E+00 0.9000E+01
#aMCatNLO 1  0  0  1  1 0.33358934D+03 0.00000000D+00  -5  7  0 0.00000000D+00 0.00000000D+00 0.00000000D+00 0.00000000D+00 0.00000000D+00
  <mgrwgt>
 0.2102689113D-03    5    2    0
 0.382704492667452D+03 0.000000000000000D+00 0.000000000000000D+00 0.382704492667452D+03
 0.382704492667452D+03 0.000000000000000D+00 0.000000000000000D+00 -.382704492667452D+03
 0.951390422978597D+02 0.204090895391871D+02 0.175605164693376D+02 -.335906994055161D+01
 0.128742123595463D+03 0.114231824685556D+03 -.432493611444048D+02 -.406831338207685D+02
 0.200234783045685D+03 0.113998331131466D+03 -.639096600631236D+02 -.151703342716003D+03
 0.341293036395897D+03 -.248639245356209D+03 0.895985047381909D+02 0.195745546477323D+03
 0.000000000000000D+00 -.000000000000000D+00 0.000000000000000D+00 0.000000000000000D+00
 0.775195557383395D+03 0.000000000000000D+00 0.000000000000000D+00 0.775195557383395D+03
 0.495243308149371D+03 0.000000000000000D+00 0.000000000000000D+00 -.495243308149371D+03
 0.105221626126683D+03 0.513267497266961D+02 -.105176362539770D+02 -.335906994055161D+01
 0.189966070345442D+03 0.163411694750477D+03 -.879125049340985D+02 -.406831338207685D+02
 0.273931971217259D+03 0.187167015862806D+03 -.130358462850620D+03 -.151703342716003D+03
 0.265825098876278D+03 -.154954829409631D+03 0.451815510017778D+01 0.195745546477323D+03
 0.435494098967104D+03 -.246950630930347D+03 0.224270448938517D+03 0.279952249234024D+03
0.543969078933D-05 0.000000000000D+00 0.000000000000D+00 0.925242406351D-07 0.000000000000D+00  7 -2 2 23 -11 11 23 21 0 0.38364347D-01 0.90359247D-01 0.98437452D+05 0.98437452D+05 0.98437452D+05 0.11222837D+01  1  2  2  1  7  1       -2 0.217685707999D-03 0.100000000000D+01
-.287701675905D-06 0.000000000000D+00 -.208898449345D-07 0.925242406351D-07 0.000000000000D+00  7 -2 2 23 -11 11 23 21 2 0.38364347D-01 0.90359247D-01 0.98437452D+05 0.98437452D+05 0.98437452D+05 0.11222837D+01  1  2  3  1  7  1       -2 -.145011832967D-04 0.100000000000D+01
0.329639009211D-06 0.000000000000D+00 0.000000000000D+00 0.925242406351D-07 0.000000000000D+00  7 -2 2 23 -11 11 23 21 2 0.38364347D-01 0.90359247D-01 0.98437452D+05 0.98437452D+05 0.98437452D+05 0.11222837D+01  1  2 15  1  7  1       -2 0.166149734071D-04 0.100000000000D+01
-.112878899052D-05 0.000000000000D+00 -.162944978753D-05 0.925242406351D-07 0.000000000000D+00  7 -2 2 23 -11 11 23 21 2 0.95273603D-01 0.90359247D-01 0.98437452D+05 0.98437452D+05 0.98437452D+05 0.11222837D+01  1  2  5  1  7  1       -2 -.865451552972D-05 0.100000000000D+01
-.118598518070D-07 0.000000000000D+00 -.162982841679D-06 0.925242406351D-07 0.000000000000D+00  7 21 2 23 -11 11 23 2 2 0.95273603D-01 0.90359247D-01 0.98437452D+05 0.98437452D+05 0.98437452D+05 0.11222837D+01  1  2  5  3  7  1       -2 -.876071286010D-06 0.100000000000D+01
  </mgrwgt>
  </event>
  <event>
  8     66 0.53686478E-06 0.18051049E+03 0.75467711E-02 0.93424833E-01
       -2 -1    0    0    0  501 0.00000000E+00 0.00000000E+00 0.10306501E+03 0.10306550E+03 0.32000000E+00 0.0000E+00 0.9000E+01
        2 -1    0    0  501    0 0.00000000E+00 0.00000000E+00 -.70517961E+03 0.70517968E+03 0.32000000E+00 0.0000E+00 0.9000E+01
       25  2    1    2    0    0 -.11629059E+03 -.31472794E+02 -.20377813E+03 0.38182270E+03 0.29958139E+03 0.0000E+00 0.0000E+00
       23  2    1    2    0    0 0.11629059E+03 0.31472794E+02 -.39833647E+03 0.42642248E+03 0.93006185E+02 0.0000E+00 0.0000E+00
       23  1    3    3    0    0 -.16117592E+02 -.12097688E+02 -.22475409E+03 0.24338403E+03 0.91188000E+02 0.0000E+00 0.9000E+01
      -11  1    4    4    0    0 0.65464660E+02 0.43453108E+02 -.12142177E+03 0.14462725E+03 0.51099893E-03 0.0000E+00 0.9000E+01
       11  1    4    4    0    0 0.50825933E+02 -.11980314E+02 -.27691470E+03 0.28179523E+03 0.51099893E-03 0.0000E+00 0.9000E+01
       23  1    3    3    0    0 -.10017300E+03 -.19375107E+02 0.20975961E+02 0.13843868E+03 0.91188000E+02 0.0000E+00 0.9000E+01
#aMCatNLO 1  0  0  1  1 0.49944673D+03 0.00000000D+00  -5  7  0 0.00000000D+00 0.00000000D+00 0.00000000D+00 0.00000000D+00 0.00000000D+00
  <mgrwgt>
 0.2090831760D-03    5    2    0
 0.269591488869688D+03 0.000000000000000D+00 0.000000000000000D+00 0.269591488869688D+03
 0.269591488869688D+03 0.000000000000000D+00 0.000000000000000D+00 -.269591488869688D+03
 0.113850489847178D+03 -.161175919806859D+02 -.120976877030787D+02 -.651195199262496D+02
 0.812051881649233D+02 0.654646599823345D+02 0.434531078092677D+02 -.205058113717573D+02
 0.113180977898395D+03 0.508259330052603D+02 -.119803135985491D+02 -.100414791630826D+03
 0.230946321828879D+03 -.100173001006909D+03 -.193751065076399D+02 0.186040122928833D+03
 0.000000000000000D+00 -.000000000000000D+00 0.000000000000000D+00 0.000000000000000D+00
 0.212220769408530D+04 0.000000000000000D+00 0.000000000000000D+00 0.212220769408530D+04
 0.403018975785783D+03 0.000000000000000D+00 0.000000000000000D+00 -.403018975785783D+03
 0.152847115305195D+03 0.566339849588683D+02 -.871724106892364D+02 -.651195199262496D+02
 0.123985325597443D+03 0.121437916437790D+03 -.143075195173102D+02 -.205058113717573D+02
 0.195009691757357D+03 0.134896268780128D+03 -.987352326691758D+02 -.100414791630826D+03
 0.263117269771246D+03 0.346010078440260D+02 -.158452798096711D+03 0.186040122928833D+03
 0.179026726743984D+04 -.347569178020812D+03 0.358667960972434D+03 0.171918871829952D+04
0.145168478165D-05 0.000000000000D+00 0.000000000000D+00 0.782603454550D-07 0.000000000000D+00  7 -2 2 23 -11 11 23 21 0 0.15856199D-01 0.10848921D+00 0.32584035D+05 0.32584035D+05 0.32584035D+05 0.11640211D+01  1  2  2  1  7  1       -2 0.211315557364D-03 0.100000000000D+01
-.648720369507D-07 0.000000000000D+00 -.557485179894D-08 0.782603454550D-07 0.000000000000D+00  7 -2 2 23 -11 11 23 21 2 0.15856199D-01 0.10848921D+00 0.32584035D+05 0.32584035D+05 0.32584035D+05 0.11640211D+01  1  2  3  1  7  1       -2 -.127949450364D-04 0.100000000000D+01
0.932178209145D-07 0.000000000000D+00 0.000000000000D+00 0.782603454550D-07 0.000000000000D+00  7 -2 2 23 -11 11 23 21 2 0.15856199D-01 0.10848921D+00 0.32584035D+05 0.32584035D+05 0.32584035D+05 0.11640211D+01  1  2 15  1  7  1       -2 0.183856858991D-04 0.100000000000D+01
-.805764889001D-06 0.000000000000D+00 -.105761988391D-05 0.782603454550D-07 0.000000000000D+00  7 -2 2 23 -11 11 23 21 2 0.16279117D+00 0.10848921D+00 0.32584035D+05 0.32584035D+05 0.32584035D+05 0.11640211D+01  1  2  5  1  7  1       -2 -.143021245239D-05 0.100000000000D+01
-.396175143361D-06 0.000000000000D+00 -.292261289468D-06 0.782603454550D-07 0.000000000000D+00  7 21 2 23 -11 11 23 2 2 0.16279117D+00 0.10848921D+00 0.32584035D+05 0.32584035D+05 0.32584035D+05 0.11640211D+01  1  2  5  3  7  1       -2 -.639290974813D-05 0.100000000000D+01
  </mgrwgt>
  </event>
  <event>
  8     66 0.53686478E-06 0.29113147E+03 0.75467711E-02 0.88015851E-01
       -2 -1    0    0    0  501 0.00000000E+00 0.00000000E+00 0.40983035E+03 0.40983047E+03 0.32000000E+00 0.0000E+00 0.9000E+01
        2 -1    0    0  501    0 0.00000000E+00 0.00000000E+00 -.67610630E+03 0.67610637E+03 0.32000000E+00 0.0000E+00 0.9000E+01
       25  2    1    2    0    0 0.80794661E+02 0.20825787E+03 0.29455488E+03 0.47585179E+03 0.29962181E+03 0.0000E+00 0.0000E+00
       23  2    1    2    0    0 -.80794661E+02 -.20825787E+03 -.56083083E+03 0.61008505E+03 0.88167086E+02 0.0000E+00 0.0000E+00
       23  1    3    3    0    0 -.97984036E+01 -.11518361E+02 0.16748422E+03 0.19129793E+03 0.91188000E+02 0.0000E+00 0.9000E+01
      -11  1    4    4    0    0 -.29369776E+01 0.63138927E+01 -.34404045E+01 0.77670755E+01 0.51099893E-03 0.0000E+00 0.9000E+01
       11  1    4    4    0    0 -.77857683E+02 -.21457177E+03 -.55739043E+03 0.60231798E+03 0.51099893E-03 0.0000E+00 0.9000E+01
       23  1    3    3    0    0 0.90593064E+02 0.21977623E+03 0.12707066E+03 0.28455386E+03 0.91188000E+02 0.0000E+00 0.9000E+01
#aMCatNLO 1  0  0  1  2 0.83470057D+03 0.00000000D+00  -5  7  0 0.00000000D+00 0.00000000D+00 0.00000000D+00 0.00000000D+00 0.00000000D+00
  <mgrwgt>
 0.6240844204D-03    3    2    0
 0.526392425846052D+03 0.000000000000000D+00 0.000000000000000D+00 0.526392425846052D+03
 0.526392425846052D+03 0.000000000000000D+00 0.000000000000000D+00 -.526392425846052D+03
 0.239682861038702D+03 -.979840364434100D+01 -.115183610069980D+02 0.221142355005623D+03
 0.714149373285776D+01 -.293697764145048D+01 0.631389266609310D+01 -.158425202260324D+01
 0.480306700898236D+03 -.778576829930237D+02 -.214571766467381D+03 -.422601070942530D+03
 0.325653796022308D+03 0.905930642788152D+02 0.219776234808285D+03 0.203042967959510D+03
 0.000000000000000D+00 -.000000000000000D+00 0.000000000000000D+00 -.000000000000000D+00
 0.906304712905670D+03 0.000000000000000D+00 0.000000000000000D+00 0.906304712905670D+03
 0.141442275763834D+04 0.000000000000000D+00 0.000000000000000D+00 -.141442275763834D+04
 0.307393917829469D+03 0.118551684287755D+03 -.152372328031221D+03 0.221142355005623D+03
 0.384519710601418D+01 -.359381973490753D+00 0.348518735652866D+01 -.158425202260324D+01
 0.697123327469257D+03 0.198380047271293D+03 -.517720605524519D+03 -.422601070942530D+03
 0.335170580808282D+03 0.245629560343139D+03 0.496360669593258D+02 0.203042967959510D+03
 0.977194447330984D+03 -.562201909928697D+03 0.616971679239886D+03 -.508118044732667D+03
0.470392849871D-04 0.000000000000D+00 0.000000000000D+00 0.384104676856D-06 0.000000000000D+00  7 -2 2 23 -11 11 23 21 0 0.63050838D-01 0.10401637D+00 0.84757532D+05 0.84757532D+05 0.84757532D+05 0.11276639D+01  1  2  2  1  7  1       -2 0.607188373216D-03 0.100000000000D+01
-.149871122924D-05 0.000000000000D+00 -.180643240079D-06 0.384104676856D-06 0.000000000000D+00  7 -2 2 23 -11 11 23 21 2 0.63050838D-01 0.10401637D+00 0.84757532D+05 0.84757532D+05 0.84757532D+05 0.11276639D+01  1  2  3  1  7  1       -2 -.246002812839D-04 0.100000000000D+01
0.252806106899D-05 0.000000000000D+00 0.000000000000D+00 0.384104676856D-06 0.000000000000D+00  7 -2 2 23 -11 11 23 21 2 0.63050838D-01 0.10401637D+00 0.84757532D+05 0.84757532D+05 0.84757532D+05 0.11276639D+01  1  2 15  1  7  1       -2 0.414963284363D-04 0.100000000000D+01
  </mgrwgt>
  </event>
  <event>
  8     66 0.53686478E-06 0.27241723E+03 0.75467711E-02 0.91671228E-01
       -2 -1    0    0    0  501 0.00000000E+00 0.00000000E+00 0.11284845E+03 0.11284890E+03 0.32000000E+00 0.0000E+00 0.9000E+01
        2 -1    0    0  501    0 0.00000000E+00 0.00000000E+00 -.29534891E+04 0.29534891E+04 0.32000000E+00 0.0000E+00 0.9000E+01
       25  2    1    2    0    0 0.11972493E+03 0.18330907E+03 -.28009317E+04 0.28258751E+04 0.30399907E+03 0.0000E+00 0.0000E+00
       23  2    1    2    0    0 -.11972493E+03 -.18330907E+03 -.39708946E+02 0.24046290E+03 0.91155539E+02 0.0000E+00 0.0000E+00
       23  1    3    3    0    0 0.82996301E+02 0.79436047E+01 -.45930667E+03 0.47563574E+03 0.91188000E+02 0.0000E+00 0.9000E+01
      -11  1    4    4    0    0 -.96995574E+02 -.16339614E+03 0.68316063E+00 0.19001817E+03 0.51099893E-03 0.0000E+00 0.9000E+01
       11  1    4    4    0    0 -.22729357E+02 -.19912936E+02 -.40392106E+02 0.50444732E+02 0.51099893E-03 0.0000E+00 0.9000E+01
       23  1    3    3    0    0 0.36728629E+02 0.17536547E+03 -.23416250E+04 0.23502394E+04 0.91188000E+02 0.0000E+00 0.9000E+01
#aMCatNLO 1  0  0  2  2 0.52851155D+03 0.00000000D+00  -5  7  0 0.00000000D+00 0.00000000D+00 0.00000000D+00 0.00000000D+00 0.00000000D+00
  <mgrwgt>
 0.3892265714D-03    3    2    0
 0.577319128366784D+03 0.000000000000000D+00 0.000000000000000D+00 0.577319128366784D+03
 0.577319128366784D+03 0.000000000000000D+00 0.000000000000000D+00 -.577319128366784D+03
 0.133145376958179D+03 0.829963014220357D+02 0.794360475235245D+01 -.496079948711567D+02
 0.506306246291168D+03 -.969955737546735D+02 -.163396138093565D+03 0.469296895111786D+03
 0.345919069266402D+02 -.227293568169923D+02 -.199129364619170D+02 0.168360127396853D+02
 0.480594726557580D+03 0.367286291496301D+02 0.175365469803129D+03 -.436524912980315D+03
 0.000000000000000D+00 0.000000000000000D+00 0.000000000000000D+00 0.000000000000000D+00
 0.147807551367496D+04 0.000000000000000D+00 0.000000000000000D+00 0.147807551367496D+04
 0.717745550832560D+03 0.000000000000000D+00 0.000000000000000D+00 -.717745550832560D+03
 0.108289357887073D+03 0.308069111914167D+02 0.114662779581293D+01 -.496079948711567D+02
 0.610510339486239D+03 -.338410615581704D+03 -.194837250338974D+03 0.469296895111786D+03
 0.495373794118010D+02 -.409150423081648D+02 -.222813811721573D+02 0.168360127396853D+02
 0.501510928817861D+03 -.175566819261879D+03 0.147716798982203D+03 -.436524912980315D+03
 0.925973058904551D+03 0.524085565960331D+03 0.682552047331151D+02 0.760329962842404D+03
0.563664911628D-04 0.000000000000D+00 0.000000000000D+00 0.955412877778D-07 0.000000000000D+00  7 -2 2 23 -11 11 23 21 0 0.17361336D-01 0.45438298D+00 0.74211147D+05 0.74211147D+05 0.74211147D+05 0.11325091D+01  1  2  2  2  7  2        2 0.370835534635D-03 0.100000000000D+01
-.983741696450D-06 0.000000000000D+00 -.216462167703D-06 0.955412877778D-07 0.000000000000D+00  7 -2 2 23 -11 11 23 21 2 0.17361336D-01 0.45438298D+00 0.74211147D+05 0.74211147D+05 0.74211147D+05 0.11325091D+01  1  2  3  2  7  2        2 -.830089335229D-05 0.100000000000D+01
0.316326972783D-05 0.000000000000D+00 0.000000000000D+00 0.955412877778D-07 0.000000000000D+00  7 -2 2 23 -11 11 23 21 2 0.17361336D-01 0.45438298D+00 0.74211147D+05 0.74211147D+05 0.74211147D+05 0.11325091D+01  1  2 15  2  7  2        2 0.266919301581D-04 0.100000000000D+01
  </mgrwgt>
  </event>
  <event>
  8     66 0.53686478E-06 0.23816336E+03 0.75467711E-02 0.92558636E-01
       -2 -1    0    0    0  501 0.00000000E+00 0.00000000E+00 0.45043405E+02 0.45044541E+02 0.32000000E+00 0.0000E+00 0.9000E+01
        2 -1    0    0  501    0 0.00000000E+00 0.00000000E+00 -.27834688E+04 0.27834688E+04 0.32000000E+00 0.0000E+00 0.9000E+01
       25  2    1    2    0    0 -.12763383E+03 0.95373527E+02 -.25224218E+04 0.25452659E+04 0.30063332E+03 0.0000E+00 0.0000E+00
       23  2    1    2    0    0 0.12763383E+03 -.95373527E+02 -.21600360E+03 0.28324744E+03 0.90471280E+02 0.0000E+00 0.0000E+00
       23  1    3    3    0    0 0.16165735E+01 -.47065503E+02 -.13331749E+04 0.13371194E+04 0.91188000E+02 0.0000E+00 0.9000E+01
      -13  1    4    4    0    0 0.22920839E+02 -.28568478E+02 -.30963339E+01 0.36757601E+02 0.10565837E+00 0.0000E+00 0.9000E+01
       13  1    4    4    0    0 0.10471299E+03 -.66805049E+02 -.21290727E+03 0.24648984E+03 0.10565837E+00 0.0000E+00 0.9000E+01
       23  1    3    3    0    0 -.12925040E+03 0.14243903E+03 -.11892469E+04 0.12081465E+04 0.91188000E+02 0.0000E+00 0.9000E+01
#aMCatNLO 1  0  0  1  2 0.50021308D+03 0.00000000D+00  -5  7  0 0.00000000D+00 0.00000000D+00 0.00000000D+00 0.00000000D+00 0.00000000D+00
  <mgrwgt>
 0.2333481166D-03    5    2    0
 0.354088327573828D+03 0.000000000000000D+00 0.000000000000000D+00 0.354088327573828D+03
 0.354088327573828D+03 0.000000000000000D+00 0.000000000000000D+00 -.354088327573828D+03
 0.185349424004179D+03 0.161657349086072D+01 -.470655033538237D+02 -.154341772436632D+03
 0.134839604691403D+03 0.229207277778409D+02 -.285684259460274D+02 0.129769812631575D+03
 0.161215644086995D+03 0.104713099667896D+03 -.668051007600219D+02 0.102775138865240D+03
 0.226771982365079D+03 -.129250400936597D+03 0.142439030059873D+03 -.782031790601837D+02
 0.000000000000000D+00 0.000000000000000D+00 0.000000000000000D+00 0.000000000000000D+00
 0.202362677904806D+04 0.000000000000000D+00 0.000000000000000D+00 0.202362677904806D+04
 0.472849866801061D+03 0.000000000000000D+00 0.000000000000000D+00 -.472849866801061D+03
 0.247257980173683D+03 -.104156080409129D+03 -.134727078237805D+03 -.154341772436632D+03
 0.165495556041761D+03 -.505113186999535D+02 -.894269617192113D+02 0.129769812631575D+03
 0.170539742437161D+03 0.235987975561136D+02 -.134030486590437D+03 0.102775138865240D+03
 0.283728809017566D+03 -.254068013860270D+03 0.389934974130897D+02 -.782031790601837D+02
 0.162945455817895D+04 0.385136615413239D+03 0.319191029134363D+03 0.155077691224700D+04
0.739218943533D-05 0.000000000000D+00 0.000000000000D+00 0.249680624824D-06 0.000000000000D+00  7 -2 2 23 -13 13 23 21 0 0.69298434D-02 0.42822605D+00 0.56721785D+05 0.56721785D+05 0.56721785D+05 0.11425079D+01  1  2  2  1  7  1       -2 0.258621108604D-03 0.100000000000D+01
-.332141931486D-06 0.000000000000D+00 -.283879538399D-07 0.249680624824D-06 0.000000000000D+00  7 -2 2 23 -13 13 23 21 2 0.69298434D-02 0.42822605D+00 0.56721785D+05 0.56721785D+05 0.56721785D+05 0.11425079D+01  1  2  3  1  7  1       -2 -.151681644863D-04 0.100000000000D+01
0.449110845160D-06 0.000000000000D+00 0.000000000000D+00 0.249680624824D-06 0.000000000000D+00  7 -2 2 23 -13 13 23 21 2 0.69298434D-02 0.42822605D+00 0.56721785D+05 0.56721785D+05 0.56721785D+05 0.11425079D+01  1  2 15  1  7  1       -2 0.205098679998D-04 0.100000000000D+01
-.494883638574D-05 0.000000000000D+00 -.467401388941D-05 0.249680624824D-06 0.000000000000D+00  7 -2 2 23 -13 13 23 21 2 0.59688087D-01 0.42822605D+00 0.56721785D+05 0.56721785D+05 0.56721785D+05 0.11425079D+01  1  2  5  1  7  1       -2 -.600484956866D-05 0.100000000000D+01
-.190915249273D-05 0.000000000000D+00 -.121490785318D-05 0.249680624824D-06 0.000000000000D+00  7 21 2 23 -13 13 23 2 2 0.59688087D-01 0.42822605D+00 0.56721785D+05 0.56721785D+05 0.56721785D+05 0.11425079D+01  1  2  5  3  7  1       -2 -.246098459369D-04 0.100000000000D+01
  </mgrwgt>
  </event>
  <event>
  8     66 0.53686478E-06 0.22029015E+03 0.75467711E-02 0.95029001E-01
       -2 -1    0    0    0  501 0.00000000E+00 0.00000000E+00 0.23465264E+03 0.23465285E+03 0.32000000E+00 0.0000E+00 0.9000E+01
        2 -1    0    0  501    0 0.00000000E+00 0.00000000E+00 -.32380653E+03 0.32380669E+03 0.32000000E+00 0.0000E+00 0.9000E+01
       25  2    1    2    0    0 0.68034497E+00 -.13563986E+03 -.17291481E+03 0.37216299E+03 0.30034501E+03 0.0000E+00 0.0000E+00
       23  2    1    2    0    0 -.68034497E+00 0.13563986E+03 0.83760919E+02 0.18629655E+03 0.96394389E+02 0.0000E+00 0.0000E+00
       23  1    3    3    0    0 -.96203432E+02 -.58746182E+02 -.16303140E+03 0.21817585E+03 0.91188000E+02 0.0000E+00 0.9000E+01
      -13  1    4    4    0    0 0.20462973E+02 0.72804351E+02 0.92439857E+02 0.11943343E+03 0.10565837E+00 0.0000E+00 0.9000E+01
       13  1    4    4    0    0 -.21143318E+02 0.62835511E+02 -.86789378E+01 0.66863118E+02 0.10565837E+00 0.0000E+00 0.9000E+01
       23  1    3    3    0    0 0.96883777E+02 -.76893681E+02 -.98834096E+01 0.15398713E+03 0.91188000E+02 0.0000E+00 0.9000E+01
#aMCatNLO 1  0  0  1  2 0.38251779D+03 0.00000000D+00  -5  7  0 0.00000000D+00 0.00000000D+00 0.00000000D+00 0.00000000D+00 0.00000000D+00
  <mgrwgt>
 0.2072523296D-03    3    2    0
 0.275648617375960D+03 0.000000000000000D+00 0.000000000000000D+00 0.275648617375960D+03
 0.275648617375960D+03 0.000000000000000D+00 0.000000000000000D+00 -.275648617375960D+03
 0.194645463891252D+03 -.962034304972715D+02 -.587461893647937D+02 -.129866818183526D+03
 0.135934220082478D+03 0.204630126682312D+02 0.728043809784084D+02 0.112955298292387D+03
 0.663281668238414D+02 -.211433577057264D+02 0.628354949165437D+02 0.202106846297922D+01
 0.154389383954350D+03 0.968837755347667D+02 -.768936865301584D+02 0.148904514281606D+02
 0.000000000000000D+00 -.000000000000000D+00 -.000000000000000D+00 -.000000000000000D+00
 0.461580687793954D+03 0.000000000000000D+00 0.000000000000000D+00 0.461580687793954D+03
 0.625640615164663D+03 0.000000000000000D+00 0.000000000000000D+00 -.625640615164663D+03
 0.178522489316757D+03 -.622914163851962D+02 0.530039321887034D+02 -.129866818183526D+03
 0.217912493975186D+03 0.526191896857850D+02 0.178768499727930D+03 0.112955298292387D+03
 0.118190311630654D+03 -.437505487721545D+01 0.118092014719203D+03 0.202106846297922D+01
 0.156380294699666D+03 0.125125283514005D+03 0.161704393310711D+02 0.148904514281606D+02
 0.416215713336354D+03 -.111078001937379D+03 -.366034885966908D+03 -.164059927370709D+03
0.236330233316D-05 0.000000000000D+00 0.000000000000D+00 0.199909849728D-07 0.000000000000D+00  7 -2 2 23 -13 13 23 21 0 0.36100434D-01 0.49816418D-01 0.48527749D+05 0.48527749D+05 0.48527749D+05 0.11484388D+01  1  2  2  1  7  1       -2 0.204061102736D-03 0.100000000000D+01
-.123271746592D-06 0.000000000000D+00 -.907570323111D-08 0.199909849728D-07 0.000000000000D+00  7 -2 2 23 -13 13 23 21 2 0.36100434D-01 0.49816418D-01 0.48527749D+05 0.48527749D+05 0.48527749D+05 0.11484388D+01  1  2  3  1  7  1       -2 -.140384849514D-04 0.100000000000D+01
0.151293866579D-06 0.000000000000D+00 0.000000000000D+00 0.199909849728D-07 0.000000000000D+00  7 -2 2 23 -13 13 23 21 2 0.36100434D-01 0.49816418D-01 0.48527749D+05 0.48527749D+05 0.48527749D+05 0.11484388D+01  1  2 15  1  7  1       -2 0.172297118191D-04 0.100000000000D+01
  </mgrwgt>
  </event>
  <event>
  8     66 0.53686478E-06 0.56631887E+03 0.75467711E-02 0.92039642E-01
       -2 -1    0    0    0  501 0.00000000E+00 0.00000000E+00 0.56796867E+03 0.56796876E+03 0.32000000E+00 0.0000E+00 0.9000E+01
        2 -1    0    0  501    0 0.00000000E+00 0.00000000E+00 -.65304154E+03 0.65304162E+03 0.32000000E+00 0.0000E+00 0.9000E+01
       25  2    1    2    0    0 0.50250138E+03 -.20918207E+03 0.11702383E+03 0.63221471E+03 0.29955982E+03 0.0000E+00 0.0000E+00
       23  2    1    2    0    0 -.50250138E+03 0.20918207E+03 -.20209670E+03 0.58879567E+03 0.97839090E+02 0.0000E+00 0.0000E+00
       23  1    3    3    0    0 0.36164804E+03 -.16068001E+03 -.25319167E+02 0.40689518E+03 0.91188000E+02 0.0000E+00 0.9000E+01
      -13  1    4    4    0    0 -.39276429E+03 0.12067074E+03 -.16688119E+03 0.44348006E+03 0.10565837E+00 0.0000E+00 0.9000E+01
       13  1    4    4    0    0 -.10973709E+03 0.88511330E+02 -.35215508E+02 0.14531561E+03 0.10565837E+00 0.0000E+00 0.9000E+01
       23  1    3    3    0    0 0.14085334E+03 -.48502059E+02 0.14234300E+03 0.22531953E+03 0.91188000E+02 0.0000E+00 0.9000E+01
#aMCatNLO 1  0  0  2  1 0.12786476D+03 0.00000000D+00  -5  7  0 0.00000000D+00 0.00000000D+00 0.00000000D+00 0.00000000D+00 0.00000000D+00
  <mgrwgt>
 0.1216908896D-03    4    2    0
 0.609021541552156D+03 0.000000000000000D+00 0.000000000000000D+00 0.609021541552156D+03
 0.609021541552156D+03 0.000000000000000D+00 0.000000000000000D+00 -.609021541552156D+03
 0.406118032447986D+03 0.361648042749342D+03 -.160680013934002D+03 0.303829444949078D+01
 0.432905132486175D+03 -.392764623113705D+03 0.120670781788700D+03 -.136313487908301D+03
 0.143209690774264D+03 -.109736756906843D+03 0.885112912239840D+02 -.251517601986788D+02
 0.235810227395887D+03 0.140853337271205D+03 -.485020590786817D+02 0.158426953657489D+03
 0.000000000000000D+00 0.000000000000000D+00 0.000000000000000D+00 0.000000000000000D+00
 0.735917629308293D+03 0.000000000000000D+00 0.000000000000000D+00 0.735917629308293D+03
 0.645450668518308D+03 0.000000000000000D+00 0.000000000000000D+00 -.645450668518308D+03
 0.371188466661223D+03 0.321002505290393D+03 -.162523188506869D+03 0.303829444949078D+01
 0.475898385010628D+03 -.440286170219734D+03 0.118515797188544D+03 -.136313487908301D+03
 0.155083541062124D+03 -.125334579313128D+03 0.878039685645067D+02 -.251517601986788D+02
 0.222565639237992D+03 0.116884756693406D+03 -.495889749132507D+02 0.158426953657489D+03
 0.156632265854635D+03 0.127733487549063D+03 0.579239766706874D+01 0.904669607899856D+02
0.271213561886D-04 0.000000000000D+00 0.000000000000D+00 0.240672730609D-07 0.000000000000D+00  7 -2 2 23 -13 13 23 21 0 0.87379809D-01 0.10046794D+00 0.32071706D+06 0.32071706D+06 0.32071706D+06 0.10824128D+01  1  2  2  2  7  2        2 0.171650754086D-03 0.100000000000D+01
-.149706044355D-05 0.000000000000D+00 -.104153148981D-06 0.240672730609D-07 0.000000000000D+00  7 -2 2 23 -13 13 23 21 2 0.87379809D-01 0.10046794D+00 0.32071706D+06 0.32071706D+06 0.32071706D+06 0.10824128D+01  1  2  3  2  7  2        2 -.111009323073D-04 0.100000000000D+01
0.166573013952D-05 0.000000000000D+00 0.000000000000D+00 0.240672730609D-07 0.000000000000D+00  7 -2 2 23 -13 13 23 21 2 0.87379809D-01 0.10046794D+00 0.32071706D+06 0.32071706D+06 0.32071706D+06 0.10824128D+01  1  2 15  2  7  2        2 0.123516439171D-04 0.100000000000D+01
-.690620622811D-05 0.000000000000D+00 0.000000000000D+00 0.240672730609D-07 0.000000000000D+00  7 -2 2 23 -13 13 23 21 2 0.87379809D-01 0.10046794D+00 0.32071706D+06 0.32071706D+06 0.32071706D+06 0.10824128D+01  1  2  4  2  7  2        2 -.512105761452D-04 0.100000000000D+01
  </mgrwgt>
  </event>
  <event>
  8     66 0.53686478E-06 0.16165918E+03 0.75467711E-02 0.10299983E+00
       -2 -1    0    0    0  501 0.00000000E+00 0.00000000E+00 0.20712264E+03 0.20712289E+03 0.32000000E+00 0.0000E+00 0.9000E+01
        2 -1    0    0  501    0 0.00000000E+00 0.00000000E+00 -.29005853E+03 0.29005871E+03 0.32000000E+00 0.0000E+00 0.9000E+01
       25  2    1    2    0    0 0.10262499E+03 0.63042044E+02 0.26387380E+01 0.32324076E+03 0.29995239E+03 0.0000E+00 0.0000E+00
       23  2    1    2    0    0 -.10262499E+03 -.63042044E+02 -.85574631E+02 0.17394084E+03 0.91794395E+02 0.0000E+00 0.0000E+00
       23  1    3    3    0    0 -.26815138E+02 0.70539791E+02 0.83927711E+02 0.14510005E+03 0.91188000E+02 0.0000E+00 0.9000E+01
      -11  1    4    4    0    0 -.36957262E+02 -.16531110E+02 -.84234697E+02 0.93459087E+02 0.51099893E-03 0.0000E+00 0.9000E+01
       11  1    4    4    0    0 -.65667725E+02 -.46510933E+02 -.13399342E+01 0.80481752E+02 0.51099893E-03 0.0000E+00 0.9000E+01
       23  1    3    3    0    0 0.12944013E+03 -.74977474E+01 -.81288973E+02 0.17814070E+03 0.91188000E+02 0.0000E+00 0.9000E+01
#aMCatNLO 1  0  0  1  2 0.96551403D+02 0.00000000D+00  -5  7  0 0.00000000D+00 0.00000000D+00 0.00000000D+00 0.00000000D+00 0.00000000D+00
  <mgrwgt>
 0.2542808737D-03    9    2    0
 0.245107720955133D+03 0.000000000000000D+00 0.000000000000000D+00 0.245107720955133D+03
 0.245107720955133D+03 0.000000000000000D+00 0.000000000000000D+00 -.245107720955133D+03
 0.161361086852650D+03 -.268151384065469D+02 0.705397909527604D+02 0.109668752390310D+03
 0.805361382083275D+02 -.369572623078918D+02 -.165311102366796D+02 -.696200597138443D+02
 0.813987363950579D+02 -.656677248511341D+02 -.465109332985546D+02 0.122571319355412D+02
 0.166919480454231D+03 0.129440125565573D+03 -.749774741752613D+01 -.523058246120066D+02
 0.000000000000000D+00 0.000000000000000D+00 0.000000000000000D+00 0.000000000000000D+00
 0.320715469043159D+03 0.000000000000000D+00 0.000000000000000D+00 0.320715469043159D+03
 0.282687988935969D+03 0.000000000000000D+00 0.000000000000000D+00 -.282687988935969D+03
 0.156424635620230D+03 -.452336750130765D+02 0.456080549781075D+02 0.109668752390310D+03
 0.890273181236305D+02 -.467849874280673D+02 -.298341349645408D+02 -.696200597138443D+02
 0.980158084884445D+02 -.760664090241232D+02 -.605868207495074D+02 0.122571319355412D+02
 0.156165456115940D+03 0.110714451910603D+03 -.328452308515636D+02 -.523058246120066D+02
 0.103770239630883D+03 0.573706195546641D+02 0.776581315875043D+02 0.380274801071895D+02
0.175983822720D-05 0.000000000000D+00 0.000000000000D+00 0.343398900200D-06 0.000000000000D+00  7 -2 2 23 -11 11 23 21 0 0.31865054D-01 0.44624422D-01 0.39567904D+05 0.39567904D+05 0.39567904D+05 0.11563432D+01  1  2  2  1  7  1       -2 0.213435485850D-03 0.100000000000D+01
-.925857027776D-07 0.000000000000D+00 -.675824216851D-08 0.343398900200D-06 0.000000000000D+00  7 -2 2 23 -11 11 23 21 2 0.31865054D-01 0.44624422D-01 0.39567904D+05 0.39567904D+05 0.39567904D+05 0.11563432D+01  1  2  3  1  7  1       -2 -.150145149486D-04 0.100000000000D+01
0.109050881284D-06 0.000000000000D+00 0.000000000000D+00 0.343398900200D-06 0.000000000000D+00  7 -2 2 23 -11 11 23 21 2 0.31865054D-01 0.44624422D-01 0.39567904D+05 0.39567904D+05 0.39567904D+05 0.11563432D+01  1  2 15  1  7  1       -2 0.176846536568D-04 0.100000000000D+01
0.729954782750D-06 0.000000000000D+00 0.000000000000D+00 0.343398900200D-06 0.000000000000D+00  7 -2 2 23 -11 11 23 21 2 0.43535578D-01 0.44624422D-01 0.64508947D+05 0.64508947D+05 0.64508947D+05 0.11376880D+01  1  2 12  1  7  1       -2 0.650763727035D-04 0.100000000000D+01
-.107570543829D-05 0.000000000000D+00 0.000000000000D+00 0.343398900200D-06 0.000000000000D+00  7 -2 2 23 -11 11 23 21 2 0.31865054D-01 0.44624422D-01 0.39567904D+05 0.39567904D+05 0.39567904D+05 0.11563432D+01  1  2  4  1  7  1       -2 -.174445890661D-03 0.100000000000D+01
-.152488493966D-05 0.000000000000D+00 -.724777879472D-06 0.343398900200D-06 0.000000000000D+00  7 -2 2 23 -11 11 23 21 2 0.47363725D-01 0.44624422D-01 0.39567904D+05 0.39567904D+05 0.39567904D+05 0.11563432D+01  1  2  5  1  7  1       -2 -.119766764413D-03 0.100000000000D+01
0.172805679981D-05 0.000000000000D+00 0.671352340513D-06 0.343398900200D-06 0.000000000000D+00  7 -2 2 23 -11 11 23 21 2 0.31865054D-01 0.44624422D-01 0.39567904D+05 0.39567904D+05 0.39567904D+05 0.11563432D+01  1  2  6  1  7  1       -2 0.280236946681D-03 0.100000000000D+01
0.290313185000D-07 0.000000000000D+00 0.000000000000D+00 0.343398900200D-06 0.000000000000D+00  7 21 2 23 -11 11 23 2 2 0.43535578D-01 0.44624422D-01 0.64508947D+05 0.64508947D+05 0.64508947D+05 0.11376880D+01  1  2 12  3  7  1       -2 0.289647061393D-04 0.100000000000D+01
-.476660012656D-07 0.000000000000D+00 -.342679310868D-07 0.343398900200D-06 0.000000000000D+00  7 21 2 23 -11 11 23 2 2 0.47363725D-01 0.44624422D-01 0.39567904D+05 0.39567904D+05 0.39567904D+05 0.11563432D+01  1  2  5  3  7  1       -2 -.418901212841D-04 0.100000000000D+01
  </mgrwgt>
  </event>
  <event>
  8     66 -.53686478E-06 0.20294151E+03 0.75467711E-02 0.10269973E+00
       -2 -1    0    0    0  501 0.00000000E+00 0.00000000E+00 0.36115700E+03 0.36115714E+03 0.32000000E+00 0.0000E+00 0.9000E+01
        2 -1    0    0  501    0 0.00000000E+00 0.00000000E+00 -.14163216E+04 0.14163216E+04 0.32000000E+00 0.0000E+00 0.9000E+01
       25  2    1    2    0    0 -.40410317E+02 -.18385599E+03 -.13611900E+04 0.14063917E+04 0.29943842E+03 0.0000E+00 0.0000E+00
       23  2    1    2    0    0 0.40410317E+02 0.18385599E+03 0.30602545E+03 0.37108704E+03 0.92833189E+02 0.0000E+00 0.0000E+00
       23  1    3    3    0    0 0.45701553E+02 -.18994029E+02 -.82635224E+03 0.83284013E+03 0.91188000E+02 0.0000E+00 0.9000E+01
      -13  1    4    4    0    0 0.62762798E+02 0.17230800E+03 0.28141459E+03 0.33589195E+03 0.10565837E+00 0.0000E+00 0.9000E+01
       13  1    4    4    0    0 -.22352481E+02 0.11547987E+02 0.24610855E+02 0.35195096E+02 0.10565837E+00 0.0000E+00 0.9000E+01
       23  1    3    3    0    0 -.86111870E+02 -.16486196E+03 -.53483779E+03 0.57355160E+03 0.91188000E+02 0.0000E+00 0.9000E+01
#aMCatNLO 1  0  0  2  1 0.12308982D+03 0.00000000D+00  -5  7  0 0.00000000D+00 0.00000000D+00 0.00000000D+00 0.00000000D+00 0.00000000D+00
  <mgrwgt>
 -.1712799457D-04    1    2    0
 0.715202501047681D+03 0.000000000000000D+00 0.000000000000000D+00 0.715202501047681D+03
 0.715202501047681D+03 0.000000000000000D+00 0.000000000000000D+00 -.715202501047681D+03
 0.425346685237156D+03 0.457015525636338D+02 -.189940285719844D+02 -.412498662143426D+03
 0.624984221701103D+03 0.627629085783123D+02 0.172308212177869D+03 0.597474664482261D+03
 0.618887617364405D+02 -.223525915896702D+02 0.115477786441245D+02 0.565440473160668D+02
 0.318185333420662D+03 -.861118695522760D+02 -.164861962250009D+03 -.241520049654902D+03
 0.000000000000000D+00 -.000000000000000D+00 -.000000000000000D+00 0.000000000000000D+00
 0.755062675480975D+03 0.000000000000000D+00 0.000000000000000D+00 0.755062675480975D+03
 0.723675339999323D+03 0.000000000000000D+00 0.000000000000000D+00 -.723675339999323D+03
 0.425207193650922D+03 0.475405318548963D+02 -.840581639876651D+01 -.412498662143426D+03
 0.629745923781971D+03 0.654757558310726D+02 0.187927856424128D+03 0.597474664482261D+03
 0.620994061620045D+02 -.220845172456617D+02 0.130912587942515D+02 0.565440473160668D+02
 0.313809258315444D+03 -.847454364605688D+02 -.156994509057771D+03 -.241520049654902D+03
 0.478762335699556D+02 -.618633397973837D+01 -.356187897618414D+02 0.313873354816527D+02
-.223467648747D-05 0.000000000000D+00 0.000000000000D+00 0.133148067400D-05 0.000000000000D+00  7 -2 2 23 -13 13 23 21 2 0.55562630D-01 0.21789564D+00 0.67455078D+05 0.67455078D+05 0.67455078D+05 0.11360294D+01  1  2 14  2  7  2        2 -.171279945703D-04 0.100000000000D+01
  </mgrwgt>
  </event>
  <event>
  8     66 0.53686478E-06 0.29784506E+03 0.75467711E-02 0.97381213E-01
       -2 -1    0    0    0  501 0.00000000E+00 0.00000000E+00 0.58049306E+03 0.58049315E+03 0.32000000E+00 0.0000E+00 0.9000E+01
        2 -1    0    0  501    0 0.00000000E+00 0.00000000E+00 -.39297576E+03 0.39297589E+03 0.32000000E+00 0.0000E+00 0.9000E+01
       25  2    1    2    0    0 -.13533639E+03 0.23104961E+03 0.44025767E+03 0.59622427E+03 0.29992783E+03 0.0000E+00 0.0000E+00
       23  2    1    2    0    0 0.13533639E+03 -.23104961E+03 -.25274037E+03 0.37724477E+03 0.82073539E+02 0.0000E+00 0.0000E+00
       23  1    3    3    0    0 -.62878534E+02 0.11278747E+03 0.39306069E+03 0.42365868E+03 0.91188000E+02 0.0000E+00 0.9000E+01
      -11  1    4    4    0    0 0.21030007E+02 -.76850021E+02 -.35130316E+02 0.87076553E+02 0.51099893E-03 0.0000E+00 0.9000E+01
       11  1    4    4    0    0 0.11430638E+03 -.15419959E+03 -.21761005E+03 0.29016822E+03 0.51099893E-03 0.0000E+00 0.9000E+01
       23  1    3    3    0    0 -.72457851E+02 0.11826214E+03 0.47196979E+02 0.17256558E+03 0.91188000E+02 0.0000E+00 0.9000E+01
#aMCatNLO 1  0  0  2  2 0.16849590D+03 0.00000000D+00  -5  7  0 0.00000000D+00 0.00000000D+00 0.00000000D+00 0.00000000D+00 0.00000000D+00
  <mgrwgt>
 0.2456795664D-03    4    2    0
 0.477618893626333D+03 0.000000000000000D+00 0.000000000000000D+00 0.477618893626333D+03
 0.477618893626333D+03 0.000000000000000D+00 0.000000000000000D+00 -.477618893626333D+03
 0.354584937274802D+03 -.628785343318338D+02 0.112787466857901D+03 0.317396445534970D+03
 0.956346906926497D+02 0.210300068715349D+02 -.768500214063006D+02 -.528943010608244D+02
 0.338424035197608D+03 0.114306378247451D+03 -.154199587711119D+03 -.278724535412840D+03
 0.166594124087606D+03 -.724578507871518D+02 0.118262142259519D+03 0.142223909386942D+02
 0.000000000000000D+00 -.000000000000000D+00 -.000000000000000D+00 0.000000000000000D+00
 0.645500408521203D+03 0.000000000000000D+00 0.000000000000000D+00 0.645500408521203D+03
 0.529212591282885D+03 0.000000000000000D+00 0.000000000000000D+00 -.529212591282885D+03
 0.369550012828882D+03 -.254167354712578D+02 0.163906822791420D+03 0.317396445534970D+03
 0.883697714863423D+02 0.305491415999593D+02 -.638604680169264D+02 -.528943010608244D+02
 0.333627638305065D+03 0.149073743934007D+03 -.106756982298162D+03 -.278724535412840D+03
 0.178437163421620D+03 -.546082873992426D+02 0.142619172937100D+03 0.142223909386942D+02
 0.204728413762179D+03 -.995978626634655D+02 -.135908545413432D+03 0.116287817238318D+03
0.278965131136D-04 0.000000000000D+00 0.000000000000D+00 0.347714893932D-07 0.000000000000D+00  7 -2 2 23 -11 11 23 21 0 0.89306641D-01 0.60457826D-01 0.88711677D+05 0.88711677D+05 0.88711677D+05 0.11260160D+01  1  2  2  2  7  2        2 0.309463511019D-03 0.100000000000D+01
-.112957929914D-05 0.000000000000D+00 -.107129955677D-06 0.347714893932D-07 0.000000000000D+00  7 -2 2 23 -11 11 23 21 2 0.89306641D-01 0.60457826D-01 0.88711677D+05 0.88711677D+05 0.88711677D+05 0.11260160D+01  1  2  3  2  7  2        2 -.158878583521D-04 0.100000000000D+01
0.163752190367D-05 0.000000000000D+00 0.000000000000D+00 0.347714893932D-07 0.000000000000D+00  7 -2 2 23 -11 11 23 21 2 0.89306641D-01 0.60457826D-01 0.88711677D+05 0.88711677D+05 0.88711677D+05 0.11260160D+01  1  2 15  2  7  2        2 0.230322174582D-04 0.100000000000D+01
-.504279065734D-05 0.000000000000D+00 0.000000000000D+00 0.347714893932D-07 0.000000000000D+00  7 -2 2 23 -11 11 23 21 2 0.89306641D-01 0.60457826D-01 0.88711677D+05 0.88711677D+05 0.88711677D+05 0.11260160D+01  1  2  4  2  7  2        2 -.709283037714D-04 0.100000000000D+01
  </mgrwgt>
  </event>
  <event>
  8     66 0.53686478E-06 0.27042548E+03 0.75467711E-02 0.95062175E-01
       -2 -1    0    0    0  501 0.00000000E+00 0.00000000E+00 0.35376470E+03 0.35376484E+03 0.32000000E+00 0.0000E+00 0.9000E+01
        2 -1    0    0  501    0 0.00000000E+00 0.00000000E+00 -.32103338E+03 0.32103354E+03 0.32000000E+00 0.0000E+00 0.9000E+01
       25  2    1    2    0    0 -.80692488E+02 0.17574000E+03 0.19157780E+03 0.40803979E+03 0.30397137E+03 0.0000E+00 0.0000E+00
       23  2    1    2    0    0 0.80692488E+02 -.17574000E+03 -.15884648E+03 0.26675859E+03 0.92369447E+02 0.0000E+00 0.0000E+00
       23  1    3    3    0    0 0.63350368E+02 0.11598070E+03 0.15610445E+03 0.22393893E+03 0.91188000E+02 0.0000E+00 0.9000E+01
      -13  1    4    4    0    0 0.52485526E+02 -.15758033E+03 -.16329265E+03 0.23291799E+03 0.10565837E+00 0.0000E+00 0.9000E+01
       13  1    4    4    0    0 0.28206962E+02 -.18159672E+02 0.44461696E+01 0.33840597E+02 0.10565837E+00 0.0000E+00 0.9000E+01
       23  1    3    3    0    0 -.14404286E+03 0.59759298E+02 0.35473348E+02 0.18410086E+03 0.91188000E+02 0.0000E+00 0.9000E+01
#aMCatNLO 1  0  0  1  2 0.31931469D+03 0.00000000D+00  -5  7  0 0.00000000D+00 0.00000000D+00 0.00000000D+00 0.00000000D+00 0.00000000D+00
  <mgrwgt>
 0.2835951957D-03    3    2    0
 0.337002044782724D+03 0.000000000000000D+00 0.000000000000000D+00 0.337002044782724D+03
 0.337002044782724D+03 0.000000000000000D+00 0.000000000000000D+00 -.337002044782724D+03
 0.216622011001211D+03 0.633503682938167D+02 0.115980703265731D+03 0.145413381823108D+03
 0.241122645544559D+03 0.524855591586146D+02 -.157580510838820D+03 -.174796392634377D+03
 0.336642875099109D+02 0.282069293563074D+02 -.181594901870719D+02 0.280825675177054D+01
 0.182595145509768D+03 -.144042856808739D+03 0.597592977601609D+02 0.265747540594984D+02
 0.000000000000000D+00 -.000000000000000D+00 0.000000000000000D+00 -.000000000000000D+00
 0.477722497303853D+03 0.000000000000000D+00 0.000000000000000D+00 0.477722497303853D+03
 0.616106101815096D+03 0.000000000000000D+00 0.000000000000000D+00 -.616106101815096D+03
 0.244683047548636D+03 0.158067540902240D+03 0.736487835172688D+02 0.145413381823108D+03
 0.319976550513941D+03 0.167692900631498D+03 -.209070096088857D+03 -.174796392634377D+03
 0.529617178213498D+02 0.459933597178827D+02 -.261087745875953D+02 0.280825675177054D+01
 0.128195943016670D+03 -.802298709514902D+02 0.312393776461333D+02 0.265747540594984D+02
 0.348011340218352D+03 -.291523930300131D+03 0.130290709513050D+03 -.138383604511243D+03
0.698400715667D-05 0.000000000000D+00 0.000000000000D+00 0.775098763461D-08 0.000000000000D+00  7 -2 2 23 -13 13 23 21 0 0.54425362D-01 0.49389774D-01 0.73129940D+05 0.73129940D+05 0.73129940D+05 0.11330482D+01  1  2  2  1  7  1       -2 0.279268246286D-03 0.100000000000D+01
-.365148415050D-06 0.000000000000D+00 -.268204264129D-07 0.775098763461D-08 0.000000000000D+00  7 -2 2 23 -13 13 23 21 2 0.54425362D-01 0.49389774D-01 0.73129940D+05 0.73129940D+05 0.73129940D+05 0.11330482D+01  1  2  3  1  7  1       -2 -.187448976554D-04 0.100000000000D+01
0.449436884633D-06 0.000000000000D+00 0.000000000000D+00 0.775098763461D-08 0.000000000000D+00  7 -2 2 23 -13 13 23 21 2 0.54425362D-01 0.49389774D-01 0.73129940D+05 0.73129940D+05 0.73129940D+05 0.11330482D+01  1  2 15  1  7  1       -2 0.230718471114D-04 0.100000000000D+01
  </mgrwgt>
  </event>
  <event>
  8     66 0.53686478E-06 0.66578999E+03 0.75467711E-02 0.90857906E-01
       -2 -1    0    0    0  501 0.00000000E+00 0.00000000E+00 0.45069907E+03 0.45069919E+03 0.32000000E+00 0.0000E+00 0.9000E+01
        2 -1    0    0  501    0 0.00000000E+00 0.00000000E+00 -.18863433E+04 0.18863433E+04 0.32000000E+00 0.0000E+00 0.9000E+01
       25  2    1    2    0    0 -.61099735E+03 0.28176852E+03 -.14837022E+04 0.16564834E+04 0.29975640E+03 0.0000E+00 0.0000E+00
       23  2    1    2    0    0 0.61099735E+03 -.28176852E+03 0.48057997E+02 0.68055905E+03 0.90220819E+02 0.0000E+00 0.0000E+00
       23  1    3    3    0    0 -.43310526E+03 0.28706665E+03 -.95161635E+03 0.10880608E+04 0.91188000E+02 0.0000E+00 0.9000E+01
      -11  1    4    4    0    0 0.61501675E+02 -.58168216E+02 -.59324589E+01 0.84859835E+02 0.51099893E-03 0.0000E+00 0.9000E+01
       11  1    4    4    0    0 0.54949567E+03 -.22360030E+03 0.53990456E+02 0.59569922E+03 0.51099893E-03 0.0000E+00 0.9000E+01
       23  1    3    3    0    0 -.17789209E+03 -.52981293E+01 -.53208584E+03 0.56842260E+03 0.91188000E+02 0.0000E+00 0.9000E+01
#aMCatNLO 1  0  0  1  2 0.85166961D+01 0.00000000D+00  -5  7  0 0.00000000D+00 0.00000000D+00 0.00000000D+00 0.00000000D+00 0.00000000D+00
  <mgrwgt>
 0.2822276179D-03   10    2    0
 0.922048439319008D+03 0.000000000000000D+00 0.000000000000000D+00 0.922048439319008D+03
 0.922048439319008D+03 0.000000000000000D+00 0.000000000000000D+00 -.922048439319008D+03
 0.638069447288262D+03 -.433105258135931D+03 0.287066648195909D+03 -.358928883049725D+03
 0.102925253046696D+03 0.615016752095567D+02 -.581682164631501D+02 0.585457962166434D+02
 0.796967597264111D+03 0.549495671796349D+03 -.223600302456354D+03 0.532179257870350D+03
 0.306134581038946D+03 -.177892088869974D+03 -.529812927640494D+01 -.231796171037269D+03
 0.000000000000000D+00 0.000000000000000D+00 -.000000000000000D+00 0.000000000000000D+00
 0.926937187396762D+03 0.000000000000000D+00 0.000000000000000D+00 0.926937187396762D+03
 0.925774985900638D+03 0.000000000000000D+00 0.000000000000000D+00 -.925774985900638D+03
 0.640165172316846D+03 -.434444296817572D+03 0.289697094184286D+03 -.358928883049725D+03
 0.102558088526043D+03 0.612864172760140D+02 -.577453576051376D+02 0.585457962166434D+02
 0.794904533929775D+03 0.547828076249176D+03 -.220324429938677D+03 0.532179257870350D+03
 0.306488750328065D+03 -.178533853946115D+03 -.403742755571592D+01 -.231796171037269D+03
 0.859562819667050D+01 0.386365723849725D+01 -.758987908475561D+01 0.116220149612447D+01
0.773461664604D-04 0.000000000000D+00 0.000000000000D+00 0.330323166840D-05 0.000000000000D+00  7 -2 2 23 -11 11 23 21 0 0.69338330D-01 0.29020667D+00 0.49379854D+06 0.49379854D+06 0.49379854D+06 0.10688937D+01  1  2  2  1  7  1       -2 0.145494078941D-03 0.100000000000D+01
-.391145330766D-05 0.000000000000D+00 -.297029644921D-06 0.330323166840D-05 0.000000000000D+00  7 -2 2 23 -11 11 23 21 2 0.69338330D-01 0.29020667D+00 0.49379854D+06 0.49379854D+06 0.49379854D+06 0.10688937D+01  1  2  3  1  7  1       -2 -.840647049512D-05 0.100000000000D+01
0.486324268932D-05 0.000000000000D+00 0.000000000000D+00 0.330323166840D-05 0.000000000000D+00  7 -2 2 23 -11 11 23 21 2 0.69338330D-01 0.29020667D+00 0.49379854D+06 0.49379854D+06 0.49379854D+06 0.10688937D+01  1  2 15  1  7  1       -2 0.104520501621D-04 0.100000000000D+01
-.143609133586D-05 0.000000000000D+00 0.000000000000D+00 0.330323166840D-05 0.000000000000D+00  7 -2 2 23 -11 11 23 21 2 0.69338330D-01 0.29020667D+00 0.49379854D+06 0.49379854D+06 0.49379854D+06 0.10688937D+01  1  2  4  1  7  1       -2 -.308643833727D-05 0.100000000000D+01
-.930848216480D-02 0.000000000000D+00 -.100349417191D-02 0.330323166840D-05 0.000000000000D+00  7 -2 2 23 -11 11 23 21 2 0.69985672D-01 0.29020667D+00 0.49379854D+06 0.49379854D+06 0.49379854D+06 0.10688937D+01  1  2  5  1  7  1       -2 -.196058657645D-01 0.100000000000D+01
0.931744834577D-02 0.000000000000D+00 0.100345084559D-02 0.330323166840D-05 0.000000000000D+00  7 -2 2 23 -11 11 23 21 2 0.69338330D-01 0.29020667D+00 0.49379854D+06 0.49379854D+06 0.49379854D+06 0.10688937D+01  1  2  6  1  7  1       -2 0.200250005427D-01 0.100000000000D+01
0.143613227087D-05 0.000000000000D+00 0.000000000000D+00 0.330323166840D-05 0.277319514971D-06  7 -2 2 23 -11 11 23 21 2 0.69705965D-01 0.29137956D+00 0.49969781D+06 0.49969781D+06 0.49969781D+06 0.10685290D+01  1  2 11  1  7  1       -2 0.301783738611D-05 0.100000000000D+01
0.199226010916D-05 0.000000000000D+00 0.000000000000D+00 0.330323166840D-05 0.000000000000D+00  7 21 2 23 -11 11 23 2 2 0.69845430D-01 0.29020667D+00 0.49969781D+06 0.49969781D+06 0.49969781D+06 0.10685290D+01  1  2 12  3  7  1       -2 0.407004019904D-04 0.100000000000D+01
-.159630357966D-04 0.000000000000D+00 -.172434614626D-05 0.330323166840D-05 0.000000000000D+00  7 21 2 23 -11 11 23 2 2 0.69985672D-01 0.29020667D+00 0.49379854D+06 0.49379854D+06 0.49379854D+06 0.10688937D+01  1  2  5  3  7  1       -2 -.325126453368D-03 0.100000000000D+01
0.235304478058D-08 0.000000000000D+00 0.000000000000D+00 0.330323166840D-05 0.272710891100D-09  7 21 2 23 -11 11 23 2 2 0.69705965D-01 0.29137956D+00 0.49969781D+06 0.49969781D+06 0.49969781D+06 0.10685290D+01  1  2 11  3  7  1       -2 0.478333960642D-07 0.100000000000D+01
  </mgrwgt>
  </event>
  <event>
  8     66 0.53686478E-06 0.33726317E+03 0.75467711E-02 0.98906009E-01
       -2 -1    0    0    0  501 0.00000000E+00 0.00000000E+00 0.45529282E+03 0.45529294E+03 0.32000000E+00 0.0000E+00 0.9000E+01
        2 -1    0    0  501    0 0.00000000E+00 0.00000000E+00 -.34422974E+03 0.34422989E+03 0.32000000E+00 0.0000E+00 0.9000E+01
       25  2    1    2    0    0 -.28044992E+03 0.91157568E+01 -.11489671E+03 0.42815208E+03 0.30228743E+03 0.0000E+00 0.0000E+00
       23  2    1    2    0    0 0.28044992E+03 -.91157568E+01 0.22595979E+03 0.37137075E+03 0.90128530E+02 0.0000E+00 0.0000E+00
       23  1    3    3    0    0 -.51083567E+02 0.74909973E+02 -.11528544E+03 0.17270500E+03 0.91188000E+02 0.0000E+00 0.9000E+01
      -13  1    4    4    0    0 0.53591066E+02 0.28233165E+02 0.74655750E+02 0.96138474E+02 0.10565837E+00 0.0000E+00 0.9000E+01
       13  1    4    4    0    0 0.22685886E+03 -.37348922E+02 0.15130404E+03 0.27523228E+03 0.10565837E+00 0.0000E+00 0.9000E+01
       23  1    3    3    0    0 -.22936636E+03 -.65794216E+02 0.38872925E+00 0.25544707E+03 0.91188000E+02 0.0000E+00 0.9000E+01
#aMCatNLO 1  0  0  1  2 0.21124849D+02 0.00000000D+00  -5  7  0 0.00000000D+00 0.00000000D+00 0.00000000D+00 0.00000000D+00 0.00000000D+00
  <mgrwgt>
 0.1079216175D-03    4    2    0
 0.395885635268910D+03 0.000000000000000D+00 0.000000000000000D+00 0.395885635268910D+03
 0.395885635268910D+03 0.000000000000000D+00 0.000000000000000D+00 -.395885635268910D+03
 0.190567092859507D+03 -.510835701890719D+02 0.749099711023303D+02 -.140639719222950D+03
 0.866073630325584D+02 0.535908282811362D+02 0.282332553130076D+02 0.619010642075374D+02
 0.256703407332749D+03 0.226859096270786D+03 -.373490121786740D+02 0.114178111145362D+03
 0.257893407313005D+03 -.229366354362850D+03 -.657942142366639D+02 -.354394561299499D+02
 0.000000000000000D+00 0.000000000000000D+00 -.000000000000000D+00 -.000000000000000D+00
 0.399198777395936D+03 0.000000000000000D+00 0.000000000000000D+00 0.399198777395936D+03
 0.431195369604348D+03 0.000000000000000D+00 0.000000000000000D+00 -.431195369604348D+03
 0.192651532853130D+03 -.511517008413835D+02 0.800208388145487D+02 -.140639719222950D+03
 0.873723348034873D+02 0.535598972420184D+02 0.305535684726256D+02 0.619010642075374D+02
 0.255717677696071D+03 0.226767995315773D+03 -.305150114208467D+02 0.114178111145362D+03
 0.256311485765317D+03 -.229457772452778D+03 -.589364233852625D+02 -.354394561299499D+02
 0.383411158822791D+02 0.281580736369934D+00 -.211229724810651D+02 -.319965922084122D+02
0.706708443868D-05 0.000000000000D+00 0.000000000000D+00 0.212245711770D-07 0.000000000000D+00  7 -2 2 23 -13 13 23 21 0 0.70045070D-01 0.52958442D-01 0.11374644D+06 0.11374644D+06 0.11374644D+06 0.11171604D+01  1  2  2  1  7  1       -2 0.154614291883D-03 0.100000000000D+01
-.380355265084D-06 0.000000000000D+00 -.271394650506D-07 0.212245711770D-07 0.000000000000D+00  7 -2 2 23 -13 13 23 21 2 0.70045070D-01 0.52958442D-01 0.11374644D+06 0.11374644D+06 0.11374644D+06 0.11171604D+01  1  2  3  1  7  1       -2 -.103855584364D-04 0.100000000000D+01
0.459558845974D-06 0.000000000000D+00 0.000000000000D+00 0.212245711770D-07 0.000000000000D+00  7 -2 2 23 -13 13 23 21 2 0.70045070D-01 0.52958442D-01 0.11374644D+06 0.11374644D+06 0.11374644D+06 0.11171604D+01  1  2 15  1  7  1       -2 0.125482034507D-04 0.100000000000D+01
-.178925168699D-05 0.000000000000D+00 0.000000000000D+00 0.212245711770D-07 0.000000000000D+00  7 -2 2 23 -13 13 23 21 2 0.70045070D-01 0.52958442D-01 0.11374644D+06 0.11374644D+06 0.11374644D+06 0.11171604D+01  1  2  4  1  7  1       -2 -.488553193778D-04 0.100000000000D+01
  </mgrwgt>
  </event>
  <event>
  8     66 0.53686478E-06 0.19121572E+03 0.75467711E-02 0.95798702E-01
       -2 -1    0    0    0  501 0.00000000E+00 0.00000000E+00 0.23926474E+03 0.23926496E+03 0.32000000E+00 0.0000E+00 0.9000E+01
        2 -1    0    0  501    0 0.00000000E+00 0.00000000E+00 -.11349107E+04 0.11349108E+04 0.32000000E+00 0.0000E+00 0.9000E+01
       25  2    1    2    0    0 0.63825476E+01 -.35123626E+03 -.89910939E+03 0.10107747E+04 0.29976672E+03 0.0000E+00 0.0000E+00
       23  2    1    2    0    0 -.63825476E+01 0.35123626E+03 0.34633921E+01 0.36340107E+03 0.92955378E+02 0.0000E+00 0.0000E+00
       23  1    3    3    0    0 -.11125652E+03 -.12268392E+03 -.36718857E+03 0.41300369E+03 0.91188000E+02 0.0000E+00 0.9000E+01
      -13  1    4    4    0    0 0.44924464E+01 0.27672120E+03 -.34793041E+02 0.27893614E+03 0.10565837E+00 0.0000E+00 0.9000E+01
       13  1    4    4    0    0 -.10874994E+02 0.74515053E+02 0.38256434E+02 0.84464930E+02 0.10565837E+00 0.0000E+00 0.9000E+01
       23  1    3    3    0    0 0.11763907E+03 -.22855233E+03 -.53192083E+03 0.59777097E+03 0.91188000E+02 0.0000E+00 0.9000E+01
#aMCatNLO 1  0  0  1  2 0.90404830D+02 0.00000000D+00  -5  7  0 0.00000000D+00 0.00000000D+00 0.00000000D+00 0.00000000D+00 0.00000000D+00
  <mgrwgt>
 0.4776355121D-03    9    2    0
 0.521099129954777D+03 0.000000000000000D+00 0.000000000000000D+00 0.521099129954777D+03
 0.521099129954777D+03 0.000000000000000D+00 0.000000000000000D+00 -.521099129954777D+03
 0.229005072775174D+03 -.111256518112518D+03 -.122683922804113D+03 -.129223505120532D+03
 0.337887050264170D+03 0.449246617809448D+01 0.276721463220968D+03 0.193836808363909D+03
 0.144246661330177D+03 -.108750137709353D+02 0.745147919092700D+02 0.123029992957420D+03
 0.331059475540032D+03 0.117639065705358D+03 -.228552332326125D+03 -.187643296200797D+03
 0.000000000000000D+00 -.000000000000000D+00 0.000000000000000D+00 0.000000000000000D+00
 0.569516173753959D+03 0.000000000000000D+00 0.000000000000000D+00 0.569516173753959D+03
 0.567034673018980D+03 0.000000000000000D+00 0.000000000000000D+00 -.567034673018980D+03
 0.238536112565857D+03 -.107508666602375D+03 -.142574184142060D+03 -.129223505120532D+03
 0.315639133001418D+03 0.973118988771416D+01 0.248918978682923D+03 0.193836808363909D+03
 0.138261704537829D+03 -.861040171355246D+01 0.624962459427317D+02 0.123029992957420D+03
 0.353675016273093D+03 0.123127957977633D+03 -.257682489018813D+03 -.187643296200797D+03
 0.904388803947427D+02 -.167400795494202D+02 0.888414485352189D+02 0.248150073497953D+01
0.163897011536D-04 0.000000000000D+00 0.000000000000D+00 0.612582846470D-06 0.000000000000D+00  7 -2 2 23 -13 13 23 21 0 0.36809980D-01 0.17460167D+00 0.16559631D+06 0.16559631D+06 0.16559631D+06 0.11041777D+01  1  2  2  1  7  1       -2 0.298218857772D-03 0.100000000000D+01
-.842840357505D-06 0.000000000000D+00 -.629407679373D-07 0.612582846470D-06 0.000000000000D+00  7 -2 2 23 -13 13 23 21 2 0.36809980D-01 0.17460167D+00 0.16559631D+06 0.16559631D+06 0.16559631D+06 0.11041777D+01  1  2  3  1  7  1       -2 -.186976621396D-04 0.100000000000D+01
0.100305563215D-05 0.000000000000D+00 0.000000000000D+00 0.612582846470D-06 0.000000000000D+00  7 -2 2 23 -13 13 23 21 2 0.36809980D-01 0.17460167D+00 0.16559631D+06 0.16559631D+06 0.16559631D+06 0.11041777D+01  1  2 15  1  7  1       -2 0.222518952138D-04 0.100000000000D+01
0.162949170283D-04 0.000000000000D+00 0.000000000000D+00 0.612582846470D-06 0.000000000000D+00  7 -2 2 23 -13 13 23 21 2 0.41710848D-01 0.17460167D+00 0.20380490D+06 0.20380490D+06 0.20380490D+06 0.10971973D+01  1  2 12  1  7  1       -2 0.281049092074D-03 0.100000000000D+01
-.133906195244D-04 0.000000000000D+00 0.000000000000D+00 0.612582846470D-06 0.000000000000D+00  7 -2 2 23 -13 13 23 21 2 0.36809980D-01 0.17460167D+00 0.16559631D+06 0.16559631D+06 0.16559631D+06 0.11041777D+01  1  2  4  1  7  1       -2 -.297058959598D-03 0.100000000000D+01
-.437517563672D-04 0.000000000000D+00 -.130845214309D-04 0.612582846470D-06 0.000000000000D+00  7 -2 2 23 -13 13 23 21 2 0.43710479D-01 0.17460167D+00 0.16559631D+06 0.16559631D+06 0.16559631D+06 0.11041777D+01  1  2  5  1  7  1       -2 -.703660570978D-03 0.100000000000D+01
0.455171876920D-04 0.000000000000D+00 0.128937302230D-04 0.612582846470D-06 0.000000000000D+00  7 -2 2 23 -13 13 23 21 2 0.36809980D-01 0.17460167D+00 0.16559631D+06 0.16559631D+06 0.16559631D+06 0.11041777D+01  1  2  6  1  7  1       -2 0.100975824120D-02 0.100000000000D+01
0.319919851309D-06 0.000000000000D+00 0.000000000000D+00 0.612582846470D-06 0.000000000000D+00  7 21 2 23 -13 13 23 2 2 0.41710848D-01 0.17460167D+00 0.20380490D+06 0.20380490D+06 0.20380490D+06 0.10971973D+01  1  2 12  3  7  1       -2 0.602344491571D-04 0.100000000000D+01
-.996828413475D-06 0.000000000000D+00 -.332701541177D-06 0.612582846470D-06 0.000000000000D+00  7 21 2 23 -13 13 23 2 2 0.43710479D-01 0.17460167D+00 0.16559631D+06 0.16559631D+06 0.16559631D+06 0.11041777D+01  1  2  5  3  7  1       -2 -.174459830618D-03 0.100000000000D+01
  </mgrwgt>
  </event>
  <event>
  8     66 0.53686478E-06 0.16550747E+03 0.75467711E-02 0.99519049E-01
       -2 -1    0    0    0  501 0.00000000E+00 0.00000000E+00 0.34998049E+02 0.34999511E+02 0.32000000E+00 0.0000E+00 0.9000E+01
        2 -1    0    0  501    0 0.00000000E+00 0.00000000E+00 -.13115295E+04 0.13115295E+04 0.32000000E+00 0.0000E+00 0.9000E+01
       25  2    1    2    0    0 -.10464225E+01 -.74004763E+02 -.87732249E+03 0.93016910E+03 0.30006999E+03 0.0000E+00 0.0000E+00
       23  2    1    2    0    0 0.10464225E+01 0.74004763E+02 -.39920892E+03 0.41635991E+03 0.92249739E+02 0.0000E+00 0.0000E+00
       23  1    3    3    0    0 -.27465981E+02 -.10945543E+03 -.21029976E+03 0.25549190E+03 0.91188000E+02 0.0000E+00 0.9000E+01
      -11  1    4    4    0    0 0.20655569E+02 0.45727790E+02 -.36283597E+03 0.36628899E+03 0.51099893E-03 0.0000E+00 0.9000E+01
       11  1    4    4    0    0 -.19609147E+02 0.28276973E+02 -.36372957E+02 0.50070928E+02 0.51099893E-03 0.0000E+00 0.9000E+01
       23  1    3    3    0    0 0.26419558E+02 0.35450670E+02 -.66702273E+03 0.67467720E+03 0.91188000E+02 0.0000E+00 0.9000E+01
#aMCatNLO 1  0  0  1  1 0.24903140D+03 0.00000000D+00  -5  7  0 0.00000000D+00 0.00000000D+00 0.00000000D+00 0.00000000D+00 0.00000000D+00
  <mgrwgt>
 0.2876659702D-03    5    2    0
 0.214247480742271D+03 0.000000000000000D+00 0.000000000000000D+00 0.214247480742271D+03
 0.214247480742271D+03 0.000000000000000D+00 0.000000000000000D+00 -.214247480742271D+03
 0.176368491259019D+03 -.274659804931771D+02 -.109455433779511D+03 0.100278219453031D+03
 0.701227350663776D+02 0.206555693400308D+02 0.457277902937647D+02 -.489848407497467D+02
 0.489871229883580D+02 -.196091467884170D+02 0.282769733174293D+02 0.348659197628891D+02
 0.133016612170787D+03 0.264195579415633D+02 0.354506701683166D+02 -.861592984661733D+02
 0.000000000000000D+00 0.000000000000000D+00 -.000000000000000D+00 0.000000000000000D+00
 0.397667268841729D+03 0.000000000000000D+00 0.000000000000000D+00 0.397667268841729D+03
 0.351257054725252D+03 0.000000000000000D+00 0.000000000000000D+00 -.351257054725252D+03
 0.171107962025966D+03 -.946224983062112D+02 -.441989235423237D+02 0.100278219453031D+03
 0.910163251892279D+02 -.104876579725716D+02 0.759899062897408D+02 -.489848407497467D+02
 0.762852876753516D+02 -.438204531911542D+02 0.518032878968198D+02 0.348659197628891D+02
 0.157195683954522D+03 -.296695584576890D+02 0.899529004461376D+02 -.861592984661733D+02
 0.253319064721914D+03 0.178600167927626D+03 -.173547171090374D+03 0.464102141164766D+02
0.710001230402D-06 0.000000000000D+00 0.000000000000D+00 0.866418292616D-07 0.000000000000D+00  7 -2 2 23 -11 11 23 21 0 0.53844307D-02 0.20177388D+00 0.27392724D+05 0.27392724D+05 0.27392724D+05 0.11710173D+01  1  2  2  1  7  1       -2 0.228365797913D-03 0.100000000000D+01
-.362493273073D-07 0.000000000000D+00 -.272659167236D-08 0.866418292616D-07 0.000000000000D+00  7 -2 2 23 -11 11 23 21 2 0.53844307D-02 0.20177388D+00 0.27392724D+05 0.27392724D+05 0.27392724D+05 0.11710173D+01  1  2  3  1  7  1       -2 -.159881621566D-04 0.100000000000D+01
0.440896386661D-07 0.000000000000D+00 0.000000000000D+00 0.866418292616D-07 0.000000000000D+00  7 -2 2 23 -11 11 23 21 2 0.53844307D-02 0.20177388D+00 0.27392724D+05 0.27392724D+05 0.27392724D+05 0.11710173D+01  1  2 15  1  7  1       -2 0.194462172069D-04 0.100000000000D+01
0.217820574164D-06 0.000000000000D+00 -.233320095290D-06 0.866418292616D-07 0.000000000000D+00  7 -2 2 23 -11 11 23 21 2 0.17373171D-01 0.20177388D+00 0.27392724D+05 0.27392724D+05 0.27392724D+05 0.11710173D+01  1  2  5  1  7  1       -2 0.161814908064D-04 0.100000000000D+01
0.392964884384D-07 0.000000000000D+00 -.315235299425D-07 0.866418292616D-07 0.000000000000D+00  7 21 2 23 -11 11 23 2 2 0.17373171D-01 0.20177388D+00 0.27392724D+05 0.27392724D+05 0.27392724D+05 0.11710173D+01  1  2  5  3  7  1       -2 0.396606264206D-04 0.100000000000D+01
  </mgrwgt>
  </event>
  <event>
  8     66 0.53686478E-06 0.33639552E+03 0.75467711E-02 0.95527201E-01
       -2 -1    0    0    0  501 0.00000000E+00 0.00000000E+00 0.41524626E+03 0.41524639E+03 0.32000000E+00 0.0000E+00 0.9000E+01
        2 -1    0    0  501    0 0.00000000E+00 0.00000000E+00 -.31724964E+03 0.31724980E+03 0.32000000E+00 0.0000E+00 0.9000E+01
       25  2    1    2    0    0 -.29014944E+03 0.10834981E+02 0.97649289E+02 0.42817149E+03 0.29915104E+03 0.0000E+00 0.0000E+00
       23  2    1    2    0    0 0.29014944E+03 -.10834981E+02 0.34733814E+00 0.30432469E+03 0.91155362E+02 0.0000E+00 0.0000E+00
       23  1    3    3    0    0 -.15746019E+03 -.78571309E+02 0.13559449E+03 0.24014220E+03 0.91188000E+02 0.0000E+00 0.9000E+01
      -13  1    4    4    0    0 0.20949012E+03 -.10891530E+02 -.40911666E+02 0.21372532E+03 0.10565837E+00 0.0000E+00 0.9000E+01
       13  1    4    4    0    0 0.80659321E+02 0.56548323E-01 0.41259004E+02 0.90599370E+02 0.10565837E+00 0.0000E+00 0.9000E+01
       23  1    3    3    0    0 -.13268926E+03 0.89406290E+02 -.37945200E+02 0.18802929E+03 0.91188000E+02 0.0000E+00 0.9000E+01
#aMCatNLO 1  0  0  2  1 0.22120746D+03 0.00000000D+00  -5  7  0 0.00000000D+00 0.00000000D+00 0.00000000D+00 0.00000000D+00 0.00000000D+00
  <mgrwgt>
 0.1910574367D-03    4    2    0
 0.362955685179358D+03 0.000000000000000D+00 0.000000000000000D+00 0.362955685179358D+03
 0.362955685179358D+03 0.000000000000000D+00 0.000000000000000D+00 -.362955685179358D+03
 0.224015563615871D+03 -.157460188210051D+03 -.785713083675732D+02 0.104405747104262D+03
 0.221187221127549D+03 0.209490296483581D+03 -.108915443694771D+02 -.701354170914832D+02
 0.858511383265734D+02 0.806591480249295D+02 0.565630171416336D-01 0.294026630169113D+02
 0.194857447288723D+03 -.132689256298459D+03 0.894062897199086D+02 -.636729930296903D+02
 0.000000000000000D+00 -.000000000000000D+00 -.000000000000000D+00 0.000000000000000D+00
 0.524226587930390D+03 0.000000000000000D+00 0.000000000000000D+00 0.524226587930390D+03
 0.463921343559651D+03 0.000000000000000D+00 0.000000000000000D+00 -.463921343559651D+03
 0.187089319382502D+03 -.122405174951325D+03 -.283474019928451D+02 0.104405747104262D+03
 0.265045040411828D+03 0.250951439564070D+03 0.485105318155986D+02 -.701354170914832D+02
 0.103830800976196D+03 0.968333730759750D+02 0.232296469538674D+02 0.294026630169113D+02
 0.202902455014499D+03 -.987721727860161D+02 0.137999865031387D+03 -.636729930296903D+02
 0.229280315705017D+03 -.126607464902704D+03 -.181392641808008D+03 0.603052443707387D+02
0.899117905551D-05 0.000000000000D+00 0.000000000000D+00 0.235517198019D-06 0.000000000000D+00  7 -2 2 23 -13 13 23 21 0 0.63884062D-01 0.48807658D-01 0.11316195D+06 0.11316195D+06 0.11316195D+06 0.11173418D+01  1  2  2  2  7  2        2 0.261373213939D-03 0.100000000000D+01
-.496002636525D-06 0.000000000000D+00 -.345284950050D-07 0.235517198019D-06 0.000000000000D+00  7 -2 2 23 -13 13 23 21 2 0.63884062D-01 0.48807658D-01 0.11316195D+06 0.11316195D+06 0.11316195D+06 0.11173418D+01  1  2  3  2  7  2        2 -.180011595110D-04 0.100000000000D+01
0.572399666647D-06 0.000000000000D+00 0.000000000000D+00 0.235517198019D-06 0.000000000000D+00  7 -2 2 23 -13 13 23 21 2 0.63884062D-01 0.48807658D-01 0.11316195D+06 0.11316195D+06 0.11316195D+06 0.11173418D+01  1  2 15  2  7  2        2 0.207737962352D-04 0.100000000000D+01
-.201387282977D-05 0.000000000000D+00 0.000000000000D+00 0.235517198019D-06 0.000000000000D+00  7 -2 2 23 -13 13 23 21 2 0.63884062D-01 0.48807658D-01 0.11316195D+06 0.11316195D+06 0.11316195D+06 0.11173418D+01  1  2  4  2  7  2        2 -.730884139999D-04 0.100000000000D+01
  </mgrwgt>
  </event>
  <event>
  8     66 0.53686478E-06 0.88448359E+02 0.75467711E-02 0.10215416E+00
       -2 -1    0    0    0  501 0.00000000E+00 0.00000000E+00 0.30483201E+02 0.30484880E+02 0.32000000E+00 0.0000E+00 0.9000E+01
        2 -1    0    0  501    0 0.00000000E+00 0.00000000E+00 -.24110181E+04 0.24110181E+04 0.32000000E+00 0.0000E+00 0.9000E+01
       25  2    1    2    0    0 0.46322114E+02 0.48612972E+02 -.87901679E+03 0.93551214E+03 0.31305510E+03 0.0000E+00 0.0000E+00
       23  2    1    2    0    0 -.46322114E+02 -.48612972E+02 -.15015181E+04 0.15059908E+04 0.94566744E+02 0.0000E+00 0.0000E+00
       23  1    3    3    0    0 0.61302591E+02 0.13543027E+03 -.65788359E+03 0.68060667E+03 0.91188000E+02 0.0000E+00 0.9000E+01
      -13  1    4    4    0    0 -.43647628E+02 -.72418530E+02 -.13444646E+04 0.13471209E+04 0.10565837E+00 0.0000E+00 0.9000E+01
       13  1    4    4    0    0 -.26744863E+01 0.23805558E+02 -.15705343E+03 0.15886991E+03 0.10565837E+00 0.0000E+00 0.9000E+01
       23  1    3    3    0    0 -.14980476E+02 -.86817301E+02 -.22113319E+03 0.25490547E+03 0.91188000E+02 0.0000E+00 0.9000E+01
#aMCatNLO 1  0  0  2  1 0.11677455D+03 0.00000000D+00  -5  7  0 0.00000000D+00 0.00000000D+00 0.00000000D+00 0.00000000D+00 0.00000000D+00
  <mgrwgt>
 0.2967704320D-03    9    2    0
 0.271104451843865D+03 0.000000000000000D+00 0.000000000000000D+00 0.271104451843865D+03
 0.271104451843865D+03 0.000000000000000D+00 0.000000000000000D+00 -.271104451843865D+03
 0.176294375369832D+03 0.613025961018021D+02 0.135430279475032D+03 0.257892721016577D+02
 0.163137930718935D+03 -.436476844380167D+02 -.724186268038958D+02 -.139514897320298D+03
 0.258389072651906D+02 -.267444069676031D+01 0.238056429485546D+02 -.968441322045712D+01
 0.176937690333773D+03 -.149804709670251D+02 -.868172956196907D+02 0.123410038439097D+03
 0.000000000000000D+00 0.000000000000000D+00 -.000000000000000D+00 -.000000000000000D+00
 0.296244939451538D+03 0.000000000000000D+00 0.000000000000000D+00 0.296244939451538D+03
 0.457462577468321D+03 0.000000000000000D+00 0.000000000000000D+00 -.457462577468321D+03
 0.184397276556929D+03 0.286100511490302D+02 0.155574685200804D+03 0.257892721016577D+02
 0.166699720708163D+03 -.735436695233233D+02 -.539973979274027D+02 -.139514897320298D+03
 0.296112821796449D+02 -.770036187176188D+01 0.269025017413234D+02 -.968441322045712D+01
 0.173932858346210D+03 -.467828459985749D+02 -.672213924373541D+02 0.123410038439097D+03
 0.199066379128912D+03 0.994168262446299D+02 -.612583965773705D+02 -.161217638016783D+03
0.283172784128D-05 0.000000000000D+00 0.000000000000D+00 0.179718738270D-09 0.000000000000D+00  7 -2 2 23 -13 13 23 21 0 0.46898540D-02 0.37092598D+00 0.41964180D+05 0.41964180D+05 0.41964180D+05 0.11540491D+01  1  2  2  2  7  2        2 0.290778208527D-03 0.100000000000D+01
-.142298777067D-06 0.000000000000D+00 -.108745805216D-07 0.179718738270D-09 0.000000000000D+00  7 -2 2 23 -13 13 23 21 2 0.46898540D-02 0.37092598D+00 0.41964180D+05 0.41964180D+05 0.41964180D+05 0.11540491D+01  1  2  3  2  7  2        2 -.194607727885D-04 0.100000000000D+01
0.170017603190D-06 0.000000000000D+00 0.000000000000D+00 0.179718738270D-09 0.000000000000D+00  7 -2 2 23 -13 13 23 21 2 0.46898540D-02 0.37092598D+00 0.41964180D+05 0.41964180D+05 0.41964180D+05 0.11540491D+01  1  2 15  2  7  2        2 0.232515978978D-04 0.100000000000D+01
0.117571836371D-05 0.000000000000D+00 0.000000000000D+00 0.179718738270D-09 0.000000000000D+00  7 -2 2 23 -13 13 23 21 2 0.46898540D-02 0.63298892D+00 0.73210071D+05 0.73210071D+05 0.73210071D+05 0.11330079D+01  1  2 12  2  7  2        2 0.110657413475D-04 0.100000000000D+01
-.237543145179D-05 0.000000000000D+00 0.000000000000D+00 0.179718738270D-09 0.000000000000D+00  7 -2 2 23 -13 13 23 21 2 0.46898540D-02 0.37092598D+00 0.41964180D+05 0.41964180D+05 0.41964180D+05 0.11540491D+01  1  2  4  2  7  2        2 -.324863872414D-03 0.100000000000D+01
-.238468117759D-05 0.000000000000D+00 -.697762318146D-06 0.179718738270D-09 0.000000000000D+00  7 -2 2 23 -13 13 23 21 2 0.46898540D-02 0.63488218D+00 0.41964180D+05 0.41964180D+05 0.41964180D+05 0.11540491D+01  1  2  5  2  7  2        2 -.234837249716D-04 0.100000000000D+01
0.248238542564D-05 0.000000000000D+00 0.607844491406D-06 0.179718738270D-09 0.000000000000D+00  7 -2 2 23 -13 13 23 21 2 0.46898540D-02 0.37092598D+00 0.41964180D+05 0.41964180D+05 0.41964180D+05 0.11540491D+01  1  2  6  2  7  2        2 0.339490891893D-03 0.100000000000D+01
0.699475602595D-07 0.000000000000D+00 0.000000000000D+00 0.179718738270D-09 0.000000000000D+00  7 -2 21 23 -13 13 23 -2 2 0.46898540D-02 0.63298892D+00 0.73210071D+05 0.73210071D+05 0.73210071D+05 0.11330079D+01  1  2 12  4  7  2        2 0.118089017675D-07 0.100000000000D+01
-.108497689383D-06 0.000000000000D+00 -.417028168412D-07 0.179718738270D-09 0.000000000000D+00  7 -2 21 23 -13 13 23 -2 2 0.46898540D-02 0.63488218D+00 0.41964180D+05 0.41964180D+05 0.41964180D+05 0.11540491D+01  1  2  5  4  7  2        2 -.194463636123D-07 0.100000000000D+01
  </mgrwgt>
  </event>
  <event>
  8     66 0.53686478E-06 0.31385147E+03 0.75467711E-02 0.93218397E-01
       -2 -1    0    0    0  501 0.00000000E+00 0.00000000E+00 0.16906237E+03 0.16906268E+03 0.32000000E+00 0.0000E+00 0.9000E+01
        2 -1    0    0  501    0 0.00000000E+00 0.00000000E+00 -.15464255E+04 0.15464256E+04 0.32000000E+00 0.0000E+00 0.9000E+01
       25  2    1    2    0    0 -.63717037E+02 0.26393200E+03 -.11455972E+03 0.42053754E+03 0.30001323E+03 0.0000E+00 0.0000E+00
       23  2    1    2    0    0 0.63717037E+02 -.26393200E+03 -.12628034E+04 0.12949507E+04 0.92221618E+02 0.0000E+00 0.0000E+00
       23  1    3    3    0    0 0.30776313E+02 0.91632144E+02 0.56606478E+02 0.14444091E+03 0.91188000E+02 0.0000E+00 0.9000E+01
      -13  1    4    4    0    0 0.56303106E+02 -.10558384E+03 -.70403787E+03 0.71413397E+03 0.10565837E+00 0.0000E+00 0.9000E+01
       13  1    4    4    0    0 0.74139310E+01 -.15834816E+03 -.55876556E+03 0.58081673E+03 0.10565837E+00 0.0000E+00 0.9000E+01
       23  1    3    3    0    0 -.94493350E+02 0.17229986E+03 -.17116620E+03 0.27609664E+03 0.91188000E+02 0.0000E+00 0.9000E+01
#aMCatNLO 1  0  0  2  1 0.40408931D+03 0.00000000D+00  -5  7  0 0.00000000D+00 0.00000000D+00 0.00000000D+00 0.00000000D+00 0.00000000D+00
  <mgrwgt>
 0.1698501039D-03    5    2    0
 0.511314639264042D+03 0.000000000000000D+00 0.000000000000000D+00 0.511314639264042D+03
 0.511314639264042D+03 0.000000000000000D+00 0.000000000000000D+00 -.511314639264042D+03
 0.318545893691463D+03 0.307763131192322D+02 0.916321436913866D+02 0.289504065320336D+03
 0.249721616466172D+03 0.563031702741889D+02 -.105583771640540D+03 -.219186920033363D+03
 0.221743240260599D+03 0.741386688381190D+01 -.158348228450594D+03 -.155051403494639D+03
 0.232618528109849D+03 -.944933502772330D+02 0.172299856399747D+03 0.847342582076669D+02
 0.000000000000000D+00 0.000000000000000D+00 0.000000000000000D+00 -.000000000000000D+00
 0.651315426044136D+03 0.000000000000000D+00 0.000000000000000D+00 0.651315426044136D+03
 0.951857299033680D+03 0.000000000000000D+00 0.000000000000000D+00 -.951857299033680D+03
 0.314177241400862D+03 -.742626043966810D+02 0.326274335717079D+02 0.289504065320336D+03
 0.269546877168319D+03 -.299010436171319D+02 -.154008248701450D+03 -.219186920033363D+03
 0.266517716823941D+03 -.736427589181833D+02 -.203881092096122D+03 -.155051403494639D+03
 0.249330267838957D+03 -.174502088723589D+03 0.127355634479778D+03 0.847342582076669D+02
 0.503600621845737D+03 0.352308495655585D+03 0.197906272746086D+03 -.300541872989544D+03
0.847523539652D-05 0.000000000000D+00 0.000000000000D+00 0.995032351284D-06 0.000000000000D+00  7 -2 2 23 -13 13 23 21 0 0.26009622D-01 0.23791165D+00 0.98502745D+05 0.98502745D+05 0.98502745D+05 0.11222601D+01  1  2  2  2  7  2        2 0.171130399213D-03 0.100000000000D+01
-.334477114170D-06 0.000000000000D+00 -.325471355034D-07 0.995032351284D-06 0.000000000000D+00  7 -2 2 23 -13 13 23 21 2 0.26009622D-01 0.23791165D+00 0.98502745D+05 0.98502745D+05 0.98502745D+05 0.11222601D+01  1  2  3  2  7  2        2 -.850606763829D-05 0.100000000000D+01
0.486949511057D-06 0.000000000000D+00 0.000000000000D+00 0.995032351284D-06 0.000000000000D+00  7 -2 2 23 -13 13 23 21 2 0.26009622D-01 0.23791165D+00 0.98502745D+05 0.98502745D+05 0.98502745D+05 0.11222601D+01  1  2 15  2  7  2        2 0.123835841139D-04 0.100000000000D+01
-.153397718918D-05 0.000000000000D+00 -.228852486755D-05 0.995032351284D-06 0.000000000000D+00  7 -2 2 23 -13 13 23 21 2 0.26009622D-01 0.47698278D+00 0.98502745D+05 0.98502745D+05 0.98502745D+05 0.11222601D+01  1  2  5  2  7  2        2 -.516251637839D-05 0.100000000000D+01
0.221357992172D-07 0.000000000000D+00 -.172224877151D-06 0.995032351284D-06 0.000000000000D+00  7 -2 21 23 -13 13 23 -2 2 0.26009622D-01 0.47698278D+00 0.98502745D+05 0.98502745D+05 0.98502745D+05 0.11222601D+01  1  2  5  4  7  2        2 0.470456904743D-08 0.100000000000D+01
  </mgrwgt>
  </event>
  <event>
  8     66 0.53686478E-06 0.67512819E+02 0.75467711E-02 0.10107370E+00
       -2 -1    0    0    0  501 0.00000000E+00 0.00000000E+00 0.35437279E+03 0.35437294E+03 0.32000000E+00 0.0000E+00 0.9000E+01
        2 -1    0    0  501    0 0.00000000E+00 0.00000000E+00 -.29124133E+03 0.29124151E+03 0.32000000E+00 0.0000E+00 0.9000E+01
       25  2    1    2    0    0 0.70999271E+02 -.19240281E+03 0.16884093E+03 0.40164577E+03 0.30125126E+03 0.0000E+00 0.0000E+00
       23  2    1    2    0    0 -.70999271E+02 0.19240281E+03 -.10570947E+03 0.24396868E+03 0.79287359E+02 0.0000E+00 0.0000E+00
       23  1    3    3    0    0 0.99883760E+01 -.23017617E+03 0.12576382E+03 0.27787160E+03 0.91188000E+02 0.0000E+00 0.9000E+01
      -13  1    4    4    0    0 -.34161982E+02 0.17627572E+03 -.83358670E+02 0.19796174E+03 0.10565837E+00 0.0000E+00 0.9000E+01
       13  1    4    4    0    0 -.36837289E+02 0.16127089E+02 -.22350802E+02 0.46006938E+02 0.10565837E+00 0.0000E+00 0.9000E+01
       23  1    3    3    0    0 0.61010895E+02 0.37773356E+02 0.43077114E+02 0.12377417E+03 0.91188000E+02 0.0000E+00 0.9000E+01
#aMCatNLO 1  0  0  1  2 0.41006817D+01 0.00000000D+00  -5  7  0 0.00000000D+00 0.00000000D+00 0.00000000D+00 0.00000000D+00 0.00000000D+00
  <mgrwgt>
 0.1121512479D-02   11    2    0
 0.321260187487263D+03 0.000000000000000D+00 0.000000000000000D+00 0.321260187487263D+03
 0.321260187487263D+03 0.000000000000000D+00 0.000000000000000D+00 -.321260187487263D+03
 0.266852649807225D+03 0.998837738530030D+01 -.230176167286305D+03 0.990668950544685D+02
 0.207105800111687D+03 -.341619783585607D+02 0.176276009197007D+03 -.103211144049992D+03
 0.484243037492593D+02 -.368372931341993D+02 0.161268053034849D+02 -.269787542123259D+02
 0.120137621306354D+03 0.610108941074597D+02 0.377733527858139D+02 0.311230032078493D+02
 0.000000000000000D+00 0.000000000000000D+00 0.000000000000000D+00 0.000000000000000D+00
 0.324597476485365D+03 0.000000000000000D+00 0.000000000000000D+00 0.324597476485365D+03
 0.322528879109208D+03 0.000000000000000D+00 0.000000000000000D+00 -.322528879109208D+03
 0.268280549147731D+03 0.962789861872566D+01 -.231845326844132D+03 0.990668950544685D+02
 0.206056370099805D+03 -.344402944671557D+02 0.174987295309160D+03 -.103211144049992D+03
 0.483743146528466D+02 -.369024990430009D+02 0.158248761026694D+02 -.269787542123259D+02
 0.119822226588449D+03 0.608492513049473D+02 0.370248825462728D+02 0.311230032078493D+02
 0.459289510574134D+01 0.865643586483666D+00 0.400827288602945D+01 0.206859737615699D+01
0.191544710480D-04 0.000000000000D+00 0.000000000000D+00 0.517560207342D-09 0.000000000000D+00  7 -2 2 23 -13 13 23 21 0 0.54518916D-01 0.44806384D-01 0.85143451D+05 0.85143451D+05 0.85143451D+05 0.11274994D+01  1  2  2  1  7  1       -2 0.847648816583D-03 0.100000000000D+01
-.105216232022D-05 0.000000000000D+00 -.735582123125D-07 0.517560207342D-09 0.000000000000D+00  7 -2 2 23 -13 13 23 21 2 0.54518916D-01 0.44806384D-01 0.85143451D+05 0.85143451D+05 0.85143451D+05 0.11274994D+01  1  2  3  1  7  1       -2 -.591917508404D-04 0.100000000000D+01
0.117207154313D-05 0.000000000000D+00 0.000000000000D+00 0.517560207342D-09 0.000000000000D+00  7 -2 2 23 -13 13 23 21 2 0.54518916D-01 0.44806384D-01 0.85143451D+05 0.85143451D+05 0.85143451D+05 0.11274994D+01  1  2 15  1  7  1       -2 0.659375130766D-04 0.100000000000D+01
0.117297448271D-05 0.000000000000D+00 0.000000000000D+00 0.517560207342D-09 0.000000000000D+00  7 -2 2 23 -13 13 23 21 2 0.55192139D-01 0.44806384D-01 0.86326251D+05 0.86326251D+05 0.86326251D+05 0.11270002D+01  1  2 12  1  7  1       -2 0.643230101388D-04 0.100000000000D+01
-.308579285900D-03 0.000000000000D+00 0.000000000000D+00 0.517560207342D-09 0.000000000000D+00  7 -2 2 23 -13 13 23 21 2 0.54518916D-01 0.44806384D-01 0.85143451D+05 0.85143451D+05 0.85143451D+05 0.11274994D+01  1  2  4  1  7  1       -2 -.173598197298D-01 0.100000000000D+01
-.164643666895D-02 0.000000000000D+00 -.172923481787D-03 0.517560207342D-09 0.000000000000D+00  7 -2 2 23 -13 13 23 21 2 0.55265282D-01 0.44806384D-01 0.85143451D+05 0.85143451D+05 0.85143451D+05 0.11274994D+01  1  2  5  1  7  1       -2 -.901361998888D-01 0.100000000000D+01
0.164865151857D-02 0.000000000000D+00 0.172907497683D-03 0.517560207342D-09 0.000000000000D+00  7 -2 2 23 -13 13 23 21 2 0.54518916D-01 0.44806384D-01 0.85143451D+05 0.85143451D+05 0.85143451D+05 0.11274994D+01  1  2  6  1  7  1       -2 0.927485883448D-01 0.100000000000D+01
0.307468540831D-03 0.000000000000D+00 0.000000000000D+00 0.517560207342D-09 0.208509955940D-09  7 -2 2 23 -13 13 23 21 2 0.55085265D-01 0.44983329D-01 0.86326251D+05 0.86326251D+05 0.86326251D+05 0.11270002D+01  1  2 11  1  7  1       -2 0.168537783485D-01 0.100000000000D+01
0.998121138481D-07 0.000000000000D+00 0.000000000000D+00 0.517560207342D-09 0.000000000000D+00  7 21 2 23 -13 13 23 2 2 0.55192139D-01 0.44806384D-01 0.86326251D+05 0.86326251D+05 0.86326251D+05 0.11270002D+01  1  2 12  3  7  1       -2 0.581743151711D-04 0.100000000000D+01
-.410143445512D-05 0.000000000000D+00 -.432007169342D-06 0.517560207342D-09 0.000000000000D+00  7 21 2 23 -13 13 23 2 2 0.55265282D-01 0.44806384D-01 0.85143451D+05 0.85143451D+05 0.85143451D+05 0.11274994D+01  1  2  5  3  7  1       -2 -.238694693259D-02 0.100000000000D+01
0.729622148066D-06 0.000000000000D+00 0.000000000000D+00 0.517560207342D-09 0.400475671773D-12  7 21 2 23 -13 13 23 2 2 0.55085265D-01 0.44983329D-01 0.86326251D+05 0.86326251D+05 0.86326251D+05 0.11270002D+01  1  2 11  3  7  1       -2 0.425220432858D-03 0.100000000000D+01
  </mgrwgt>
  </event>
  <event>
  8     66 0.53686478E-06 0.24264468E+03 0.75467711E-02 0.10244160E+00
       -2 -1    0    0    0  501 0.00000000E+00 0.00000000E+00 0.27629577E+03 0.27629596E+03 0.32000000E+00 0.0000E+00 0.9000E+01
        2 -1    0    0  501    0 0.00000000E+00 0.00000000E+00 -.35358241E+03 0.35358255E+03 0.32000000E+00 0.0000E+00 0.9000E+01
       25  2    1    2    0    0 -.14484661E+03 -.74674981E+02 -.21665459E+03 0.40384175E+03 0.29931932E+03 0.0000E+00 0.0000E+00
       23  2    1    2    0    0 0.14484661E+03 0.74674981E+02 0.13936795E+03 0.22603676E+03 0.71500317E+02 0.0000E+00 0.0000E+00
       23  1    3    3    0    0 0.45160916E+02 -.35530469E+02 -.13890345E+03 0.17581622E+03 0.91188000E+02 0.0000E+00 0.9000E+01
      -13  1    4    4    0    0 0.12008094E+03 0.65112610E+02 0.14466569E+03 0.19896546E+03 0.10565837E+00 0.0000E+00 0.9000E+01
       13  1    4    4    0    0 0.24765677E+02 0.95623708E+01 -.52977375E+01 0.27071293E+02 0.10565837E+00 0.0000E+00 0.9000E+01
       23  1    3    3    0    0 -.19000753E+03 -.39144512E+02 -.77751136E+02 0.22802554E+03 0.91188000E+02 0.0000E+00 0.9000E+01
#aMCatNLO 1  0  0  1  2 0.37795816D+02 0.00000000D+00  -5  7  0 0.00000000D+00 0.00000000D+00 0.00000000D+00 0.00000000D+00 0.00000000D+00
  <mgrwgt>
 0.1041864021D-02    4    2    0
 0.312559479513886D+03 0.000000000000000D+00 0.000000000000000D+00 0.312559479513886D+03
 0.312559479513886D+03 0.000000000000000D+00 0.000000000000000D+00 -.312559479513886D+03
 0.159981512977111D+03 0.451609151138618D+02 -.355304692797788D+02 -.118223985084595D+03
 0.218366527322288D+03 0.120081148035103D+03 0.651127321981604D+02 0.170366634782336D+03
 0.266220026096341D+02 0.247654678121367D+02 0.956224932822267D+01 -.199148557069649D+01
 0.220148916118740D+03 -.190007530961101D+03 -.391445122466043D+02 -.501511641270443D+02
 0.000000000000000D+00 -.000000000000000D+00 -.000000000000000D+00 -.000000000000000D+00
 0.319680076232759D+03 0.000000000000000D+00 0.000000000000000D+00 0.319680076232759D+03
 0.367655586023053D+03 0.000000000000000D+00 0.000000000000000D+00 -.367655586023053D+03
 0.161801295480773D+03 0.539168265883010D+02 -.313125060737844D+02 -.118223985084595D+03
 0.227014797734519D+03 0.132200252449832D+03 0.709508378779812D+02 0.170366634782336D+03
 0.282705315021973D+02 0.262591279973847D+02 0.102817864914326D+02 -.199148557069649D+01
 0.209173893454601D+03 -.178325388796338D+03 -.335169032921269D+02 -.501511641270443D+02
 0.610751440837213D+02 -.340508182391790D+02 -.164032150035024D+02 -.479755097902939D+02
0.225799962377D-04 0.000000000000D+00 0.000000000000D+00 0.100590097081D-08 0.000000000000D+00  7 -2 2 23 -13 13 23 21 0 0.42507067D-01 0.54397319D-01 0.58876441D+05 0.58876441D+05 0.58876441D+05 0.11411046D+01  1  2  2  1  7  1       -2 0.131289033164D-02 0.100000000000D+01
-.115666453496D-05 0.000000000000D+00 -.867131310021D-07 0.100590097081D-08 0.000000000000D+00  7 -2 2 23 -13 13 23 21 2 0.42507067D-01 0.54397319D-01 0.58876441D+05 0.58876441D+05 0.58876441D+05 0.11411046D+01  1  2  3  1  7  1       -2 -.875715257629D-04 0.100000000000D+01
0.145192274973D-05 0.000000000000D+00 0.000000000000D+00 0.100590097081D-08 0.000000000000D+00  7 -2 2 23 -13 13 23 21 2 0.42507067D-01 0.54397319D-01 0.58876441D+05 0.58876441D+05 0.58876441D+05 0.11411046D+01  1  2 15  1  7  1       -2 0.109925641049D-03 0.100000000000D+01
-.387503507361D-05 0.000000000000D+00 0.000000000000D+00 0.100590097081D-08 0.000000000000D+00  7 -2 2 23 -13 13 23 21 2 0.42507067D-01 0.54397319D-01 0.58876441D+05 0.58876441D+05 0.58876441D+05 0.11411046D+01  1  2  4  1  7  1       -2 -.293380425806D-03 0.100000000000D+01
  </mgrwgt>
  </event>
  <event>
  8     66 0.53686478E-06 0.79626634E+02 0.75467711E-02 0.10488133E+00
       -2 -1    0    0    0  501 0.00000000E+00 0.00000000E+00 0.43746635E+03 0.43746647E+03 0.32000000E+00 0.0000E+00 0.9000E+01
        2 -1    0    0  501    0 0.00000000E+00 0.00000000E+00 -.28292781E+03 0.28292799E+03 0.32000000E+00 0.0000E+00 0.9000E+01
       25  2    1    2    0    0 -.84955188E+02 0.47551167E+02 0.35796638E+03 0.47704321E+03 0.29991966E+03 0.0000E+00 0.0000E+00
       23  2    1    2    0    0 0.84955188E+02 -.47551167E+02 -.20342784E+03 0.24335125E+03 0.91424543E+02 0.0000E+00 0.0000E+00
       23  1    3    3    0    0 -.11746951E+02 0.11909663E+03 0.88098958E+02 0.17435216E+03 0.91188000E+02 0.0000E+00 0.9000E+01
      -13  1    4    4    0    0 0.79896750E+02 -.71584691E+02 -.17917927E+03 0.20883745E+03 0.10565837E+00 0.0000E+00 0.9000E+01
       13  1    4    4    0    0 0.50584386E+01 0.24033524E+02 -.24248571E+02 0.34513800E+02 0.10565837E+00 0.0000E+00 0.9000E+01
       23  1    3    3    0    0 -.73208237E+02 -.71545458E+02 0.26986742E+03 0.30269106E+03 0.91188000E+02 0.0000E+00 0.9000E+01
#aMCatNLO 1  0  0  1  2 0.21938368D+02 0.00000000D+00  -5  7  0 0.00000000D+00 0.00000000D+00 0.00000000D+00 0.00000000D+00 0.00000000D+00
  <mgrwgt>
 0.2631800663D-03    9    2    0
 0.351811747712953D+03 0.000000000000000D+00 0.000000000000000D+00 0.351811747712953D+03
 0.351811747712953D+03 0.000000000000000D+00 0.000000000000000D+00 -.351811747712953D+03
 0.159158477905177D+03 -.117469511122051D+02 0.119096625076333D+03 0.519054214903166D+02
 0.253168983729612D+03 0.798968496337361D+02 -.715848180608452D+02 -.229317774200964D+03
 0.406619304318049D+02 0.505833872891251D+01 0.240336510682679D+02 -.324066260519862D+02
 0.250634103359312D+03 -.732082372504435D+02 -.715454580837561D+02 0.209818978762634D+03
 0.000000000000000D+00 -.000000000000000D+00 -.000000000000000D+00 0.000000000000000D+00
 0.364593278461455D+03 0.000000000000000D+00 0.000000000000000D+00 0.364593278461455D+03
 0.361524152536800D+03 0.000000000000000D+00 0.000000000000000D+00 -.361524152536800D+03
 0.159250146254583D+03 -.681017682178637D+01 0.119602702518273D+03 0.519054214903166D+02
 0.255542530173146D+03 0.877841797263251D+02 -.707762739382708D+02 -.229317774200964D+03
 0.409149990683432D+02 0.632315022486484D+01 0.241633091260913D+02 -.324066260519862D+02
 0.248257746443641D+03 -.654731563797354D+02 -.707525212975140D+02 0.209818978762634D+03
 0.221520090585420D+02 -.218239967496681D+02 -.223721640857977D+01 0.306912592465435D+01
0.435936468523D-05 0.000000000000D+00 0.000000000000D+00 0.906329241115D-06 0.000000000000D+00  7 -2 2 23 -13 13 23 21 0 0.67302539D-01 0.43527379D-01 0.43970115D+05 0.43970115D+05 0.43970115D+05 0.11522372D+01  1  2  2  1  7  1       -2 0.130087712477D-03 0.100000000000D+01
-.163338757747D-06 0.000000000000D+00 -.167411082383D-07 0.906329241115D-06 0.000000000000D+00  7 -2 2 23 -13 13 23 21 2 0.67302539D-01 0.43527379D-01 0.43970115D+05 0.43970115D+05 0.43970115D+05 0.11522372D+01  1  2  3  1  7  1       -2 -.647121934791D-05 0.100000000000D+01
0.271502658884D-06 0.000000000000D+00 0.000000000000D+00 0.906329241115D-06 0.000000000000D+00  7 -2 2 23 -13 13 23 21 2 0.67302539D-01 0.43527379D-01 0.43970115D+05 0.43970115D+05 0.43970115D+05 0.11522372D+01  1  2 15  1  7  1       -2 0.107564994580D-04 0.100000000000D+01
0.943299715447D-05 0.000000000000D+00 0.000000000000D+00 0.906329241115D-06 0.000000000000D+00  7 -2 2 23 -13 13 23 21 2 0.70647117D-01 0.43527379D-01 0.49045902D+05 0.49045902D+05 0.49045902D+05 0.11480321D+01  1  2 12  1  7  1       -2 0.334432418611D-03 0.100000000000D+01
-.794568714132D-05 0.000000000000D+00 0.000000000000D+00 0.906329241115D-06 0.000000000000D+00  7 -2 2 23 -13 13 23 21 2 0.67302539D-01 0.43527379D-01 0.43970115D+05 0.43970115D+05 0.43970115D+05 0.11522372D+01  1  2  4  1  7  1       -2 -.314795368047D-03 0.100000000000D+01
-.467072145741D-04 0.000000000000D+00 -.917909692012D-05 0.906329241115D-06 0.000000000000D+00  7 -2 2 23 -13 13 23 21 2 0.71386922D-01 0.43527379D-01 0.43970115D+05 0.43970115D+05 0.43970115D+05 0.11522372D+01  1  2  5  1  7  1       -2 -.163347485031D-02 0.100000000000D+01
0.471820127393D-04 0.000000000000D+00 0.916318877624D-05 0.906329241115D-06 0.000000000000D+00  7 -2 2 23 -13 13 23 21 2 0.67302539D-01 0.43527379D-01 0.43970115D+05 0.43970115D+05 0.43970115D+05 0.11522372D+01  1  2  6  1  7  1       -2 0.186927559584D-02 0.100000000000D+01
0.112574893112D-06 0.000000000000D+00 0.000000000000D+00 0.906329241115D-06 0.000000000000D+00  7 21 2 23 -13 13 23 2 2 0.70647117D-01 0.43527379D-01 0.49045902D+05 0.49045902D+05 0.49045902D+05 0.11480321D+01  1  2 12  3  7  1       -2 0.414020778215D-04 0.100000000000D+01
-.462226423645D-06 0.000000000000D+00 -.930175833964D-07 0.906329241115D-06 0.000000000000D+00  7 21 2 23 -13 13 23 2 2 0.71386922D-01 0.43527379D-01 0.43970115D+05 0.43970115D+05 0.43970115D+05 0.11522372D+01  1  2  5  3  7  1       -2 -.168032800205D-03 0.100000000000D+01
  </mgrwgt>
  </event>
  <event>
  8     66 0.53686478E-06 0.26307034E+03 0.75467711E-02 0.87989858E-01
       -2 -1    0    0    0  501 0.00000000E+00 0.00000000E+00 0.53106681E+03 0.53106690E+03 0.32000000E+00 0.0000E+00 0.9000E+01
        2 -1    0    0  501    0 0.00000000E+00 0.00000000E+00 -.16595135E+04 0.16595135E+04 0.32000000E+00 0.0000E+00 0.9000E+01
       25  2    1    2    0    0 -.63820164E+03 -.14487694E+03 -.13208143E+04 0.15042299E+04 0.29977767E+03 0.0000E+00 0.0000E+00
       23  2    1    2    0    0 0.63820164E+03 0.14487694E+03 0.19236762E+03 0.68635047E+03 0.76032835E+02 0.0000E+00 0.0000E+00
       23  1    3    3    0    0 -.50218928E+03 -.14781858E+02 -.92699113E+03 0.10583196E+04 0.91188000E+02 0.0000E+00 0.9000E+01
      -13  1    4    4    0    0 0.31961116E+03 0.73801571E+02 0.13599888E+03 0.35509671E+03 0.10565837E+00 0.0000E+00 0.9000E+01
       13  1    4    4    0    0 0.31859049E+03 0.71075372E+02 0.56368741E+02 0.33125376E+03 0.10565837E+00 0.0000E+00 0.9000E+01
       23  1    3    3    0    0 -.13601236E+03 -.13009509E+03 -.39382315E+03 0.44591033E+03 0.91188000E+02 0.0000E+00 0.9000E+01
#aMCatNLO 1  0  0  2  1 0.43842689D+03 0.00000000D+00  -5  7  0 0.00000000D+00 0.00000000D+00 0.00000000D+00 0.00000000D+00 0.00000000D+00
  <mgrwgt>
 0.1418340686D-02    7    2    0
 0.938782538382720D+03 0.000000000000000D+00 0.000000000000000D+00 0.938782538382720D+03
 0.938782538382720D+03 0.000000000000000D+00 0.000000000000000D+00 -.938782538382720D+03
 0.677619195219059D+03 -.502189280223718D+03 -.147818575952627D+02 -.445465987365750D+03
 0.496033747745217D+03 0.319611158049020D+03 0.738015765729301D+02 0.372090733354217D+03
 0.420356581188974D+03 0.318590485598641D+03 0.710753671051603D+02 0.264854771574483D+03
 0.283555552612191D+03 -.136012363423943D+03 -.130095086082828D+03 -.191479517562950D+03
 0.000000000000000D+00 -.000000000000000D+00 -.000000000000000D+00 -.000000000000000D+00
 0.993973380047645D+03 0.000000000000000D+00 0.000000000000000D+00 0.993973380047645D+03
 0.256925479601630D+04 0.000000000000000D+00 0.000000000000000D+00 -.256925479601630D+04
 0.661167533835796D+03 -.460950083450729D+03 0.133836957233538D+03 -.445465987365750D+03
 0.545938558875401D+03 0.351707458417242D+03 0.189471000188828D+03 0.372090733354217D+03
 0.467548444176292D+03 0.345940988305382D+03 0.169641770316732D+03 0.264854771574483D+03
 0.253419309882971D+03 -.119471706472391D+03 -.704854664735647D+02 -.191479517562950D+03
 0.163515432929348D+04 -.117226656799504D+03 -.422464261265533D+03 -.157528141596865D+04
0.815420552123D-03 0.000000000000D+00 0.000000000000D+00 0.356351717865D-07 0.000000000000D+00  7 -2 2 23 -13 13 23 21 0 0.81702595D-01 0.25530977D+00 0.47210531D+06 0.47210531D+06 0.47210531D+06 0.10702769D+01  1  2  2  2  7  2        2 0.142274202766D-02 0.100000000000D+01
-.399358590816D-04 0.000000000000D+00 -.313142962532D-05 0.356351717865D-07 0.000000000000D+00  7 -2 2 23 -13 13 23 21 2 0.81702595D-01 0.25530977D+00 0.47210531D+06 0.47210531D+06 0.47210531D+06 0.10702769D+01  1  2  3  2  7  2        2 -.798178112422D-04 0.100000000000D+01
0.489884405814D-04 0.000000000000D+00 0.000000000000D+00 0.356351717865D-07 0.000000000000D+00  7 -2 2 23 -13 13 23 21 2 0.81702595D-01 0.25530977D+00 0.47210531D+06 0.47210531D+06 0.47210531D+06 0.10702769D+01  1  2 15  2  7  2        2 0.979107547276D-04 0.100000000000D+01
0.709400337947D-03 0.000000000000D+00 0.000000000000D+00 0.356351717865D-07 0.000000000000D+00  7 -2 2 23 -13 13 23 21 2 0.81702595D-01 0.69139017D+00 0.88152828D+06 0.88152828D+06 0.88152828D+06 0.10515290D+01  1  2 12  2  7  2        2 0.145465486307D-04 0.100000000000D+01
-.191556264725D-02 0.000000000000D+00 -.210764143832D-03 0.356351717865D-07 0.000000000000D+00  7 -2 2 23 -13 13 23 21 2 0.81702595D-01 0.70234154D+00 0.47210531D+06 0.47210531D+06 0.47210531D+06 0.10702769D+01  1  2  5  2  7  2        2 -.370174038126D-04 0.100000000000D+01
0.788747494977D-04 0.000000000000D+00 0.000000000000D+00 0.356351717865D-07 0.000000000000D+00  7 -2 21 23 -13 13 23 -2 2 0.81702595D-01 0.69139017D+00 0.88152828D+06 0.88152828D+06 0.88152828D+06 0.10515290D+01  1  2 12  4  7  2        2 0.178597284571D-07 0.100000000000D+01
-.204950864594D-03 0.000000000000D+00 -.238726243309D-04 0.356351717865D-07 0.000000000000D+00  7 -2 21 23 -13 13 23 -2 2 0.81702595D-01 0.70234154D+00 0.47210531D+06 0.47210531D+06 0.47210531D+06 0.10702769D+01  1  2  5  4  7  2        2 -.412899638282D-07 0.100000000000D+01
  </mgrwgt>
  </event>
  <event>
  9     66 0.53686478E-06 0.21691081E+03 0.75467711E-02 0.10462747E+00
       21 -1    0    0  502  501 0.00000000E+00 0.00000000E+00 0.64407027E+02 0.64411393E+02 0.75000000E+00 0.0000E+00 0.9000E+01
        2 -1    0    0  501    0 0.00000000E+00 0.00000000E+00 -.21965087E+04 0.21965087E+04 0.32000000E+00 0.0000E+00 0.9000E+01
       25  2    1    2    0    0 0.96176167E+02 -.29523410E+02 -.17851249E+04 0.18133990E+04 0.30269373E+03 0.0000E+00 0.0000E+00
       23  2    1    2    0    0 -.10048792E+03 0.11876499E+02 -.47255313E+02 0.14724948E+03 0.95971209E+02 0.0000E+00 0.0000E+00
       23  1    3    3    0    0 0.69129461E+02 -.12810755E+03 -.76051466E+03 0.77967187E+03 0.91188000E+02 0.0000E+00 0.9000E+01
      -11  1    4    4    0    0 0.11187133E+02 -.27066040E+01 0.14731388E+02 0.18694690E+02 0.51099893E-03 0.0000E+00 0.9000E+01
       11  1    4    4    0    0 -.11167505E+03 0.14583103E+02 -.61986701E+02 0.12855479E+03 0.51099893E-03 0.0000E+00 0.9000E+01
       23  1    3    3    0    0 0.27046707E+02 0.98584142E+02 -.10246102E+04 0.10337271E+04 0.91188000E+02 0.0000E+00 0.9000E+01
        2  1    1    2  502    0 0.43117500E+01 0.17646911E+02 -.29972143E+03 0.30027162E+03 0.32000000E+00 0.0000E+00 0.9000E+01
#aMCatNLO 2  0  0  1  1 0.18166030D+02 0.00000000D+00  -5  7  0 0.00000000D+00 0.00000000D+00 0.00000000D+00 0.00000000D+00 0.00000000D+00
  <mgrwgt>
 0.4726996849D-04    1    2    0
 0.348638487895488D+03 0.000000000000000D+00 0.000000000000000D+00 0.348638487895488D+03
 0.348638487895488D+03 0.000000000000000D+00 0.000000000000000D+00 -.348638487895488D+03
 0.190953980784896D+03 0.703185598888930D+02 -.123240866595922D+03 -.895274280287142D+02
 0.912803585882891D+02 0.117513898447088D+02 -.397243367417038D+00 0.905198922802683D+02
 0.198261798080583D+03 -.110448481676165D+03 0.196031407975996D+02 0.163476574298721D+03
 0.216780838337209D+03 0.283785319425630D+02 0.104034969165740D+03 -.164469038550275D+03
 0.000000000000000D+00 0.000000000000000D+00 0.000000000000000D+00 -.000000000000000D+00
 0.350252269652419D+03 0.000000000000000D+00 0.000000000000000D+00 0.350252269652419D+03
 0.403923698585693D+03 0.000000000000000D+00 0.000000000000000D+00 -.403923698585693D+03
 0.193702965721465D+03 0.691294605098069D+02 -.128107552101652D+03 -.895274280287142D+02
 0.912487180975251D+02 0.111871332682358D+02 -.270660400668040D+01 0.905198922802683D+02
 0.198515929086717D+03 -.111675050319459D+03 0.145831029916024D+02 0.163476574298721D+03
 0.214045960889442D+03 0.270467065742524D+02 0.985841419850030D+02 -.164469038550275D+03
 0.566623944429631D+02 0.431174996716339D+01 0.176469111317268D+02 -.536714289332745D+02
0.554863028918D-07 0.000000000000D+00 0.000000000000D+00 0.187859458604D-08 0.376385102624D-13  7 21 2 23 -11 11 23 2 2 0.99090983D-02 0.33792432D+00 0.50863535D+05 0.50863535D+05 0.50863535D+05 0.11466418D+01  1  2  1  3  7  1       -2 0.472699684886D-04 0.100000000000D+01
  </mgrwgt>
  </event>
  <event>
  9     66 -.53686478E-06 0.17356096E+03 0.75467711E-02 0.10759294E+00
       -4 -1    0    0    0  502 0.00000000E+00 0.00000000E+00 0.21374128E+03 0.21374690E+03 0.15500000E+01 0.0000E+00 0.9000E+01
        4 -1    0    0  501    0 0.00000000E+00 0.00000000E+00 -.58246755E+03 0.58246961E+03 0.15500000E+01 0.0000E+00 0.9000E+01
       25  2    1    2    0    0 0.30457223E+02 0.46995577E+02 -.25182172E+03 0.39588608E+03 0.30029216E+03 0.0000E+00 0.0000E+00
       23  2    1    2    0    0 -.29304544E+02 -.25412228E+02 -.24783668E+03 0.26762416E+03 0.93247692E+02 0.0000E+00 0.0000E+00
       23  1    3    3    0    0 0.23598352E+02 0.13842723E+03 -.94580405E+02 0.19230102E+03 0.91188000E+02 0.0000E+00 0.9000E+01
      -11  1    4    4    0    0 0.46620923E+01 -.99939617E+01 -.22194016E+03 0.22221397E+03 0.51099893E-03 0.0000E+00 0.9000E+01
       11  1    4    4    0    0 -.33966636E+02 -.15418266E+02 -.25896521E+02 0.45410187E+02 0.51099893E-03 0.0000E+00 0.9000E+01
       23  1    3    3    0    0 0.68588708E+01 -.91431652E+02 -.15724131E+03 0.20358505E+03 0.91188000E+02 0.0000E+00 0.9000E+01
       21  1    1    2  501  502 -.11526797E+01 -.21583349E+02 0.13093213E+03 0.13270628E+03 0.75000000E+00 0.0000E+00 0.9000E+01
#aMCatNLO 2  0  0  1  2 0.21614107D+02 0.00000000D+00  -5  7  0 0.00000000D+00 0.00000000D+00 0.00000000D+00 0.00000000D+00 0.00000000D+00
  <mgrwgt>
 -.4952134148D-06    2    2    0
 0.218013844931173D+03 0.000000000000000D+00 0.000000000000000D+00 0.218013844931173D+03
 0.218013844931173D+03 0.000000000000000D+00 0.000000000000000D+00 -.218013844931173D+03
 0.177330206239031D+03 0.231210157906544D+02 0.129489337153259D+03 0.763457981371288D+02
 0.843004002512891D+02 0.444014601303321D+01 -.141497930977373D+02 -.829856972086257D+02
 0.402787265441554D+02 -.340718604272085D+02 -.173885429689736D+02 0.126143851401417D+02
 0.134118356827869D+03 0.651069862352090D+01 -.979510010865482D+02 -.597448606864479D+01
 0.000000000000000D+00 -.000000000000000D+00 -.000000000000000D+00 0.000000000000000D+00
 0.569496566067851D+03 0.000000000000000D+00 0.000000000000000D+00 0.569496566067851D+03
 0.218614074243975D+03 0.000000000000000D+00 0.000000000000000D+00 -.218614074243975D+03
 0.184018781746145D+03 0.235983525371590D+02 0.138427228375316D+03 0.763457981371288D+02
 0.837152334772899D+02 0.466209221637833D+01 -.999396173303843D+01 -.829856972086257D+02
 0.393773791633048D+02 -.339666358725484D+02 -.154182659468745D+02 0.126143851401417D+02
 0.129451677746518D+03 0.685887079768790D+01 -.914316517130935D+02 -.597448606864479D+01
 0.351547568178570D+03 -.115267967867685D+01 -.215833489823096D+02 0.350882491823876D+03
-.244231962849D-04 0.000000000000D+00 0.000000000000D+00 0.384773515069D-07 0.000000000000D+00  7 -4 4 23 -11 11 23 21 2 0.32868538D-01 0.89364783D-01 0.33615794D+05 0.33615794D+05 0.33615794D+05 0.11627780D+01  1  2 13  1  7  1       -4 -.677233373145D-04 0.100000000000D+01
0.244436417624D-04 0.000000000000D+00 0.000000000000D+00 0.384773515069D-07 0.887463720679D-09  7 -4 4 23 -11 11 23 21 2 0.32883805D-01 0.89610820D-01 0.33615794D+05 0.33615794D+05 0.33615794D+05 0.11627780D+01  1  2  1  1  7  1       -4 0.672281238997D-04 0.100000000000D+01
  </mgrwgt>
  </event>
  <event>
  7     66 0.53686478E-06 0.69356901E+03 0.75467711E-02 0.88987981E-01
       -2 -1    0    0    0  501 0.00000000E+00 0.00000000E+00 0.39274963E+03 0.39274976E+03 0.32000000E+00 0.0000E+00 0.9000E+01
        2 -1    0    0  501    0 0.00000000E+00 0.00000000E+00 -.13071652E+04 0.13071652E+04 0.32000000E+00 0.0000E+00 0.9000E+01
       23  2    1    2    0    0 0.55929928E+03 0.36952632E+03 -.49810771E+03 0.84067763E+03 0.96240280E+02 0.0000E+00 0.0000E+00
       23  1    1    2    0    0 -.45918061E+03 -.23136399E+03 -.17671633E+03 0.55128944E+03 0.91188000E+02 0.0000E+00 0.9000E+01
      -11  1    3    3    0    0 0.16927952E+03 0.13362350E+03 -.11040660E+03 0.24228168E+03 0.51099893E-03 0.0000E+00 0.9000E+01
       11  1    3    3    0    0 0.39001976E+03 0.23590282E+03 -.38770111E+03 0.59839595E+03 0.51099893E-03 0.0000E+00 0.9000E+01
       23  1    1    2    0    0 -.10011867E+03 -.13816233E+03 -.23959152E+03 0.30794792E+03 0.91188000E+02 0.0000E+00 0.9000E+01
#aMCatNLO 1  0  0  2  2 0.28700230D+03 0.00000000D+00  -5  7  0 0.00000000D+00 0.00000000D+00 0.00000000D+00 0.00000000D+00 0.00000000D+00
  <mgrwgt>
 0.3695720490D-03    7    2    0
 0.716511543779124D+03 0.000000000000000D+00 0.000000000000000D+00 0.716511543779124D+03
 0.716511543779124D+03 0.000000000000000D+00 0.000000000000000D+00 -.716511543779124D+03
 0.541200648702984D+03 -.459180614552639D+03 -.231363994275724D+03 0.142150470222136D+03
 0.216954461465667D+03 0.169279522366410D+03 0.133623499709283D+03 0.236313770800769D+02
 0.462450547477601D+03 0.390019759541980D+03 0.235902824633979D+03 -.780701822647998D+02
 0.212417429911997D+03 -.100118667355751D+03 -.138162330067538D+03 -.877116650374133D+02
 0.000000000000000D+00 -.000000000000000D+00 -.000000000000000D+00 -.000000000000000D+00
 0.871936911687822D+03 0.000000000000000D+00 0.000000000000000D+00 0.871936911687822D+03
 0.876583583632063D+03 0.000000000000000D+00 0.000000000000000D+00 -.876583583632063D+03
 0.451622748981412D+03 -.363542544759664D+03 -.208033454085684D+03 0.142150470222136D+03
 0.260542272436223D+03 0.215276490275644D+03 0.144844283553513D+03 0.236313770800769D+02
 0.558718007108399D+03 0.488388300937831D+03 0.259899452895501D+03 -.780701822647998D+02
 0.190597552956514D+03 -.612964809033671D+02 -.128691806632120D+03 -.877116650374133D+02
 0.287039913837337D+03 -.278825765550444D+03 -.680184757312105D+02 -.464667194424055D+01
0.578163103001D-04 0.000000000000D+00 0.000000000000D+00 0.784582593641D-10 0.000000000000D+00  7 -2 2 23 -11 11 23 21 0 0.60423034D-01 0.20110235D+00 0.48103798D+06 0.48103798D+06 0.48103798D+06 0.10696991D+01  1  2  2  2  7  2        2 0.305703514205D-03 0.100000000000D+01
-.320788114140D-05 0.000000000000D+00 -.222029854936D-06 0.784582593641D-10 0.000000000000D+00  7 -2 2 23 -11 11 23 21 2 0.60423034D-01 0.20110235D+00 0.48103798D+06 0.48103798D+06 0.48103798D+06 0.10696991D+01  1  2  3  2  7  2        2 -.194084826276D-04 0.100000000000D+01
0.352404448387D-05 0.000000000000D+00 0.000000000000D+00 0.784582593641D-10 0.000000000000D+00  7 -2 2 23 -11 11 23 21 2 0.60423034D-01 0.20110235D+00 0.48103798D+06 0.48103798D+06 0.48103798D+06 0.10696991D+01  1  2 15  2  7  2        2 0.213213498660D-04 0.100000000000D+01
-.244375185751D-04 0.000000000000D+00 0.000000000000D+00 0.784582593641D-10 0.000000000000D+00  7 -2 2 23 -11 11 23 21 2 0.60423034D-01 0.20110235D+00 0.48103798D+06 0.48103798D+06 0.48103798D+06 0.10696991D+01  1  2  4  2  7  2        2 -.147853094869D-03 0.100000000000D+01
-.624169893330D-04 0.000000000000D+00 -.251812720449D-04 0.784582593641D-10 0.000000000000D+00  7 -2 2 23 -11 11 23 21 2 0.60423034D-01 0.27686037D+00 0.48103798D+06 0.48103798D+06 0.48103798D+06 0.10696991D+01  1  2  5  2  7  2        2 -.201260410238D-03 0.100000000000D+01
0.681872578994D-04 0.000000000000D+00 0.239470282331D-04 0.784582593641D-10 0.000000000000D+00  7 -2 2 23 -11 11 23 21 2 0.60423034D-01 0.20110235D+00 0.48103798D+06 0.48103798D+06 0.48103798D+06 0.10696991D+01  1  2  6  2  7  2        2 0.412549951832D-03 0.100000000000D+01
-.190357556073D-05 0.000000000000D+00 -.101908450004D-05 0.784582593641D-10 0.000000000000D+00  7 -2 21 23 -11 11 23 -2 2 0.60423034D-01 0.27686037D+00 0.48103798D+06 0.48103798D+06 0.48103798D+06 0.10696991D+01  1  2  5  4  7  2        2 -.148077915916D-05 0.100000000000D+01
  </mgrwgt>
  </event>
  <event>
  8     66 0.53686478E-06 0.13857169E+03 0.75467711E-02 0.10000375E+00
       -2 -1    0    0    0  501 0.00000000E+00 0.00000000E+00 0.30395843E+03 0.30395860E+03 0.32000000E+00 0.0000E+00 0.9000E+01
        2 -1    0    0  501    0 0.00000000E+00 0.00000000E+00 -.58688534E+03 0.58688542E+03 0.32000000E+00 0.0000E+00 0.9000E+01
       25  2    1    2    0    0 -.13266749E+03 -.42186780E+02 -.50960732E+03 0.60662198E+03 0.29817818E+03 0.0000E+00 0.0000E+00
       23  2    1    2    0    0 0.13266749E+03 0.42186780E+02 0.22668041E+03 0.28422204E+03 0.10008882E+03 0.0000E+00 0.0000E+00
       23  1    3    3    0    0 0.39866663E+02 -.77600120E+02 -.24870112E+03 0.27888820E+03 0.91188000E+02 0.0000E+00 0.9000E+01
      -11  1    4    4    0    0 -.76561954E+01 -.12893937E+02 0.43672843E+01 0.15618710E+02 0.51099893E-03 0.0000E+00 0.9000E+01
       11  1    4    4    0    0 0.14032368E+03 0.55080717E+02 0.22231313E+03 0.26860333E+03 0.51099893E-03 0.0000E+00 0.9000E+01
       23  1    3    3    0    0 -.17253415E+03 0.35413340E+02 -.26090620E+03 0.32773378E+03 0.91188000E+02 0.0000E+00 0.9000E+01
#aMCatNLO 1  0  0  2  1 0.12890737D+03 0.00000000D+00  -5  7  0 0.00000000D+00 0.00000000D+00 0.00000000D+00 0.00000000D+00 0.00000000D+00
  <mgrwgt>
 0.1216970820D-03    9    2    0
 0.422361053761768D+03 0.000000000000000D+00 0.000000000000000D+00 0.422361053761768D+03
 0.422361053761768D+03 0.000000000000000D+00 0.000000000000000D+00 -.422361053761768D+03
 0.210816844166477D+03 0.398666626932674D+02 -.776001202748308D+02 -.168870841116357D+03
 0.179342494093150D+02 -.765619541277762D+01 -.128939369979270D+02 0.983698949731923D+01
 0.357729521839880D+03 0.140323680862659D+03 0.550807169723991D+02 0.324416075438241D+03
 0.258241492107864D+03 -.172534148143149D+03 0.354133403003588D+02 -.165382223819203D+03
 0.000000000000000D+00 0.000000000000000D+00 -.000000000000000D+00 -.000000000000000D+00
 0.444339987321973D+03 0.000000000000000D+00 0.000000000000000D+00 0.444339987321973D+03
 0.670342776921262D+03 0.000000000000000D+00 0.000000000000000D+00 -.670342776921262D+03
 0.201290502540859D+03 0.392114184611859D+02 -.463434866196694D+02 -.168870841116357D+03
 0.161991343194510D+02 -.771046695874349D+01 -.103050613587389D+02 0.983698949731923D+01
 0.369825754061989D+03 0.139166879359691D+03 0.110262768213273D+03 0.324416075438241D+03
 0.267185954232435D+03 -.173369569560269D+03 0.752648336887764D+02 -.165382223819203D+03
 0.260181419088501D+03 0.270173869813512D+01 -.128879053923641D+03 -.226002789599289D+03
0.106322677378D-04 0.000000000000D+00 0.000000000000D+00 0.284401878420D-08 0.000000000000D+00  7 -2 2 23 -11 11 23 21 0 0.46762855D-01 0.90290071D-01 0.60093348D+05 0.60093348D+05 0.60093348D+05 0.11403368D+01  1  2  2  2  7  2        2 0.295592696218D-03 0.100000000000D+01
-.378119417021D-06 0.000000000000D+00 -.408307076537D-07 0.284401878420D-08 0.000000000000D+00  7 -2 2 23 -11 11 23 21 2 0.46762855D-01 0.90290071D-01 0.60093348D+05 0.60093348D+05 0.60093348D+05 0.11403368D+01  1  2  3  2  7  2        2 -.136698282560D-04 0.100000000000D+01
0.656324001363D-06 0.000000000000D+00 0.000000000000D+00 0.284401878420D-08 0.000000000000D+00  7 -2 2 23 -11 11 23 21 2 0.46762855D-01 0.90290071D-01 0.60093348D+05 0.60093348D+05 0.60093348D+05 0.11403368D+01  1  2 15  2  7  2        2 0.237275209235D-04 0.100000000000D+01
0.117686904076D-04 0.000000000000D+00 0.000000000000D+00 0.284401878420D-08 0.000000000000D+00  7 -2 2 23 -11 11 23 21 2 0.46762855D-01 0.14450435D+00 0.10199344D+06 0.10199344D+06 0.10199344D+06 0.11210193D+01  1  2 12  2  7  2        2 0.228156130685D-03 0.100000000000D+01
-.198770016115D-04 0.000000000000D+00 0.000000000000D+00 0.284401878420D-08 0.000000000000D+00  7 -2 2 23 -11 11 23 21 2 0.46762855D-01 0.90290071D-01 0.60093348D+05 0.60093348D+05 0.60093348D+05 0.11403368D+01  1  2  4  2  7  2        2 -.718596258330D-03 0.100000000000D+01
-.189733284035D-04 0.000000000000D+00 -.399464071207D-05 0.284401878420D-08 0.000000000000D+00  7 -2 2 23 -11 11 23 21 2 0.46762855D-01 0.14677874D+00 0.60093348D+05 0.60093348D+05 0.60093348D+05 0.11403368D+01  1  2  5  2  7  2        2 -.378085291992D-03 0.100000000000D+01
0.190501182904D-04 0.000000000000D+00 0.356540272831D-05 0.284401878420D-08 0.000000000000D+00  7 -2 2 23 -11 11 23 21 2 0.46762855D-01 0.90290071D-01 0.60093348D+05 0.60093348D+05 0.60093348D+05 0.11403368D+01  1  2  6  2  7  2        2 0.688702652029D-03 0.100000000000D+01
0.632525318085D-06 0.000000000000D+00 0.000000000000D+00 0.284401878420D-08 0.000000000000D+00  7 -2 21 23 -11 11 23 -2 2 0.46762855D-01 0.14450435D+00 0.10199344D+06 0.10199344D+06 0.10199344D+06 0.11210193D+01  1  2 12  4  7  2        2 0.988906172029D-05 0.100000000000D+01
-.871575262256D-06 0.000000000000D+00 -.220213049043D-06 0.284401878420D-08 0.000000000000D+00  7 -2 21 23 -11 11 23 -2 2 0.46762855D-01 0.14677874D+00 0.60093348D+05 0.60093348D+05 0.60093348D+05 0.11403368D+01  1  2  5  4  7  2        2 -.140196010413D-04 0.100000000000D+01
  </mgrwgt>
  </event>
  <event>
  8     66 0.53686478E-06 0.50474835E+03 0.75467711E-02 0.89587003E-01
       -2 -1    0    0    0  501 0.00000000E+00 0.00000000E+00 0.18819161E+03 0.18819188E+03 0.32000000E+00 0.0000E+00 0.9000E+01
        2 -1    0    0  501    0 0.00000000E+00 0.00000000E+00 -.17227357E+04 0.17227357E+04 0.32000000E+00 0.0000E+00 0.9000E+01
       25  2    1    2    0    0 0.14042606E+03 0.43793567E+03 -.38107426E+03 0.66579531E+03 0.29420856E+03 0.0000E+00 0.0000E+00
       23  2    1    2    0    0 -.14042606E+03 -.43793567E+03 -.11534698E+04 0.12451323E+04 0.91403936E+02 0.0000E+00 0.0000E+00
       23  1    3    3    0    0 -.51922973E+02 0.16562892E+03 -.17859730E+03 0.26521912E+03 0.91188000E+02 0.0000E+00 0.9000E+01
      -11  1    4    4    0    0 -.64697932E+02 -.85007821E+02 -.22898307E+03 0.25267647E+03 0.51099893E-03 0.0000E+00 0.9000E+01
       11  1    4    4    0    0 -.75728128E+02 -.35292785E+03 -.92448675E+03 0.99245583E+03 0.51099893E-03 0.0000E+00 0.9000E+01
       23  1    3    3    0    0 0.19234903E+03 0.27230675E+03 -.20247696E+03 0.40057619E+03 0.91188000E+02 0.0000E+00 0.9000E+01
#aMCatNLO 1  0  0  2  1 0.47828505D+03 0.00000000D+00  -5  7  0 0.00000000D+00 0.00000000D+00 0.00000000D+00 0.00000000D+00 0.00000000D+00
  <mgrwgt>
 0.5001242093D-03    3    2    0
 0.569389757864685D+03 0.000000000000000D+00 0.000000000000000D+00 0.569389757864685D+03
 0.569389757864685D+03 0.000000000000000D+00 0.000000000000000D+00 -.569389757864685D+03
 0.204384700653066D+03 -.519229725472978D+02 0.165628922629807D+03 0.576967887094695D+02
 0.115440983634097D+03 -.646979322124273D+02 -.850078214468193D+02 -.437546404705810D+02
 0.419612014259206D+03 -.757281280638331D+02 -.352927847700923D+03 -.213965949271864D+03
 0.399341817183000D+03 0.192349032823558D+03 0.272306746517935D+03 0.200023801032975D+03
 0.000000000000000D+00 -.000000000000000D+00 0.000000000000000D+00 0.000000000000000D+00
 0.141092953602475D+04 0.000000000000000D+00 0.000000000000000D+00 0.141092953602475D+04
 0.689655782765562D+03 0.000000000000000D+00 0.000000000000000D+00 -.689655782765562D+03
 0.167775951224560D+03 0.128320655087257D+02 0.127827763544156D+03 0.576967887094695D+02
 0.119741828215296D+03 -.237767014090220D+02 -.108895846255667D+03 -.437546404705810D+02
 0.502379817023805D+03 0.846961828375406D+02 -.446576544074822D+03 -.213965949271864D+03
 0.445244245527763D+03 0.339304930381493D+03 0.186520320798347D+03 0.200023801032975D+03
 0.865443476798889D+03 -.413056477318737D+03 0.241124305987986D+03 0.721273753259189D+03
0.380704955212D-04 0.000000000000D+00 0.000000000000D+00 0.144886085907D-07 0.000000000000D+00  7 -2 2 23 -11 11 23 21 0 0.28952579D-01 0.26503628D+00 0.25477090D+06 0.25477090D+06 0.25477090D+06 0.10898420D+01  1  2  2  2  7  2        2 0.496215894452D-03 0.100000000000D+01
-.207768453999D-05 0.000000000000D+00 -.146200726993D-06 0.144886085907D-07 0.000000000000D+00  7 -2 2 23 -11 11 23 21 2 0.28952579D-01 0.26503628D+00 0.25477090D+06 0.25477090D+06 0.25477090D+06 0.10898420D+01  1  2  3  2  7  2        2 -.321653921101D-04 0.100000000000D+01
0.233013740047D-05 0.000000000000D+00 0.000000000000D+00 0.144886085907D-07 0.000000000000D+00  7 -2 2 23 -11 11 23 21 2 0.28952579D-01 0.26503628D+00 0.25477090D+06 0.25477090D+06 0.25477090D+06 0.10898420D+01  1  2 15  2  7  2        2 0.360737069146D-04 0.100000000000D+01
  </mgrwgt>
  </event>
  <event>
  8     66 0.53686478E-06 0.46691058E+03 0.75467711E-02 0.84706826E-01
       -2 -1    0    0    0  501 0.00000000E+00 0.00000000E+00 0.19577634E+03 0.19577660E+03 0.32000000E+00 0.0000E+00 0.9000E+01
        2 -1    0    0  501    0 0.00000000E+00 0.00000000E+00 -.11834687E+04 0.11834688E+04 0.32000000E+00 0.0000E+00 0.9000E+01
       25  2    1    2    0    0 0.20835939E+03 -.36444712E+03 -.40516796E+03 0.65545441E+03 0.29870399E+03 0.0000E+00 0.0000E+00
       23  2    1    2    0    0 -.20835939E+03 0.36444712E+03 -.58252444E+03 0.72379097E+03 0.91122447E+02 0.0000E+00 0.0000E+00
       23  1    3    3    0    0 0.23119346E+03 -.21146687E+03 -.31883565E+03 0.45622371E+03 0.91188000E+02 0.0000E+00 0.9000E+01
      -11  1    4    4    0    0 -.13413764E+03 0.30381639E+03 -.47716341E+03 0.58136239E+03 0.51099893E-03 0.0000E+00 0.9000E+01
       11  1    4    4    0    0 -.74221748E+02 0.60630734E+02 -.10536103E+03 0.14242858E+03 0.51099893E-03 0.0000E+00 0.9000E+01
       23  1    3    3    0    0 -.22834069E+02 -.15298026E+03 -.86332308E+02 0.19923070E+03 0.91188000E+02 0.0000E+00 0.9000E+01
#aMCatNLO 1  0  0  2  1 0.11750081D+04 0.00000000D+00  -5  7  0 0.00000000D+00 0.00000000D+00 0.00000000D+00 0.00000000D+00 0.00000000D+00
  <mgrwgt>
 0.1795188857D-03    5    2    0
 0.481347467616171D+03 0.000000000000000D+00 0.000000000000000D+00 0.481347467616171D+03
 0.481347467616171D+03 0.000000000000000D+00 0.000000000000000D+00 -.481347467616171D+03
 0.326513502172413D+03 0.231193457321019D+03 -.211466866103416D+03 0.112767721112352D+02
 0.343359769704431D+03 -.134137640161019D+03 0.303816388248741D+03 -.871701048238617D+02
 0.959594458019920D+02 -.742217481421967D+02 0.606307341617648D+02 -.482300905526341D+01
 0.196862217553505D+03 -.228340690178028D+02 -.152980256307090D+03 0.807163417678899D+02
 0.000000000000000D+00 -.000000000000000D+00 -.000000000000000D+00 -.000000000000000D+00
 0.975146468866198D+03 0.000000000000000D+00 0.000000000000000D+00 0.975146468866198D+03
 0.236017694446131D+04 0.000000000000000D+00 0.000000000000000D+00 -.236017694446131D+04
 0.424134977277824D+03 0.401716343012963D+03 0.100359562441765D+03 0.112767721112352D+02
 0.788579573420471D+03 0.123002111003559D+03 0.774034622694410D+03 -.871701048238617D+02
 0.172875889341819D+03 -.131511160425245D+02 0.172307457314574D+03 -.482300905526341D+01
 0.133430826532701D+03 0.521977528581387D+02 -.157734236413542D+02 0.807163417678899D+02
 0.181630214675469D+04 -.563765090832137D+03 -.103092821880940D+04 -.138503047559511D+04
0.731685373757D-05 0.000000000000D+00 0.000000000000D+00 0.111081723826D-06 0.000000000000D+00  7 -2 2 23 -11 11 23 21 0 0.30119460D-01 0.18207214D+00 0.21800549D+06 0.21800549D+06 0.21800549D+06 0.10949616D+01  1  2  2  2  7  2        2 0.177841775786D-03 0.100000000000D+01
-.406033569390D-06 0.000000000000D+00 -.280986449241D-07 0.111081723826D-06 0.000000000000D+00  7 -2 2 23 -11 11 23 21 2 0.30119460D-01 0.18207214D+00 0.21800549D+06 0.21800549D+06 0.21800549D+06 0.10949616D+01  1  2  3  2  7  2        2 -.118322991962D-04 0.100000000000D+01
0.463559489139D-06 0.000000000000D+00 0.000000000000D+00 0.111081723826D-06 0.000000000000D+00  7 -2 2 23 -11 11 23 21 2 0.30119460D-01 0.18207214D+00 0.21800549D+06 0.21800549D+06 0.21800549D+06 0.10949616D+01  1  2 15  2  7  2        2 0.135086726425D-04 0.100000000000D+01
0.144876525035D-05 0.000000000000D+00 -.278134420724D-05 0.111081723826D-06 0.000000000000D+00  7 -2 2 23 -11 11 23 21 2 0.30119460D-01 0.92113819D+00 0.21800549D+06 0.21800549D+06 0.21800549D+06 0.10949616D+01  1  2  5  2  7  2        2 0.736211341526D-09 0.100000000000D+01
0.201196161945D-06 0.000000000000D+00 -.549927565180D-06 0.111081723826D-06 0.000000000000D+00  7 -2 21 23 -11 11 23 -2 2 0.30119460D-01 0.92113819D+00 0.21800549D+06 0.21800549D+06 0.21800549D+06 0.10949616D+01  1  2  5  4  7  2        2 0.230422655542D-12 0.100000000000D+01
  </mgrwgt>
  </event>
  <event>
  8     66 0.53686478E-06 0.32386604E+03 0.75467711E-02 0.95319566E-01
       -2 -1    0    0    0  501 0.00000000E+00 0.00000000E+00 0.34571786E+03 0.34571801E+03 0.32000000E+00 0.0000E+00 0.9000E+01
        2 -1    0    0  501    0 0.00000000E+00 0.00000000E+00 -.49754571E+03 0.49754581E+03 0.32000000E+00 0.0000E+00 0.9000E+01
       25  2    1    2    0    0 0.23921898E+03 0.36322762E+02 0.17460365E+03 0.42028733E+03 0.29598977E+03 0.0000E+00 0.0000E+00
       23  2    1    2    0    0 -.23921898E+03 -.36322762E+02 -.32643150E+03 0.42297649E+03 0.11750119E+03 0.0000E+00 0.0000E+00
       23  1    3    3    0    0 -.11943012E+02 -.42588584E+02 0.26496935E+02 0.10475573E+03 0.91188000E+02 0.0000E+00 0.9000E+01
      -13  1    4    4    0    0 -.48807801E+02 0.39529459E+02 -.94367128E+02 0.11335760E+03 0.10565837E+00 0.0000E+00 0.9000E+01
       13  1    4    4    0    0 -.19041117E+03 -.75852222E+02 -.23206437E+03 0.30961889E+03 0.10565837E+00 0.0000E+00 0.9000E+01
       23  1    3    3    0    0 0.25116199E+03 0.78911346E+02 0.14810671E+03 0.31553161E+03 0.91188000E+02 0.0000E+00 0.9000E+01
#aMCatNLO 1  0  0  2  2 0.24590916D+03 0.00000000D+00  -5  7  0 0.00000000D+00 0.00000000D+00 0.00000000D+00 0.00000000D+00 0.00000000D+00
  <mgrwgt>
 0.2591629204D-03    4    2    0
 0.414741538645808D+03 0.000000000000000D+00 0.000000000000000D+00 0.414741538645808D+03
 0.414741538645808D+03 0.000000000000000D+00 0.000000000000000D+00 -.414741538645808D+03
 0.111346077580168D+03 -.119430057738137D+02 -.425885827751616D+02 0.461115482149379D+02
 0.979678438593414D+02 -.488077184915839D+02 0.395294654607955D+02 -.751859455382346D+02
 0.272286069352380D+03 -.190411282975208D+03 -.758522318795585D+02 -.179247554510497D+03
 0.347883086499728D+03 0.251162007240606D+03 0.789113491939247D+02 0.208321951833794D+03
 0.000000000000000D+00 0.000000000000000D+00 -.000000000000000D+00 0.000000000000000D+00
 0.598859015950730D+03 0.000000000000000D+00 0.000000000000000D+00 0.598859015950730D+03
 0.523503653284506D+03 0.000000000000000D+00 0.000000000000000D+00 -.523503653284506D+03
 0.111350204435849D+03 -.377269897166324D+02 -.231087873339982D+02 0.461115482149379D+02
 0.120791675722963D+03 -.741359003955960D+02 0.586649025399111D+02 -.751859455382346D+02
 0.315484583616899D+03 -.258463919242975D+03 -.244384768652869D+02 -.179247554510497D+03
 0.317540277491064D+03 0.174118667419239D+03 0.137117579199054D+03 0.208321951833794D+03
 0.257195927968461D+03 0.196208141935964D+03 -.148235217539680D+03 0.753553626662237D+02
0.135593677733D-04 0.000000000000D+00 0.000000000000D+00 0.458095950011D-10 0.000000000000D+00  7 -2 2 23 -13 13 23 21 0 0.53187382D-01 0.76545513D-01 0.10488921D+06 0.10488921D+06 0.10488921D+06 0.11200248D+01  1  2  2  2  7  2        2 0.349912980814D-03 0.100000000000D+01
-.697272615662D-06 0.000000000000D+00 -.520715425131D-07 0.458095950011D-10 0.000000000000D+00  7 -2 2 23 -13 13 23 21 2 0.53187382D-01 0.76545513D-01 0.10488921D+06 0.10488921D+06 0.10488921D+06 0.11200248D+01  1  2  3  2  7  2        2 -.225724397442D-04 0.100000000000D+01
0.859982990894D-06 0.000000000000D+00 0.000000000000D+00 0.458095950011D-10 0.000000000000D+00  7 -2 2 23 -13 13 23 21 2 0.53187382D-01 0.76545513D-01 0.10488921D+06 0.10488921D+06 0.10488921D+06 0.11200248D+01  1  2 15  2  7  2        2 0.278397771646D-04 0.100000000000D+01
-.296601975278D-05 0.000000000000D+00 0.000000000000D+00 0.458095950011D-10 0.000000000000D+00  7 -2 2 23 -13 13 23 21 2 0.53187382D-01 0.76545513D-01 0.10488921D+06 0.10488921D+06 0.10488921D+06 0.11200248D+01  1  2  4  2  7  2        2 -.960173978526D-04 0.100000000000D+01
  </mgrwgt>
  </event>
  <event>
  8     66 0.53686478E-06 0.10952662E+04 0.75467711E-02 0.83376881E-01
       -2 -1    0    0    0  501 0.00000000E+00 0.00000000E+00 0.63126646E+03 0.63126654E+03 0.32000000E+00 0.0000E+00 0.9000E+01
        2 -1    0    0  501    0 0.00000000E+00 0.00000000E+00 -.19265799E+04 0.19265799E+04 0.32000000E+00 0.0000E+00 0.9000E+01
       25  2    1    2    0    0 -.86088749E+02 0.10711686E+04 -.52687761E+03 0.12332575E+04 0.29750715E+03 0.0000E+00 0.0000E+00
       23  2    1    2    0    0 0.86088749E+02 -.10711686E+04 -.76843579E+03 0.13245889E+04 0.96066373E+02 0.0000E+00 0.0000E+00
       23  1    3    3    0    0 -.14407696E+03 0.39455410E+03 -.19847185E+03 0.47343155E+03 0.91188000E+02 0.0000E+00 0.9000E+01
      -11  1    4    4    0    0 0.16605307E+02 -.47938017E+03 -.29084260E+03 0.56095499E+03 0.51099893E-03 0.0000E+00 0.9000E+01
       11  1    4    4    0    0 0.69483441E+02 -.59178847E+03 -.47759318E+03 0.76363393E+03 0.51099893E-03 0.0000E+00 0.9000E+01
       23  1    3    3    0    0 0.57988208E+02 0.67661454E+03 -.32840576E+03 0.75982594E+03 0.91188000E+02 0.0000E+00 0.9000E+01
#aMCatNLO 1  0  0  2  2 0.76999851D+03 0.00000000D+00  -5  7  0 0.00000000D+00 0.00000000D+00 0.00000000D+00 0.00000000D+00 0.00000000D+00
  <mgrwgt>
 0.2174528199D-03    3    2    0
 0.110280795187533D+04 0.000000000000000D+00 0.000000000000000D+00 0.110280795187533D+04
 0.110280795187533D+04 0.000000000000000D+00 0.000000000000000D+00 -.110280795187533D+04
 0.432478726107064D+03 -.144076957173623D+03 0.394554101472586D+03 0.478694956516104D+02
 0.479731943612273D+03 0.166053074968142D+02 -.479380172442168D+03 -.785186310774762D+01
 0.605103306450370D+03 0.694834413238304D+02 -.591788465286153D+03 -.105396751435842D+03
 0.688301927580944D+03 0.579882083529783D+02 0.676614536255735D+03 0.653791188919795D+02
 0.000000000000000D+00 0.000000000000000D+00 -.000000000000000D+00 0.000000000000000D+00
 0.171644143290288D+04 0.000000000000000D+00 0.000000000000000D+00 0.171644143290288D+04
 0.143838356447392D+04 0.000000000000000D+00 0.000000000000000D+00 -.143838356447392D+04
 0.578875197104470D+03 -.283830176647316D+03 0.493892887870592D+03 0.478694956516104D+02
 0.406440960555226D+03 -.105849862276485D+03 -.392337111829663D+03 -.785186310774762D+01
 0.501450540595591D+03 -.834249116240701D+02 -.483098803114743D+03 -.105396751435842D+03
 0.849392377606685D+03 -.154496980841652D+03 0.827652350637669D+03 0.653791188919795D+02
 0.818665921514825D+03 0.627601931389522D+03 -.446109323563855D+03 0.278057868428963D+03
0.275880064517D-03 0.000000000000D+00 0.000000000000D+00 0.230844234899D-07 0.000000000000D+00  7 -2 2 23 -11 11 23 21 0 0.97117925D-01 0.29639691D+00 0.11996081D+07 0.11996081D+07 0.11996081D+07 0.10426427D+01  1  2  2  2  7  2        2 0.216016298890D-03 0.100000000000D+01
-.153257927462D-04 0.000000000000D+00 -.105945208863D-05 0.230844234899D-07 0.000000000000D+00  7 -2 2 23 -11 11 23 21 2 0.97117925D-01 0.29639691D+00 0.11996081D+07 0.11996081D+07 0.11996081D+07 0.10426427D+01  1  2  3  2  7  2        2 -.130454841825D-04 0.100000000000D+01
0.170134129964D-04 0.000000000000D+00 0.000000000000D+00 0.230844234899D-07 0.000000000000D+00  7 -2 2 23 -11 11 23 21 2 0.97117925D-01 0.29639691D+00 0.11996081D+07 0.11996081D+07 0.11996081D+07 0.10426427D+01  1  2 15  2  7  2        2 0.144820051928D-04 0.100000000000D+01
  </mgrwgt>
  </event>
  <event>
  8     66 0.53686478E-06 0.18090979E+03 0.75467711E-02 0.92647411E-01
       -2 -1    0    0    0  501 0.00000000E+00 0.00000000E+00 0.68402359E+03 0.68402366E+03 0.32000000E+00 0.0000E+00 0.9000E+01
        2 -1    0    0  501    0 0.00000000E+00 0.00000000E+00 -.70645096E+03 0.70645103E+03 0.32000000E+00 0.0000E+00 0.9000E+01
       25  2    1    2    0    0 0.26880533E+03 0.24076668E+03 -.56384973E+03 0.73341125E+03 0.29956744E+03 0.0000E+00 0.0000E+00
       23  2    1    2    0    0 -.26880533E+03 -.24076668E+03 0.54142235E+03 0.65706344E+03 0.91483884E+02 0.0000E+00 0.0000E+00
       23  1    3    3    0    0 -.16670475E+02 0.23325039E+02 -.83503015E+02 0.12692504E+03 0.91188000E+02 0.0000E+00 0.9000E+01
      -11  1    4    4    0    0 -.23213908E+03 -.23382620E+03 0.51483574E+03 0.61124388E+03 0.51099893E-03 0.0000E+00 0.9000E+01
       11  1    4    4    0    0 -.36666247E+02 -.69404828E+01 0.26586615E+02 0.45819560E+02 0.51099893E-03 0.0000E+00 0.9000E+01
       23  1    3    3    0    0 0.28547581E+03 0.21744164E+03 -.48034672E+03 0.60648621E+03 0.91188000E+02 0.0000E+00 0.9000E+01
#aMCatNLO 1  0  0  1  2 0.35071446D+03 0.00000000D+00  -5  7  0 0.00000000D+00 0.00000000D+00 0.00000000D+00 0.00000000D+00 0.00000000D+00
  <mgrwgt>
 0.2975499265D-03    9    2    0
 0.695146906701159D+03 0.000000000000000D+00 0.000000000000000D+00 0.695146906701159D+03
 0.695146906701159D+03 0.000000000000000D+00 0.000000000000000D+00 -.695146906701159D+03
 0.125594538044637D+03 -.166704752767368D+02 0.233250386051737D+02 -.814664008703018D+02
 0.619628423095126D+03 -.232139082717837D+03 -.233826195147595D+03 0.524762936424700D+03
 0.462544004172453D+02 -.366662473101758D+02 -.694048282810156D+01 0.273292071648762D+02
 0.598816451845308D+03 0.285475805304749D+03 0.217441639370523D+03 -.470625742719274D+03
 0.000000000000000D+00 -.000000000000000D+00 -.000000000000000D+00 0.000000000000000D+00
 0.968668608613983D+03 0.000000000000000D+00 0.000000000000000D+00 0.968668608613983D+03
 0.839071560605083D+03 0.000000000000000D+00 0.000000000000000D+00 -.839071560605083D+03
 0.129666579446229D+03 0.876404515318274D+01 0.422443785973659D+02 -.814664008703018D+02
 0.556849311101255D+03 -.114913446240577D+03 -.146628495532017D+03 0.524762936424700D+03
 0.392370708937081D+02 -.281477757348089D+02 -.604060626147707D+00 0.273292071648762D+02
 0.708094142365709D+03 0.415697926618340D+03 0.314306708811273D+03 -.470625742719274D+03
 0.373893065412164D+03 -.281400749796137D+03 -.209318531250474D+03 0.129597048008901D+03
0.845741961143D-04 0.000000000000D+00 0.000000000000D+00 0.391384148227D-05 0.000000000000D+00  7 -2 2 23 -11 11 23 21 0 0.10523441D+00 0.10868477D+00 0.17332884D+06 0.17332884D+06 0.17332884D+06 0.11026315D+01  1  2  2  1  7  1       -2 0.319682505841D-03 0.100000000000D+01
-.319719118228D-05 0.000000000000D+00 -.324787181976D-06 0.391384148227D-05 0.000000000000D+00  7 -2 2 23 -11 11 23 21 2 0.10523441D+00 0.10868477D+00 0.17332884D+06 0.17332884D+06 0.17332884D+06 0.11026315D+01  1  2  3  1  7  1       -2 -.146929974953D-04 0.100000000000D+01
0.481468793461D-05 0.000000000000D+00 0.000000000000D+00 0.391384148227D-05 0.000000000000D+00  7 -2 2 23 -11 11 23 21 2 0.10523441D+00 0.10868477D+00 0.17332884D+06 0.17332884D+06 0.17332884D+06 0.11026315D+01  1  2 15  1  7  1       -2 0.221263583347D-04 0.100000000000D+01
0.186335788712D-05 0.000000000000D+00 0.000000000000D+00 0.391384148227D-05 0.000000000000D+00  7 -2 2 23 -11 11 23 21 2 0.15407648D+00 0.10868477D+00 0.35706894D+06 0.35706894D+06 0.35706894D+06 0.10790003D+01  1  2 12  1  7  1       -2 0.294040341726D-05 0.100000000000D+01
-.403786431374D-04 0.000000000000D+00 0.000000000000D+00 0.391384148227D-05 0.000000000000D+00  7 -2 2 23 -11 11 23 21 2 0.10523441D+00 0.10868477D+00 0.17332884D+06 0.17332884D+06 0.17332884D+06 0.11026315D+01  1  2  4  1  7  1       -2 -.185563911776D-03 0.100000000000D+01
-.322548236983D-04 0.000000000000D+00 -.292403499105D-04 0.391384148227D-05 0.000000000000D+00  7 -2 2 23 -11 11 23 21 2 0.16702304D+00 0.10868477D+00 0.17332884D+06 0.17332884D+06 0.17332884D+06 0.11026315D+01  1  2  5  1  7  1       -2 -.438130430608D-04 0.100000000000D+01
0.438629465039D-04 0.000000000000D+00 0.263757863893D-04 0.391384148227D-05 0.000000000000D+00  7 -2 2 23 -11 11 23 21 2 0.10523441D+00 0.10868477D+00 0.17332884D+06 0.17332884D+06 0.17332884D+06 0.11026315D+01  1  2  6  1  7  1       -2 0.201576360741D-03 0.100000000000D+01
0.856392513638D-07 0.000000000000D+00 0.000000000000D+00 0.391384148227D-05 0.000000000000D+00  7 21 2 23 -11 11 23 2 2 0.15407648D+00 0.10868477D+00 0.35706894D+06 0.35706894D+06 0.35706894D+06 0.10790003D+01  1  2 12  3  7  1       -2 0.113674361674D-05 0.100000000000D+01
-.508134297715D-06 0.000000000000D+00 -.155010511727D-05 0.391384148227D-05 0.000000000000D+00  7 21 2 23 -11 11 23 2 2 0.16702304D+00 0.10868477D+00 0.17332884D+06 0.17332884D+06 0.17332884D+06 0.11026315D+01  1  2  5  3  7  1       -2 -.584249311101D-05 0.100000000000D+01
  </mgrwgt>
  </event>
  <event>
  8     66 0.53686478E-06 0.85736051E+03 0.75467711E-02 0.77081334E-01
       -2 -1    0    0    0  501 0.00000000E+00 0.00000000E+00 0.15044781E+04 0.15044781E+04 0.32000000E+00 0.0000E+00 0.9000E+01
        2 -1    0    0  501    0 0.00000000E+00 0.00000000E+00 -.83730024E+03 0.83730031E+03 0.32000000E+00 0.0000E+00 0.9000E+01
       25  2    1    2    0    0 -.80178155E+03 -.25721641E+03 0.10780019E+04 0.14003817E+04 0.29994481E+03 0.0000E+00 0.0000E+00
       23  2    1    2    0    0 0.80178155E+03 0.25721641E+03 -.41082405E+03 0.94139672E+03 0.91855619E+02 0.0000E+00 0.0000E+00
       23  1    3    3    0    0 -.25202194E+03 -.12348511E+03 0.21783324E+03 0.36678359E+03 0.91188000E+02 0.0000E+00 0.9000E+01
      -13  1    4    4    0    0 0.73341881E+03 0.25993851E+03 -.38614113E+03 0.86866343E+03 0.10565837E+00 0.0000E+00 0.9000E+01
       13  1    4    4    0    0 0.68362737E+02 -.27220914E+01 -.24682927E+02 0.72733291E+02 0.10565837E+00 0.0000E+00 0.9000E+01
       23  1    3    3    0    0 -.54975960E+03 -.13373130E+03 0.86016865E+03 0.10335981E+04 0.91188000E+02 0.0000E+00 0.9000E+01
#aMCatNLO 1  0  0  2  2 0.31440311D+04 0.00000000D+00  -5  7  0 0.00000000D+00 0.00000000D+00 0.00000000D+00 0.00000000D+00 0.00000000D+00
  <mgrwgt>
 0.2336173493D-03    5    2    0
 0.112236356606861D+04 0.000000000000000D+00 0.000000000000000D+00 0.112236356606861D+04
 0.112236356606861D+04 0.000000000000000D+00 0.000000000000000D+00 -.112236356606861D+04
 0.317897165191571D+03 -.252021942002638D+03 -.123485111304090D+03 0.118235884266464D+03
 0.102099040526783D+04 0.733419690002001D+03 0.259938852529971D+03 -.661020997330443D+03
 0.832129499956878D+02 0.683618566186540D+02 -.272243888988815D+01 -.473670764680095D+02
 0.822626611682142D+03 -.549759604618018D+03 -.133731302335993D+03 0.590152189531989D+03
 0.000000000000000D+00 0.000000000000000D+00 -.000000000000000D+00 -.000000000000000D+00
 0.305438966701004D+04 0.000000000000000D+00 0.000000000000000D+00 0.305438966701004D+04
 0.413246424103500D+04 0.000000000000000D+00 0.000000000000000D+00 -.413246424103500D+04
 0.396302402025387D+03 -.274762187296867D+03 0.243446829124267D+03 0.118235884266464D+03
 0.205694139861031D+04 0.635417776486647D+03 0.184127765633812D+04 -.661020997330443D+03
 0.133479150732596D+03 0.614623403628759D+02 0.108606742259801D+03 -.473670764680095D+02
 0.127640164505756D+04 -.616593049538434D+03 0.944679476125709D+03 0.590152189531989D+03
 0.332372931161918D+04 0.194475119985778D+03 -.313801070384789D+04 -.107807457402495D+04
0.771506642810D-03 0.000000000000D+00 0.000000000000D+00 0.833050219197D-05 0.000000000000D+00  7 -2 2 23 -13 13 23 21 0 0.23145817D+00 0.12881543D+00 0.73506704D+06 0.73506704D+06 0.73506704D+06 0.10568797D+01  1  2  2  2  7  2        2 0.229762353701D-03 0.100000000000D+01
-.390811507156D-04 0.000000000000D+00 -.296278865076D-05 0.833050219197D-05 0.000000000000D+00  7 -2 2 23 -13 13 23 21 2 0.23145817D+00 0.12881543D+00 0.73506704D+06 0.73506704D+06 0.73506704D+06 0.10568797D+01  1  2  3  2  7  2        2 -.130004293358D-04 0.100000000000D+01
0.485775862058D-04 0.000000000000D+00 0.000000000000D+00 0.833050219197D-05 0.000000000000D+00  7 -2 2 23 -13 13 23 21 2 0.23145817D+00 0.12881543D+00 0.73506704D+06 0.73506704D+06 0.73506704D+06 0.10568797D+01  1  2 15  2  7  2        2 0.161594391466D-04 0.100000000000D+01
0.631781990116D-03 0.000000000000D+00 -.327317709492D-03 0.833050219197D-05 0.000000000000D+00  7 -2 2 23 -13 13 23 21 2 0.23145817D+00 0.69717545D+00 0.73506704D+06 0.73506704D+06 0.73506704D+06 0.10568797D+01  1  2  5  2  7  2        2 0.694622503217D-06 0.100000000000D+01
0.116201025772D-03 0.000000000000D+00 -.676115196981D-04 0.833050219197D-05 0.000000000000D+00  7 -2 21 23 -13 13 23 -2 2 0.23145817D+00 0.69717545D+00 0.73506704D+06 0.73506704D+06 0.73506704D+06 0.10568797D+01  1  2  5  4  7  2        2 0.136332069329D-08 0.100000000000D+01
  </mgrwgt>
  </event>
  <event>
  8     66 0.53686478E-06 0.18814422E+03 0.75467711E-02 0.96357396E-01
       -2 -1    0    0    0  501 0.00000000E+00 0.00000000E+00 0.19329311E+03 0.19329337E+03 0.32000000E+00 0.0000E+00 0.9000E+01
        2 -1    0    0  501    0 0.00000000E+00 0.00000000E+00 -.15147956E+04 0.15147956E+04 0.32000000E+00 0.0000E+00 0.9000E+01
       25  2    1    2    0    0 0.22773386E+03 0.14113827E+02 -.15665359E+02 0.37922088E+03 0.30249159E+03 0.0000E+00 0.0000E+00
       23  2    1    2    0    0 -.22773386E+03 -.14113827E+02 -.13058371E+04 0.13288681E+04 0.92832987E+02 0.0000E+00 0.0000E+00
       23  1    3    3    0    0 0.66617747E+02 0.77784479E+02 -.96224819E+02 0.16751960E+03 0.91188000E+02 0.0000E+00 0.9000E+01
      -13  1    4    4    0    0 -.22325239E+03 -.25892832E+02 -.12850736E+04 0.13045789E+04 0.10565837E+00 0.0000E+00 0.9000E+01
       13  1    4    4    0    0 -.44814658E+01 0.11779004E+02 -.20763529E+02 0.24289170E+02 0.10565837E+00 0.0000E+00 0.9000E+01
       23  1    3    3    0    0 0.16111611E+03 -.63670651E+02 0.80559460E+02 0.21170128E+03 0.91188000E+02 0.0000E+00 0.9000E+01
#aMCatNLO 1  0  0  2  1 0.24881584D+03 0.00000000D+00  -5  7  0 0.00000000D+00 0.00000000D+00 0.00000000D+00 0.00000000D+00 0.00000000D+00
  <mgrwgt>
 0.3727402332D-03    7    2    0
 0.541109779458341D+03 0.000000000000000D+00 0.000000000000000D+00 0.541109779458341D+03
 0.541109779458341D+03 0.000000000000000D+00 0.000000000000000D+00 -.541109779458341D+03
 0.146899069484082D+03 0.666177473268366D+02 0.777844781893007D+02 0.526852537737564D+02
 0.489835582985891D+03 -.223252677350020D+03 -.258928804963053D+02 -.435231776361492D+03
 0.129810443978329D+02 -.448118238934697D+01 0.117790530231275D+02 -.311133860745938D+01
 0.432503862048877D+03 0.161116112412530D+03 -.636706507161229D+02 0.385657861195195D+03
 0.000000000000000D+00 -.000000000000000D+00 0.000000000000000D+00 -.000000000000000D+00
 0.566135390284105D+03 0.000000000000000D+00 0.000000000000000D+00 0.566135390284105D+03
 0.197408559757144D+04 0.000000000000000D+00 0.000000000000000D+00 -.197408559757144D+04
 0.150070290099935D+03 0.915869835538978D+02 0.551536862319428D+02 0.526852537737564D+02
 0.468581051483025D+03 -.142668837375684D+03 -.989298008490289D+02 -.435231776361492D+03
 0.107376433750847D+02 -.248691093040767D+01 0.997155110022769D+01 -.311133860745938D+01
 0.481065200251606D+03 0.237929160594567D+03 -.133289925299067D+03 0.385657861195195D+03
 0.142976680264589D+04 -.184360395842373D+03 0.167094488815926D+03 -.140795020728733D+04
0.215038879603D-04 0.000000000000D+00 0.000000000000D+00 0.549054155174D-07 0.000000000000D+00  7 -2 2 23 -13 13 23 21 0 0.29737424D-01 0.23304549D+00 0.81296963D+05 0.81296963D+05 0.81296963D+05 0.11291770D+01  1  2  2  2  7  2        2 0.360191303354D-03 0.100000000000D+01
-.598419006913D-06 0.000000000000D+00 -.825805918714D-07 0.549054155174D-07 0.000000000000D+00  7 -2 2 23 -13 13 23 21 2 0.29737424D-01 0.23304549D+00 0.81296963D+05 0.81296963D+05 0.81296963D+05 0.11291770D+01  1  2  3  2  7  2        2 -.127804366295D-04 0.100000000000D+01
0.122744836725D-05 0.000000000000D+00 0.000000000000D+00 0.549054155174D-07 0.000000000000D+00  7 -2 2 23 -13 13 23 21 2 0.29737424D-01 0.23304549D+00 0.81296963D+05 0.81296963D+05 0.81296963D+05 0.11291770D+01  1  2 15  2  7  2        2 0.262146186741D-04 0.100000000000D+01
0.316433855751D-05 0.000000000000D+00 0.000000000000D+00 0.549054155174D-07 0.000000000000D+00  7 -2 2 23 -13 13 23 21 2 0.29737424D-01 0.83706584D+00 0.18523805D+06 0.18523805D+06 0.18523805D+06 0.11003921D+01  1  2 12  2  7  2        2 0.364351064047D-07 0.100000000000D+01
-.101405449077D-03 0.000000000000D+00 -.632617042367D-05 0.549054155174D-07 0.000000000000D+00  7 -2 2 23 -13 13 23 21 2 0.29737424D-01 0.85156213D+00 0.81296963D+05 0.81296963D+05 0.81296963D+05 0.11291770D+01  1  2  5  2  7  2        2 -.921186841012D-06 0.100000000000D+01
0.475374162707D-06 0.000000000000D+00 0.000000000000D+00 0.549054155174D-07 0.000000000000D+00  7 -2 21 23 -13 13 23 -2 2 0.29737424D-01 0.83706584D+00 0.18523805D+06 0.18523805D+06 0.18523805D+06 0.11003921D+01  1  2 12  4  7  2        2 0.226157342724D-10 0.100000000000D+01
-.153171877641D-04 0.000000000000D+00 -.965748413918D-06 0.549054155174D-07 0.000000000000D+00  7 -2 21 23 -13 13 23 -2 2 0.29737424D-01 0.85156213D+00 0.81296963D+05 0.81296963D+05 0.81296963D+05 0.11291770D+01  1  2  5  4  7  2        2 -.523085318197D-09 0.100000000000D+01
  </mgrwgt>
  </event>
  <event>
  9     66 0.53686478E-06 0.20429214E+03 0.75467711E-02 0.88233072E-01
       21 -1    0    0  502  501 0.00000000E+00 0.00000000E+00 0.56351242E+03 0.56351292E+03 0.75000000E+00 0.0000E+00 0.9000E+01
        2 -1    0    0  501    0 0.00000000E+00 0.00000000E+00 -.16967177E+04 0.16967177E+04 0.32000000E+00 0.0000E+00 0.9000E+01
       25  2    1    2    0    0 -.75011408E+03 0.29459067E+03 -.76911647E+03 0.11535264E+04 0.29937965E+03 0.0000E+00 0.0000E+00
       23  2    1    2    0    0 -.69001570E+02 0.50797076E+02 0.38043540E+02 0.13102313E+03 0.91532458E+02 0.0000E+00 0.0000E+00
       23  1    3    3    0    0 -.58008592E+03 0.20386430E+03 -.68321959E+03 0.92366909E+03 0.91188000E+02 0.0000E+00 0.9000E+01
      -11  1    4    4    0    0 -.59278132E+02 0.30847543E+01 0.53526208E+02 0.79927890E+02 0.51099893E-03 0.0000E+00 0.9000E+01
       11  1    4    4    0    0 -.97234376E+01 0.47712322E+02 -.15482667E+02 0.51095244E+02 0.51099893E-03 0.0000E+00 0.9000E+01
       23  1    3    3    0    0 -.17002817E+03 0.90726362E+02 -.85896874E+02 0.22985729E+03 0.91188000E+02 0.0000E+00 0.9000E+01
        2  1    1    2  502    0 0.81911565E+03 -.34538774E+03 -.40213234E+03 0.97568113E+03 0.32000000E+00 0.0000E+00 0.9000E+01
#aMCatNLO 2  0  0  1  1 0.88895621D+03 0.00000000D+00  -5  7  0 0.00000000D+00 0.00000000D+00 0.00000000D+00 0.00000000D+00 0.00000000D+00
  <mgrwgt>
 0.7526351777D-05    1    2    0
 0.285200231628298D+03 0.000000000000000D+00 0.000000000000000D+00 0.285200231628298D+03
 0.285200231628298D+03 0.000000000000000D+00 0.000000000000000D+00 -.285200231628298D+03
 0.247976042244900D+03 -.127667580941223D+03 0.130978998337126D+02 -.191588882715065D+03
 0.161608935072983D+03 0.897098760372555D+02 -.597374267121793D+02 0.120420205474875D+03
 0.523694177345913D+02 0.425439024492332D+02 0.256733114616078D+02 0.165364251531442D+02
 0.108446068204121D+03 -.458619754526593D+01 0.209662154168590D+02 0.546322520870461D+02
 0.000000000000000D+00 0.000000000000000D+00 -.000000000000000D+00 0.000000000000000D+00
 0.107537181955927D+04 0.000000000000000D+00 0.000000000000000D+00 0.107537181955927D+04
 0.889108327228029D+03 0.000000000000000D+00 0.000000000000000D+00 -.889108327228029D+03
 0.650447442417443D+03 -.580085915724099D+03 0.203864303893349D+03 -.191588882715065D+03
 0.134255124731125D+03 -.592781318941968D+02 0.308475430029409D+01 0.120420205474875D+03
 0.514243549316233D+02 -.972343761048229D+01 0.477123221434787D+02 0.165364251531442D+02
 0.220092672150881D+03 -.170028166016222D+03 0.907263621202380D+02 0.546322520870461D+02
 0.908260552556227D+03 0.819115651245000D+03 -.345387742457359D+03 0.186263492331242D+03
0.527095724838D-06 0.000000000000D+00 0.000000000000D+00 0.183487945612D-06 0.132145320707D-11  7 21 2 23 -11 11 23 2 2 0.86694257D-01 0.26103352D+00 0.83887566D+06 0.83887566D+06 0.83887566D+06 0.10529812D+01  1  2  1  3  7  1       -2 0.752635177709D-05 0.100000000000D+01
  </mgrwgt>
  </event>
  <event>
  8     66 0.53686478E-06 0.21262825E+03 0.75467711E-02 0.89592152E-01
       -2 -1    0    0    0  501 0.00000000E+00 0.00000000E+00 0.27741096E+03 0.27741114E+03 0.32000000E+00 0.0000E+00 0.9000E+01
        2 -1    0    0  501    0 0.00000000E+00 0.00000000E+00 -.36509365E+03 0.36509379E+03 0.32000000E+00 0.0000E+00 0.9000E+01
       25  2    1    2    0    0 -.35600945E+02 -.14528552E+03 -.23896448E+03 0.41160260E+03 0.29989560E+03 0.0000E+00 0.0000E+00
       23  2    1    2    0    0 0.35600945E+02 0.14528552E+03 0.15128178E+03 0.23090233E+03 0.89746287E+02 0.0000E+00 0.0000E+00
       23  1    3    3    0    0 -.53198112E+02 -.10973117E+03 0.54284947E+00 0.15227119E+03 0.91188000E+02 0.0000E+00 0.9000E+01
      -13  1    4    4    0    0 -.29640556E+02 0.43239437E+02 0.56763077E+02 0.77267519E+02 0.10565837E+00 0.0000E+00 0.9000E+01
       13  1    4    4    0    0 0.65241501E+02 0.10204609E+03 0.94518708E+02 0.15363481E+03 0.10565837E+00 0.0000E+00 0.9000E+01
       23  1    3    3    0    0 0.17597166E+02 -.35554358E+02 -.23950733E+03 0.25933142E+03 0.91188000E+02 0.0000E+00 0.9000E+01
#aMCatNLO 1  0  0  1  1 0.77752104D+03 0.00000000D+00  -5  7  0 0.00000000D+00 0.00000000D+00 0.00000000D+00 0.00000000D+00 0.00000000D+00
  <mgrwgt>
 0.1835149290D-03    5    2    0
 0.318246889357915D+03 0.000000000000000D+00 0.000000000000000D+00 0.318246889357915D+03
 0.318246889357915D+03 0.000000000000000D+00 0.000000000000000D+00 -.318246889357915D+03
 0.153784042316819D+03 -.531981115849587D+02 -.109731166967701D+03 0.215246892428708D+02
 0.858167514892350D+02 -.296406861609267D+02 0.432393555002015D+02 0.679433786030822D+02
 0.168106670239162D+03 0.652416313688905D+02 0.102046169182172D+03 0.116575990111462D+03
 0.228786314670614D+03 0.175971663769950D+02 -.355543577146730D+02 -.206044057957415D+03
 0.000000000000000D+00 0.000000000000000D+00 0.000000000000000D+00 0.000000000000000D+00
 0.107567213643481D+04 0.000000000000000D+00 0.000000000000000D+00 0.107567213643481D+04
 0.766049876697007D+03 0.000000000000000D+00 0.000000000000000D+00 -.766049876697007D+03
 0.391707784707556D+03 -.170881426554930D+03 -.339788114959972D+03 0.215246892428708D+02
 0.104942423388088D+03 -.707946887478374D+02 -.372118472486893D+02 0.679433786030822D+02
 0.118112351854189D+03 0.349331240479404D+01 -.186644838798879D+02 0.116575990111462D+03
 0.390057476375654D+03 -.115910954498397D+03 -.296546927720143D+03 -.206044057957415D+03
 0.836901976806326D+03 0.354093757396370D+03 0.692211373808692D+03 0.309622259737798D+03
0.312179392149D-05 0.000000000000D+00 0.000000000000D+00 0.162499702885D-06 0.000000000000D+00  7 -2 2 23 -13 13 23 21 0 0.42678634D-01 0.56168279D-01 0.45210775D+05 0.45210775D+05 0.45210775D+05 0.11511617D+01  1  2  2  1  7  1       -2 0.174208287346D-03 0.100000000000D+01
-.139137970082D-06 0.000000000000D+00 -.119885106457D-07 0.162499702885D-06 0.000000000000D+00  7 -2 2 23 -13 13 23 21 2 0.42678634D-01 0.56168279D-01 0.45210775D+05 0.45210775D+05 0.45210775D+05 0.11511617D+01  1  2  3  1  7  1       -2 -.102892301039D-04 0.100000000000D+01
0.179130940545D-06 0.000000000000D+00 0.000000000000D+00 0.162499702885D-06 0.000000000000D+00  7 -2 2 23 -13 13 23 21 2 0.42678634D-01 0.56168279D-01 0.45210775D+05 0.45210775D+05 0.45210775D+05 0.11511617D+01  1  2 15  1  7  1       -2 0.132467037209D-04 0.100000000000D+01
0.359071561116D-05 0.000000000000D+00 -.148461590492D-05 0.162499702885D-06 0.000000000000D+00  7 -2 2 23 -13 13 23 21 2 0.27016047D+00 0.56168279D-01 0.45210775D+05 0.45210775D+05 0.45210775D+05 0.11511617D+01  1  2  5  1  7  1       -2 0.249116100778D-05 0.100000000000D+01
0.701371388859D-06 0.000000000000D+00 -.335690159892D-06 0.162499702885D-06 0.000000000000D+00  7 21 2 23 -13 13 23 2 2 0.27016047D+00 0.56168279D-01 0.45210775D+05 0.45210775D+05 0.45210775D+05 0.11511617D+01  1  2  5  3  7  1       -2 0.385800705161D-05 0.100000000000D+01
  </mgrwgt>
  </event>
  <event>
  8     66 0.53686478E-06 0.20387232E+03 0.75467711E-02 0.99443058E-01
       -2 -1    0    0    0  501 0.00000000E+00 0.00000000E+00 0.13800091E+03 0.13800128E+03 0.32000000E+00 0.0000E+00 0.9000E+01
        2 -1    0    0  501    0 0.00000000E+00 0.00000000E+00 -.84401659E+03 0.84401665E+03 0.32000000E+00 0.0000E+00 0.9000E+01
       25  2    1    2    0    0 -.15642785E+03 -.14819792E+03 -.63968740E+03 0.73875575E+03 0.30021292E+03 0.0000E+00 0.0000E+00
       23  2    1    2    0    0 0.15642785E+03 0.14819792E+03 -.66328281E+02 0.24326218E+03 0.91349629E+02 0.0000E+00 0.0000E+00
       23  1    3    3    0    0 -.17877450E+03 -.17601353E+03 -.41215921E+03 0.49105147E+03 0.91188000E+02 0.0000E+00 0.9000E+01
      -11  1    4    4    0    0 0.13234708E+03 0.12987654E+03 -.18075753E+02 0.18630726E+03 0.51099893E-03 0.0000E+00 0.9000E+01
       11  1    4    4    0    0 0.24080770E+02 0.18321383E+02 -.48252528E+02 0.56954921E+02 0.51099893E-03 0.0000E+00 0.9000E+01
       23  1    3    3    0    0 0.22346655E+02 0.27815607E+02 -.22752819E+03 0.24770428E+03 0.91188000E+02 0.0000E+00 0.9000E+01
#aMCatNLO 1  0  0  2  1 0.85143557D+02 0.00000000D+00  -5  7  0 0.00000000D+00 0.00000000D+00 0.00000000D+00 0.00000000D+00 0.00000000D+00
  <mgrwgt>
 0.2492926682D-03    6    2    0
 0.341284734399573D+03 0.000000000000000D+00 0.000000000000000D+00 0.341284734399573D+03
 0.341284734399573D+03 0.000000000000000D+00 0.000000000000000D+00 -.341284734399573D+03
 0.280162672611232D+03 -.178774500176832D+03 -.176013525405942D+03 -.850575613415058D+02
 0.249345033033108D+03 0.132347076006745D+03 0.129876535184378D+03 0.166701177498083D+03
 0.320314829155297D+02 0.240807696383401D+02 0.183213831888042D+02 -.105099642930922D+02
 0.121030280239276D+03 0.223466545317473D+02 0.278156070327595D+02 -.711336518634854D+02
 0.000000000000000D+00 0.000000000000000D+00 -.000000000000000D+00 0.000000000000000D+00
 0.388705389040900D+03 0.000000000000000D+00 0.000000000000000D+00 0.388705389040900D+03
 0.384406012672576D+03 0.000000000000000D+00 0.000000000000000D+00 -.384406012672576D+03
 0.298611914440348D+03 -.213649356573851D+03 -.167251271432971D+03 -.850575613415058D+02
 0.239213860567324D+03 0.102908289928387D+03 0.137272984859698D+03 0.166701177498083D+03
 0.299233373300949D+02 0.203475969878680D+02 0.192593370692733D+02 -.105099642930922D+02
 0.120110251915370D+03 0.781640109882581D+01 0.314663108355652D+02 -.711336518634854D+02
 0.852520374603379D+02 0.825770685587701D+02 -.207473613315656D+02 0.429937636832417D+01
0.351372612213D-05 0.000000000000D+00 0.000000000000D+00 0.105324347552D-05 0.000000000000D+00  7 -2 2 23 -11 11 23 21 0 0.21230943D-01 0.12984874D+00 0.84258223D+05 0.84258223D+05 0.84258223D+05 0.11278780D+01  1  2  2  2  7  2        2 0.255152179288D-03 0.100000000000D+01
-.188986134066D-06 0.000000000000D+00 -.134936334943D-07 0.105324347552D-05 0.000000000000D+00  7 -2 2 23 -11 11 23 21 2 0.21230943D-01 0.12984874D+00 0.84258223D+05 0.84258223D+05 0.84258223D+05 0.11278780D+01  1  2  3  2  7  2        2 -.174576417333D-04 0.100000000000D+01
0.224546617991D-06 0.000000000000D+00 0.000000000000D+00 0.105324347552D-05 0.000000000000D+00  7 -2 2 23 -11 11 23 21 2 0.21230943D-01 0.12984874D+00 0.84258223D+05 0.84258223D+05 0.84258223D+05 0.11278780D+01  1  2 15  2  7  2        2 0.207425503923D-04 0.100000000000D+01
0.250044710103D-05 0.000000000000D+00 0.000000000000D+00 0.105324347552D-05 0.000000000000D+00  7 -2 2 23 -11 11 23 21 2 0.21230943D-01 0.15416240D+00 0.11147119D+06 0.11147119D+06 0.11147119D+06 0.11178722D+01  1  2 12  2  7  2        2 0.179710940393D-03 0.100000000000D+01
-.208031987266D-05 0.000000000000D+00 0.000000000000D+00 0.105324347552D-05 0.000000000000D+00  7 -2 2 23 -11 11 23 21 2 0.21230943D-01 0.12984874D+00 0.84258223D+05 0.84258223D+05 0.84258223D+05 0.11278780D+01  1  2  4  2  7  2        2 -.192170072196D-03 0.100000000000D+01
0.635258312285D-07 0.000000000000D+00 0.000000000000D+00 0.105324347552D-05 0.000000000000D+00  7 -2 21 23 -11 11 23 -2 2 0.21230943D-01 0.15416240D+00 0.11147119D+06 0.11147119D+06 0.11147119D+06 0.11178722D+01  1  2 12  4  7  2        2 0.331471201958D-05 0.100000000000D+01
  </mgrwgt>
  </event>
  <event>
  8     66 0.53686478E-06 0.85684261E+02 0.75467711E-02 0.10496746E+00
       -2 -1    0    0    0  501 0.00000000E+00 0.00000000E+00 0.17241629E+03 0.17241659E+03 0.32000000E+00 0.0000E+00 0.9000E+01
        2 -1    0    0  501    0 0.00000000E+00 0.00000000E+00 -.54207979E+03 0.54207988E+03 0.32000000E+00 0.0000E+00 0.9000E+01
       25  2    1    2    0    0 -.71133846E+02 -.65918871E+02 -.45716935E+03 0.55519247E+03 0.29971577E+03 0.0000E+00 0.0000E+00
       23  2    1    2    0    0 0.71133846E+02 0.65918871E+02 0.87505850E+02 0.15930401E+03 0.91187561E+02 0.0000E+00 0.0000E+00
       23  1    3    3    0    0 0.50345852E+02 -.54141668E+02 -.34935250E+03 0.36854911E+03 0.91188000E+02 0.0000E+00 0.9000E+01
      -11  1    4    4    0    0 -.11399326E+02 -.99820690E+01 -.27053798E+01 0.15391732E+02 0.51099893E-03 0.0000E+00 0.9000E+01
       11  1    4    4    0    0 0.82533171E+02 0.75900940E+02 0.90211230E+02 0.14391228E+03 0.51099893E-03 0.0000E+00 0.9000E+01
       23  1    3    3    0    0 -.12147970E+03 -.11777203E+02 -.10781684E+03 0.18664336E+03 0.91188000E+02 0.0000E+00 0.9000E+01
#aMCatNLO 1  0  0  2  1 0.38749579D+02 0.00000000D+00  -5  7  0 0.00000000D+00 0.00000000D+00 0.00000000D+00 0.00000000D+00 0.00000000D+00
  <mgrwgt>
 0.2577158099D-03    9    2    0
 0.305718053105649D+03 0.000000000000000D+00 0.000000000000000D+00 0.305718053105649D+03
 0.305718053105649D+03 0.000000000000000D+00 0.000000000000000D+00 -.305718053105649D+03
 0.219457391578509D+03 0.503458520364414D+02 -.541416680802649D+02 -.185419174668248D+03
 0.163504538959130D+02 -.113993255388493D+02 -.998206897878707D+01 0.614418576903822D+01
 0.222709471484587D+03 0.825331712748765D+02 0.759009404243445D+02 0.192423573324466D+03
 0.152918789252289D+03 -.121479697772469D+03 -.117772033652926D+02 -.131485844252570D+02
 0.000000000000000D+00 -.000000000000000D+00 0.000000000000000D+00 -.000000000000000D+00
 0.316838283079525D+03 0.000000000000000D+00 0.000000000000000D+00 0.316838283079525D+03
 0.342058575454383D+03 0.000000000000000D+00 0.000000000000000D+00 -.342058575454383D+03
 0.224490054169717D+03 0.576847980565170D+02 -.661265968854213D+02 -.185419174668248D+03
 0.165454884713979D+02 -.108555189517738D+02 -.108701369945547D+02 0.614418576903822D+01
 0.221785534381723D+03 0.898811690739136D+02 0.639012295338429D+02 0.192423573324466D+03
 0.149841670234489D+03 -.116474729976242D+03 -.199506089940826D+02 -.131485844252570D+02
 0.462341112765808D+02 -.202357182024144D+02 0.330461133402158D+02 -.252202923748584D+02
0.204770949674D-05 0.000000000000D+00 0.000000000000D+00 0.553879557579D-06 0.000000000000D+00  7 -2 2 23 -11 11 23 21 0 0.26525614D-01 0.83396921D-01 0.39407450D+05 0.39407450D+05 0.39407450D+05 0.11565023D+01  1  2  2  2  7  2        2 0.173220152093D-03 0.100000000000D+01
-.879711766145D-07 0.000000000000D+00 -.786374364179D-08 0.553879557579D-06 0.000000000000D+00  7 -2 2 23 -11 11 23 21 2 0.26525614D-01 0.83396921D-01 0.39407450D+05 0.39407450D+05 0.39407450D+05 0.11565023D+01  1  2  3  2  7  2        2 -.995321627605D-05 0.100000000000D+01
0.127704799975D-06 0.000000000000D+00 0.000000000000D+00 0.553879557579D-06 0.000000000000D+00  7 -2 2 23 -11 11 23 21 2 0.26525614D-01 0.83396921D-01 0.39407450D+05 0.39407450D+05 0.39407450D+05 0.11565023D+01  1  2 15  2  7  2        2 0.144487494946D-04 0.100000000000D+01
0.475543542401D-05 0.000000000000D+00 0.000000000000D+00 0.553879557579D-06 0.000000000000D+00  7 -2 2 23 -11 11 23 21 2 0.26525614D-01 0.94700187D-01 0.48446088D+05 0.48446088D+05 0.48446088D+05 0.11485034D+01  1  2 12  2  7  2        2 0.459641868154D-03 0.100000000000D+01
-.479366181301D-05 0.000000000000D+00 0.000000000000D+00 0.553879557579D-06 0.000000000000D+00  7 -2 2 23 -11 11 23 21 2 0.26525614D-01 0.83396921D-01 0.39407450D+05 0.39407450D+05 0.39407450D+05 0.11565023D+01  1  2  4  2  7  2        2 -.542363471939D-03 0.100000000000D+01
-.932849967336D-05 0.000000000000D+00 -.208703290443D-05 0.553879557579D-06 0.000000000000D+00  7 -2 2 23 -11 11 23 21 2 0.26525614D-01 0.95726420D-01 0.39407450D+05 0.39407450D+05 0.39407450D+05 0.11565023D+01  1  2  5  2  7  2        2 -.903664575330D-03 0.100000000000D+01
0.954507111042D-05 0.000000000000D+00 0.206734982520D-05 0.553879557579D-06 0.000000000000D+00  7 -2 2 23 -11 11 23 21 2 0.26525614D-01 0.83396921D-01 0.39407450D+05 0.39407450D+05 0.39407450D+05 0.11565023D+01  1  2  6  2  7  2        2 0.107994641868D-02 0.100000000000D+01
0.946783555987D-07 0.000000000000D+00 0.000000000000D+00 0.553879557579D-06 0.000000000000D+00  7 -2 21 23 -11 11 23 -2 2 0.26525614D-01 0.94700187D-01 0.48446088D+05 0.48446088D+05 0.48446088D+05 0.11485034D+01  1  2 12  4  7  2        2 0.141081910849D-04 0.100000000000D+01
-.186222489622D-06 0.000000000000D+00 -.444464626213D-07 0.553879557579D-06 0.000000000000D+00  7 -2 21 23 -11 11 23 -2 2 0.26525614D-01 0.95726420D-01 0.39407450D+05 0.39407450D+05 0.39407450D+05 0.11565023D+01  1  2  5  4  7  2        2 -.276683060567D-04 0.100000000000D+01
  </mgrwgt>
  </event>
  <event>
  8     66 0.53686478E-06 0.33031301E+03 0.75467711E-02 0.98731117E-01
       -2 -1    0    0    0  502 0.00000000E+00 0.00000000E+00 0.16169434E+03 0.16169466E+03 0.32000000E+00 0.0000E+00 0.9000E+01
        2 -1    0    0  501    0 0.00000000E+00 0.00000000E+00 -.13927180E+04 0.13927180E+04 0.32000000E+00 0.0000E+00 0.9000E+01
       23  2    1    2    0    0 -.29963981E+03 0.39462941E+02 -.76088030E+02 0.32459912E+03 0.90740635E+02 0.0000E+00 0.0000E+00
       23  1    1    2    0    0 0.10008298E+03 0.29473894E+01 -.62675737E+03 0.64122176E+03 0.91188000E+02 0.0000E+00 0.9000E+01
      -11  1    3    3    0    0 -.66488591E+02 -.27110864E+02 -.29845889E+02 0.77759300E+02 0.51099893E-03 0.0000E+00 0.9000E+01
       11  1    3    3    0    0 -.23315122E+03 0.66573805E+02 -.46242140E+02 0.24683982E+03 0.51099893E-03 0.0000E+00 0.9000E+01
       23  1    1    2    0    0 0.17314155E+03 -.79976236E+02 -.39987917E+03 0.45231935E+03 0.91188000E+02 0.0000E+00 0.9000E+01
       21  1    1    2  501  502 0.26415279E+02 0.37565905E+02 -.12829905E+03 0.13627242E+03 0.75000000E+00 0.0000E+00 0.9000E+01
#aMCatNLO 2  0  0  1  1 0.45923460D+02 0.00000000D+00  -5  7  0 0.00000000D+00 0.00000000D+00 0.00000000D+00 0.00000000D+00 0.00000000D+00
  <mgrwgt>
 0.8392137877D-04    1    2    0
 0.445255903004684D+03 0.000000000000000D+00 0.000000000000000D+00 0.445255903004684D+03
 0.445255903004684D+03 0.000000000000000D+00 0.000000000000000D+00 -.445255903004684D+03
 0.248122552013219D+03 0.107387494946150D+03 0.133353445669115D+02 -.203812766989767D+03
 0.837574942867230D+02 -.639612648792927D+02 -.235166832108494D+02 0.486953802222753D+02
 0.331723046074736D+03 -.223263564687437D+03 0.806353121216899D+02 0.231714277547150D+03
 0.226908713634688D+03 0.179837334620580D+03 -.704539734777519D+02 -.765968907796585D+02
 0.000000000000000D+00 0.000000000000000D+00 0.000000000000000D+00 -.000000000000000D+00
 0.457115740652995D+03 0.000000000000000D+00 0.000000000000000D+00 0.457115740652995D+03
 0.492637892614617D+03 0.000000000000000D+00 0.000000000000000D+00 -.492637892614617D+03
 0.244704281136121D+03 0.100082979421666D+03 0.294738942164320D+01 -.203812766989767D+03
 0.867581216502654D+02 -.664885906659575D+02 -.271108636628388D+02 0.486953802222753D+02
 0.335384955362956D+03 -.233151217764015D+03 0.665738050570282D+02 0.231714277547150D+03
 0.224847792012749D+03 0.173141549840151D+03 -.799762356631526D+02 -.765968907796585D+02
 0.580584831055207D+02 0.264152791681558D+02 0.375659048473200D+02 -.355221519616213D+02
0.257898223090D-05 0.000000000000D+00 0.000000000000D+00 0.715265158044D-10 0.225925703009D-12  7 -2 2 23 -11 11 23 21 2 0.24875950D-01 0.21426321D+00 0.12497025D+06 0.12497025D+06 0.12497025D+06 0.11138635D+01  1  2  1  1  7  1       -2 0.839213787723D-04 0.100000000000D+01
  </mgrwgt>
  </event>
  <event>
  9     66 0.53686478E-06 0.30003230E+03 0.75467711E-02 0.94854439E-01
       -2 -1    0    0    0  502 0.00000000E+00 0.00000000E+00 0.48050128E+03 0.48050139E+03 0.32000000E+00 0.0000E+00 0.9000E+01
        2 -1    0    0  501    0 0.00000000E+00 0.00000000E+00 -.70444119E+03 0.70444127E+03 0.32000000E+00 0.0000E+00 0.9000E+01
       25  2    1    2    0    0 -.84103779E+02 0.17024026E+03 -.19695097E+03 0.40670149E+03 0.30093392E+03 0.0000E+00 0.0000E+00
       23  2    1    2    0    0 0.30833970E+03 0.37068485E+02 -.24256489E+03 0.40443344E+03 0.91001305E+02 0.0000E+00 0.0000E+00
       23  1    3    3    0    0 0.72827024E+02 0.23403030E+02 -.40753703E+02 0.12580776E+03 0.91188000E+02 0.0000E+00 0.9000E+01
      -11  1    4    4    0    0 0.27852125E+03 0.52049640E+01 -.19598262E+03 0.34060295E+03 0.51099893E-03 0.0000E+00 0.9000E+01
       11  1    4    4    0    0 0.29818443E+02 0.31863521E+02 -.46582269E+02 0.63830488E+02 0.51099893E-03 0.0000E+00 0.9000E+01
       23  1    3    3    0    0 -.15693080E+03 0.14683723E+03 -.15619727E+03 0.28089373E+03 0.91188000E+02 0.0000E+00 0.9000E+01
       21  1    1    2  501  502 -.22423592E+03 -.20730874E+03 0.21557596E+03 0.37380773E+03 0.75000000E+00 0.0000E+00 0.9000E+01
#aMCatNLO 2  0  0  1  2 0.30538281D+03 0.00000000D+00  -5  7  0 0.00000000D+00 0.00000000D+00 0.00000000D+00 0.00000000D+00 0.00000000D+00
  <mgrwgt>
 0.2769228464D-04    1    2    0
 0.304756876645742D+03 0.000000000000000D+00 0.000000000000000D+00 0.304756876645742D+03
 0.304756876645742D+03 0.000000000000000D+00 0.000000000000000D+00 -.304756876645742D+03
 0.103284106754882D+03 0.334593016635203D+02 -.129928921900113D+02 0.326192466019997D+02
 0.207713070908203D+03 0.194016813307100D+03 -.729203851344107D+02 -.135946096715997D+02
 0.295473892839715D+02 0.167139244982441D+02 0.197482393089809D+02 -.142723503867014D+02
 0.268969186344428D+03 -.244190039468865D+03 0.661650380154411D+02 -.475228654369867D+01
 0.000000000000000D+00 -.000000000000000D+00 -.000000000000000D+00 0.000000000000000D+00
 0.881481952329196D+03 0.000000000000000D+00 0.000000000000000D+00 0.881481952329196D+03
 0.383994948401404D+03 0.000000000000000D+00 0.000000000000000D+00 -.383994948401404D+03
 0.123412900012776D+03 0.728270242800265D+02 0.234030303849273D+02 0.326192466019997D+02
 0.278901405316915D+03 0.278521253812752D+03 0.520496399596156D+01 -.135946096715997D+02
 0.459143056320014D+02 0.298184427977211D+02 0.318635206031458D+02 -.142723503867014D+02
 0.233508638316028D+03 -.156930803432933D+03 0.146837228013561D+03 -.475228654369867D+01
 0.583739651452881D+03 -.224235917457567D+03 -.207308742997595D+03 0.497487003927792D+03
0.273518556593D-05 0.000000000000D+00 0.000000000000D+00 0.950722076897D-07 0.123439570954D-10  7 -2 2 23 -11 11 23 21 2 0.73923246D-01 0.10837552D+00 0.24013760D+06 0.24013760D+06 0.24013760D+06 0.10917766D+01  1  2  1  1  7  1       -2 0.276922846411D-04 0.100000000000D+01
  </mgrwgt>
  </event>
  <event>
  8     66 0.53686478E-06 0.13809603E+03 0.75467711E-02 0.10713570E+00
       -2 -1    0    0    0  501 0.00000000E+00 0.00000000E+00 0.22290206E+02 0.22292503E+02 0.32000000E+00 0.0000E+00 0.9000E+01
        2 -1    0    0  501    0 0.00000000E+00 0.00000000E+00 -.22362053E+04 0.22362053E+04 0.32000000E+00 0.0000E+00 0.9000E+01
       25  2    1    2    0    0 0.78530806E+01 0.93364688E+00 -.20325589E+04 0.20551095E+04 0.30350762E+03 0.0000E+00 0.0000E+00
       23  2    1    2    0    0 -.78530806E+01 -.93364688E+00 -.18135620E+03 0.20338832E+03 0.91728923E+02 0.0000E+00 0.0000E+00
       23  1    3    3    0    0 -.20309168E+02 -.48292741E+00 -.20755774E+03 0.22761406E+03 0.91188000E+02 0.0000E+00 0.9000E+01
      -11  1    4    4    0    0 -.13063973E+02 0.42044540E+02 -.59126587E+02 0.73718139E+02 0.51099893E-03 0.0000E+00 0.9000E+01
       11  1    4    4    0    0 0.52108929E+01 -.42978186E+02 -.12222961E+03 0.12967018E+03 0.51099893E-03 0.0000E+00 0.9000E+01
       23  1    3    3    0    0 0.28162249E+02 0.14165743E+01 -.18250011E+04 0.18274954E+04 0.91188000E+02 0.0000E+00 0.9000E+01
#aMCatNLO 1  0  0  1  2 0.94029089D+02 0.00000000D+00  -5  7  0 0.00000000D+00 0.00000000D+00 0.00000000D+00 0.00000000D+00 0.00000000D+00
  <mgrwgt>
 0.3237670199D-03    4    2    0
 0.223266871378728D+03 0.000000000000000D+00 0.000000000000000D+00 0.223266871378728D+03
 0.223266871378728D+03 0.000000000000000D+00 0.000000000000000D+00 -.223266871378728D+03
 0.122164686413645D+03 -.203091674172466D+02 -.482927374758515D+00 0.787163500329701D+02
 0.797050931211159D+02 -.130639736481689D+02 0.420445395044982D+02 0.664416372451823D+02
 0.498368613530222D+02 0.521089273837262D+01 -.429781864204801D+02 0.246867340568977D+02
 0.194827101869673D+03 0.281622483270429D+02 0.141657429074038D+01 -.169844721335050D+03
 0.000000000000000D+00 0.000000000000000D+00 0.000000000000000D+00 -.000000000000000D+00
 0.243598337829475D+03 0.000000000000000D+00 0.000000000000000D+00 0.243598337829475D+03
 0.371367199376085D+03 0.000000000000000D+00 0.000000000000000D+00 -.371367199376085D+03
 0.125056196989610D+03 -.209757023260432D+02 -.262213121510036D+02 0.787163500329701D+02
 0.726737016059997D+02 -.134748037716108D+02 0.261802484444683D+02 0.664416372451823D+02
 0.599485272740301D+02 0.491489915972187D+01 -.544080403082018D+02 0.246867340568977D+02
 0.198648050521981D+03 0.271013956951667D+02 -.395484717552635D+02 -.169844721335050D+03
 0.158639060813938D+03 0.243421124276531D+01 0.939975757700006D+02 -.127768861546611D+03
0.166856016016D-05 0.000000000000D+00 0.000000000000D+00 0.456254144989D-08 0.000000000000D+00  7 -2 2 23 -11 11 23 21 0 0.34294409D-02 0.34403176D+00 0.19070513D+05 0.19070513D+05 0.19070513D+05 0.11860440D+01  1  2  2  1  7  1       -2 0.340263879182D-03 0.100000000000D+01
-.666847963298D-07 0.000000000000D+00 -.640771035701D-08 0.456254144989D-08 0.000000000000D+00  7 -2 2 23 -11 11 23 21 2 0.34294409D-02 0.34403176D+00 0.19070513D+05 0.19070513D+05 0.19070513D+05 0.11860440D+01  1  2  3  1  7  1       -2 -.191294460802D-04 0.100000000000D+01
0.981607972455D-07 0.000000000000D+00 0.000000000000D+00 0.456254144989D-08 0.000000000000D+00  7 -2 2 23 -11 11 23 21 2 0.34294409D-02 0.34403176D+00 0.19070513D+05 0.19070513D+05 0.19070513D+05 0.11860440D+01  1  2 15  1  7  1       -2 0.281587675369D-04 0.100000000000D+01
-.889836619159D-07 0.000000000000D+00 0.000000000000D+00 0.456254144989D-08 0.000000000000D+00  7 -2 2 23 -11 11 23 21 2 0.34294409D-02 0.34403176D+00 0.19070513D+05 0.19070513D+05 0.19070513D+05 0.11860440D+01  1  2  4  1  7  1       -2 -.255261807237D-04 0.100000000000D+01
  </mgrwgt>
  </event>
  <event>
  8     66 0.53686478E-06 0.31309631E+03 0.75467711E-02 0.77498680E-01
       -2 -1    0    0    0  501 0.00000000E+00 0.00000000E+00 0.13300272E+03 0.13300310E+03 0.32000000E+00 0.0000E+00 0.9000E+01
        2 -1    0    0  501    0 0.00000000E+00 0.00000000E+00 -.81167238E+03 0.81167244E+03 0.32000000E+00 0.0000E+00 0.9000E+01
       25  2    1    2    0    0 -.14310066E+03 -.20502390E+03 -.40451059E+03 0.56223516E+03 0.29994492E+03 0.0000E+00 0.0000E+00
       23  2    1    2    0    0 0.14310066E+03 0.20502390E+03 -.27415907E+03 0.38244039E+03 0.92654493E+02 0.0000E+00 0.0000E+00
       23  1    3    3    0    0 -.23294482E+02 -.20322592E+03 -.16060099E+03 0.27559270E+03 0.91188000E+02 0.0000E+00 0.9000E+01
      -13  1    4    4    0    0 0.38740760E+02 0.79363416E+02 -.40032590E+02 0.96964002E+02 0.10565837E+00 0.0000E+00 0.9000E+01
       13  1    4    4    0    0 0.10435990E+03 0.12566048E+03 -.23412648E+03 0.28547638E+03 0.10565837E+00 0.0000E+00 0.9000E+01
       23  1    3    3    0    0 -.11980618E+03 -.17979783E+01 -.24390960E+03 0.28664245E+03 0.91188000E+02 0.0000E+00 0.9000E+01
#aMCatNLO 1  0  0  2  2 0.31550940D+04 0.00000000D+00  -5  7  0 0.00000000D+00 0.00000000D+00 0.00000000D+00 0.00000000D+00 0.00000000D+00
  <mgrwgt>
 0.3391934892D-03    3    2    0
 0.328564823337885D+03 0.000000000000000D+00 0.000000000000000D+00 0.328564823337885D+03
 0.328564823337885D+03 0.000000000000000D+00 0.000000000000000D+00 -.328564823337885D+03
 0.230320857740287D+03 -.232944828060763D+02 -.203225919214533D+03 0.537497813616647D+02
 0.980484706887146D+02 0.387406750205519D+02 0.793633561380574D+02 0.425924923648709D+02
 0.168593944622192D+03 0.104359988353669D+03 0.125660541779621D+03 -.417413372299574D+02
 0.160166373624576D+03 -.119806180568145D+03 -.179797870314512D+01 -.546009364965781D+02
 0.000000000000000D+00 -.000000000000000D+00 0.000000000000000D+00 0.000000000000000D+00
 0.469348824257528D+04 0.000000000000000D+00 0.000000000000000D+00 0.469348824257528D+04
 0.241885705005041D+04 0.000000000000000D+00 0.000000000000000D+00 -.241885705005041D+04
 0.209715930200499D+04 0.869434823110029D+02 -.209268097868004D+04 0.537497813616647D+02
 0.111296307280654D+03 0.486560086635058D+02 -.905833341702274D+02 0.425924923648709D+02
 0.253716670100859D+03 0.124362162215167D+03 -.217172424728582D+03 -.417413372299574D+02
 0.760627372902586D+03 -.761940240972622D+02 -.749300979240153D+03 -.546009364965781D+02
 0.388954564033661D+04 -.183767629092414D+03 0.314973771681900D+04 0.227463119252487D+04
0.413988078419D-05 0.000000000000D+00 0.000000000000D+00 0.293558718841D-06 0.000000000000D+00  7 -2 2 23 -13 13 23 21 0 0.20461991D-01 0.12487271D+00 0.98029301D+05 0.98029301D+05 0.98029301D+05 0.11224321D+01  1  2  2  2  7  2        2 0.335595741094D-03 0.100000000000D+01
-.229343081586D-06 0.000000000000D+00 -.158982322669D-07 0.293558718841D-06 0.000000000000D+00  7 -2 2 23 -13 13 23 21 2 0.20461991D-01 0.12487271D+00 0.98029301D+05 0.98029301D+05 0.98029301D+05 0.11224321D+01  1  2  3  2  7  2        2 -.234225617571D-04 0.100000000000D+01
0.264570596708D-06 0.000000000000D+00 0.000000000000D+00 0.293558718841D-06 0.000000000000D+00  7 -2 2 23 -13 13 23 21 2 0.20461991D-01 0.12487271D+00 0.98029301D+05 0.98029301D+05 0.98029301D+05 0.11224321D+01  1  2 15  2  7  2        2 0.270203099115D-04 0.100000000000D+01
  </mgrwgt>
  </event>
  <event>
  8     66 0.53686478E-06 0.21727686E+03 0.75467711E-02 0.10176879E+00
       -2 -1    0    0    0  501 0.00000000E+00 0.00000000E+00 0.73200711E+02 0.73201410E+02 0.32000000E+00 0.0000E+00 0.9000E+01
        2 -1    0    0  501    0 0.00000000E+00 0.00000000E+00 -.13262569E+04 0.13262569E+04 0.32000000E+00 0.0000E+00 0.9000E+01
       25  2    1    2    0    0 -.31944024E+02 0.10594375E+03 -.30817482E+03 0.44382941E+03 0.29961363E+03 0.0000E+00 0.0000E+00
       23  2    1    2    0    0 0.31944024E+02 -.10594375E+03 -.94488132E+03 0.95562889E+03 0.90450947E+02 0.0000E+00 0.0000E+00
       23  1    3    3    0    0 -.52466036E+02 -.45002791E+02 -.38057132E+02 0.12058828E+03 0.91188000E+02 0.0000E+00 0.9000E+01
      -11  1    4    4    0    0 0.62554158E+02 -.55734298E+02 -.52270970E+03 0.52938149E+03 0.51099893E-03 0.0000E+00 0.9000E+01
       11  1    4    4    0    0 -.30610135E+02 -.50209452E+02 -.42217162E+03 0.42624740E+03 0.51099893E-03 0.0000E+00 0.9000E+01
       23  1    3    3    0    0 0.20522012E+02 0.15094654E+03 -.27011769E+03 0.32324113E+03 0.91188000E+02 0.0000E+00 0.9000E+01
#aMCatNLO 1  0  0  1  2 0.10106926D+03 0.00000000D+00  -5  7  0 0.00000000D+00 0.00000000D+00 0.00000000D+00 0.00000000D+00 0.00000000D+00
  <mgrwgt>
 0.2408790246D-03    4    2    0
 0.311582189723646D+03 0.000000000000000D+00 0.000000000000000D+00 0.311582189723646D+03
 0.311582189723646D+03 0.000000000000000D+00 0.000000000000000D+00 -.311582189723646D+03
 0.194283478959285D+03 -.524660357370240D+02 -.450027910989793D+02 0.157012364926671D+03
 0.137785033514902D+03 0.625541583586942D+02 -.557342975965506D+02 -.109386383083807D+03
 0.108335334411020D+03 -.306101348104692D+02 -.502094518619659D+02 -.909866763463390D+02
 0.182760532562084D+03 0.205220121887990D+02 0.150946540557496D+03 0.433606945034752D+02
 0.000000000000000D+00 -.000000000000000D+00 0.000000000000000D+00 -.000000000000000D+00
 0.328081670565783D+03 0.000000000000000D+00 0.000000000000000D+00 0.328081670565783D+03
 0.521136304025293D+03 0.000000000000000D+00 0.000000000000000D+00 -.521136304025293D+03
 0.197577733753863D+03 -.335731653280258D+02 -.702970081959653D+02 0.157012364926671D+03
 0.152898929562369D+03 0.765689530518680D+02 -.744976327523346D+02 -.109386383083807D+03
 0.113304321845579D+03 -.199241848687583D+02 -.645160517518602D+02 -.909866763463390D+02
 0.167526260305188D+03 0.374104481169280D+02 0.128335907257900D+03 0.433606945034752D+02
 0.217910729124077D+03 -.604820509720119D+02 0.809747854422597D+02 -.193054633459510D+03
0.240941554536D-05 0.000000000000D+00 0.000000000000D+00 0.204012600431D-06 0.000000000000D+00  7 -2 2 23 -11 11 23 21 0 0.11261705D-01 0.20403957D+00 0.47209234D+05 0.47209234D+05 0.47209234D+05 0.11494958D+01  1  2  2  1  7  1       -2 0.251556635133D-03 0.100000000000D+01
-.112706487227D-06 0.000000000000D+00 -.925279010788D-08 0.204012600431D-06 0.000000000000D+00  7 -2 2 23 -11 11 23 21 2 0.11261705D-01 0.20403957D+00 0.47209234D+05 0.47209234D+05 0.47209234D+05 0.11494958D+01  1  2  3  1  7  1       -2 -.155484749407D-04 0.100000000000D+01
0.144074999112D-06 0.000000000000D+00 0.000000000000D+00 0.204012600431D-06 0.000000000000D+00  7 -2 2 23 -11 11 23 21 2 0.11261705D-01 0.20403957D+00 0.47209234D+05 0.47209234D+05 0.47209234D+05 0.11494958D+01  1  2 15  1  7  1       -2 0.198759323301D-04 0.100000000000D+01
-.108767483487D-06 0.000000000000D+00 0.000000000000D+00 0.204012600431D-06 0.000000000000D+00  7 -2 2 23 -11 11 23 21 2 0.11261705D-01 0.20403957D+00 0.47209234D+05 0.47209234D+05 0.47209234D+05 0.11494958D+01  1  2  4  1  7  1       -2 -.150050678800D-04 0.100000000000D+01
  </mgrwgt>
  </event>
  <event>
  7     66 0.53686478E-06 0.21744753E+03 0.75467711E-02 0.10270089E+00
       -2 -1    0    0    0  501 0.00000000E+00 0.00000000E+00 0.51754503E+03 0.51754512E+03 0.32000000E+00 0.0000E+00 0.9000E+01
        2 -1    0    0  501    0 0.00000000E+00 0.00000000E+00 -.17024982E+03 0.17025012E+03 0.32000000E+00 0.0000E+00 0.9000E+01
       25  2    1    2    0    0 -.11740837E+03 0.57656661E+02 0.33883773E+03 0.47561379E+03 0.30706425E+03 0.0000E+00 0.0000E+00
       23  1    3    3    0    0 0.44743222E+01 -.34180341E+02 0.26634391E+03 0.28362413E+03 0.91188000E+02 0.0000E+00 0.9000E+01
      -13  1    1    2    0    0 0.83277512E+01 -.49550020E+02 0.70390420E+02 0.86483399E+02 0.10565837E+00 0.0000E+00 0.9000E+01
       13  1    1    2    0    0 0.10908062E+03 -.81066405E+01 -.61932944E+02 0.12569805E+03 0.10565837E+00 0.0000E+00 0.9000E+01
       23  1    3    3    0    0 -.12188269E+03 0.91837002E+02 0.72493819E+02 0.19198966E+03 0.91188000E+02 0.0000E+00 0.9000E+01
#aMCatNLO 1  0  0  2  1 0.89562088D+02 0.00000000D+00  -5  7  0 0.00000000D+00 0.00000000D+00 0.00000000D+00 0.00000000D+00 0.00000000D+00
  <mgrwgt>
 0.4260102335D-03    4    2    0
 0.296836797549947D+03 0.000000000000000D+00 0.000000000000000D+00 0.296836797549947D+03
 0.296836797549947D+03 0.000000000000000D+00 0.000000000000000D+00 -.296836797549947D+03
 0.172783991006632D+03 0.446954680477781D+01 -.341779963549427D+02 0.142656734578853D+03
 0.590079279088244D+02 0.833319613636041D+01 -.495458426264059D+02 0.309467748995817D+02
 0.181858325372994D+03 0.109084927240794D+03 -.811560635419919D+01 -.145282710911670D+03
 0.180023350811443D+03 -.121887670181933D+03 0.918394453355478D+02 -.283207985667641D+02
 0.000000000000000D+00 0.000000000000000D+00 -.000000000000000D+00 0.000000000000000D+00
 0.509857721586554D+03 0.000000000000000D+00 0.000000000000000D+00 0.509857721586554D+03
 0.309760284819768D+03 0.000000000000000D+00 0.000000000000000D+00 -.309760284819768D+03
 0.172395127056647D+03 -.199596064685712D+02 -.256027084074344D+02 0.142656734578853D+03
 0.560137731718853D+02 0.192834745939114D+00 -.466883574676470D+02 0.309467748995817D+02
 0.167982863895711D+03 0.843258280173903D+02 0.575501470370666D+00 -.145282710911670D+03
 0.203999529167917D+03 -.149065889560108D+03 0.101379729211152D+03 -.283207985667641D+02
 0.219226713114162D+03 0.845068332653493D+02 -.296641648064414D+02 0.200097436766786D+03
0.121931645388D-04 0.000000000000D+00 0.000000000000D+00 0.257447366148D-11 0.000000000000D+00  7 -2 2 23 -13 13 23 21 0 0.79622342D-01 0.26192311D-01 0.47283428D+05 0.47283428D+05 0.47283428D+05 0.11494355D+01  1  2  2  2  7  2        2 0.444742105880D-03 0.100000000000D+01
-.597621684921D-06 0.000000000000D+00 -.468249623629D-07 0.257447366148D-11 0.000000000000D+00  7 -2 2 23 -13 13 23 21 2 0.79622342D-01 0.26192311D-01 0.47283428D+05 0.47283428D+05 0.47283428D+05 0.11494355D+01  1  2  3  2  7  2        2 -.287996614242D-04 0.100000000000D+01
0.785307628060D-06 0.000000000000D+00 0.000000000000D+00 0.257447366148D-11 0.000000000000D+00  7 -2 2 23 -13 13 23 21 2 0.79622342D-01 0.26192311D-01 0.47283428D+05 0.47283428D+05 0.47283428D+05 0.11494355D+01  1  2 15  2  7  2        2 0.378443325813D-04 0.100000000000D+01
-.576390968991D-06 0.000000000000D+00 0.000000000000D+00 0.257447366148D-11 0.000000000000D+00  7 -2 2 23 -13 13 23 21 2 0.79622342D-01 0.26192311D-01 0.47283428D+05 0.47283428D+05 0.47283428D+05 0.11494355D+01  1  2  4  2  7  2        2 -.277765435454D-04 0.100000000000D+01
  </mgrwgt>
  </event>
  <event>
  8     66 0.53686478E-06 0.11251122E+03 0.75467711E-02 0.10246634E+00
       -2 -1    0    0    0  501 0.00000000E+00 0.00000000E+00 0.37478823E+02 0.37480189E+02 0.32000000E+00 0.0000E+00 0.9000E+01
        2 -1    0    0  501    0 0.00000000E+00 0.00000000E+00 -.20634961E+04 0.20634961E+04 0.32000000E+00 0.0000E+00 0.9000E+01
       25  2    1    2    0    0 0.66849758E+02 0.11432598E+03 -.17494243E+04 0.17799389E+04 0.30026321E+03 0.0000E+00 0.0000E+00
       23  2    1    2    0    0 -.66849758E+02 -.11432598E+03 -.27659295E+03 0.32103732E+03 0.94984128E+02 0.0000E+00 0.0000E+00
       23  1    3    3    0    0 0.10362523E+03 -.39170141E+02 -.66534114E+03 0.68063689E+03 0.91188000E+02 0.0000E+00 0.9000E+01
      -13  1    4    4    0    0 -.64755335E+02 -.21563265E+02 -.14212826E+03 0.15766636E+03 0.10565837E+00 0.0000E+00 0.9000E+01
       13  1    4    4    0    0 -.20944236E+01 -.92762719E+02 -.13446469E+03 0.16337096E+03 0.10565837E+00 0.0000E+00 0.9000E+01
       23  1    3    3    0    0 -.36775472E+02 0.15349612E+03 -.10840832E+04 0.10993021E+04 0.91188000E+02 0.0000E+00 0.9000E+01
#aMCatNLO 1  0  0  1  2 0.40224525D+02 0.00000000D+00  -5  7  0 0.00000000D+00 0.00000000D+00 0.00000000D+00 0.00000000D+00 0.00000000D+00
  <mgrwgt>
 0.2700563666D-03    9    2    0
 0.278098658780660D+03 0.000000000000000D+00 0.000000000000000D+00 0.278098658780660D+03
 0.278098658780660D+03 0.000000000000000D+00 0.000000000000000D+00 -.278098658780660D+03
 0.147446475671237D+03 0.103625234775035D+03 -.391701337659266D+02 -.339517773091049D+02
 0.778481589196366D+02 -.647553803680020D+02 -.215632030121700D+02 0.374446903636325D+02
 0.127312331669113D+03 -.209438825233423D+01 -.927627980744372D+02 0.871728548705146D+02
 0.203590351301333D+03 -.367754661546988D+02 0.153496134852534D+03 -.906657679250423D+02
 0.000000000000000D+00 -.000000000000000D+00 0.000000000000000D+00 0.000000000000000D+00
 0.355018160643266D+03 0.000000000000000D+00 0.000000000000000D+00 0.355018160643266D+03
 0.284133890177564D+03 0.000000000000000D+00 0.000000000000000D+00 -.284133890177564D+03
 0.155763379800726D+03 0.113219956050138D+03 -.444465691870940D+02 -.339517773091049D+02
 0.746993711167455D+02 -.599281921830197D+02 -.242178238180890D+02 0.374446903636325D+02
 0.130744832984539D+03 0.607152892750506D+01 -.972534897181673D+02 0.871728548705146D+02
 0.196442367636089D+03 -.241168985987343D+02 0.146534795140994D+03 -.906657679250423D+02
 0.815020992827302D+02 -.352463941958889D+02 0.193830875823567D+02 0.708842704657014D+02
0.214059650800D-05 0.000000000000D+00 0.000000000000D+00 0.238173610319D-07 0.000000000000D+00  7 -2 2 23 -13 13 23 21 0 0.57660797D-02 0.31746104D+00 0.59245873D+05 0.59245873D+05 0.59245873D+05 0.11408697D+01  1  2  2  1  7  1       -2 0.248790812664D-03 0.100000000000D+01
-.116354709630D-06 0.000000000000D+00 -.822045422274D-08 0.238173610319D-07 0.000000000000D+00  7 -2 2 23 -13 13 23 21 2 0.57660797D-02 0.31746104D+00 0.59245873D+05 0.59245873D+05 0.59245873D+05 0.11408697D+01  1  2  3  1  7  1       -2 -.176017385997D-04 0.100000000000D+01
0.134506292169D-06 0.000000000000D+00 0.000000000000D+00 0.238173610319D-07 0.000000000000D+00  7 -2 2 23 -13 13 23 21 2 0.57660797D-02 0.31746104D+00 0.59245873D+05 0.59245873D+05 0.59245873D+05 0.11408697D+01  1  2 15  1  7  1       -2 0.203476473132D-04 0.100000000000D+01
0.773526794815D-05 0.000000000000D+00 0.000000000000D+00 0.238173610319D-07 0.000000000000D+00  7 -2 2 23 -13 13 23 21 2 0.74113494D-02 0.31746104D+00 0.69851857D+05 0.69851857D+05 0.69851857D+05 0.11347378D+01  1  2 12  1  7  1       -2 0.793178674546D-03 0.100000000000D+01
-.775169160530D-05 0.000000000000D+00 0.000000000000D+00 0.238173610319D-07 0.000000000000D+00  7 -2 2 23 -13 13 23 21 2 0.57660797D-02 0.31746104D+00 0.59245873D+05 0.59245873D+05 0.59245873D+05 0.11408697D+01  1  2  4  1  7  1       -2 -.117264913278D-02 0.100000000000D+01
-.956828052369D-05 0.000000000000D+00 -.121349752818D-05 0.238173610319D-07 0.000000000000D+00  7 -2 2 23 -13 13 23 21 2 0.75298827D-02 0.31746104D+00 0.59245873D+05 0.59245873D+05 0.59245873D+05 0.11408697D+01  1  2  5  1  7  1       -2 -.971224358802D-03 0.100000000000D+01
0.959052611907D-05 0.000000000000D+00 0.117152614269D-05 0.238173610319D-07 0.000000000000D+00  7 -2 2 23 -13 13 23 21 2 0.57660797D-02 0.31746104D+00 0.59245873D+05 0.59245873D+05 0.59245873D+05 0.11408697D+01  1  2  6  1  7  1       -2 0.145082166694D-02 0.100000000000D+01
0.262573849111D-06 0.000000000000D+00 0.000000000000D+00 0.238173610319D-07 0.000000000000D+00  7 21 2 23 -13 13 23 2 2 0.74113494D-02 0.31746104D+00 0.69851857D+05 0.69851857D+05 0.69851857D+05 0.11347378D+01  1  2 12  3  7  1       -2 0.416032186517D-03 0.100000000000D+01
-.317127370944D-06 0.000000000000D+00 -.430878017824D-07 0.238173610319D-07 0.000000000000D+00  7 21 2 23 -13 13 23 2 2 0.75298827D-02 0.31746104D+00 0.59245873D+05 0.59245873D+05 0.59245873D+05 0.11408697D+01  1  2  5  3  7  1       -2 -.497639391200D-03 0.100000000000D+01
  </mgrwgt>
  </event>
  <event>
  8     66 0.53686478E-06 0.48393292E+03 0.75467711E-02 0.86026190E-01
       -2 -1    0    0    0  501 0.00000000E+00 0.00000000E+00 0.54466062E+03 0.54466072E+03 0.32000000E+00 0.0000E+00 0.9000E+01
        2 -1    0    0  501    0 0.00000000E+00 0.00000000E+00 -.18646071E+04 0.18646071E+04 0.32000000E+00 0.0000E+00 0.9000E+01
       25  2    1    2    0    0 0.33217988E+03 0.32728749E+03 -.17080767E+04 0.17958038E+04 0.29987439E+03 0.0000E+00 0.0000E+00
       23  2    1    2    0    0 -.33217988E+03 -.32728749E+03 0.38813029E+03 0.61346399E+03 0.90732439E+02 0.0000E+00 0.0000E+00
       23  1    3    3    0    0 0.17904594E+03 0.15791646E+03 -.48450078E+03 0.54776940E+03 0.91188000E+02 0.0000E+00 0.9000E+01
      -13  1    4    4    0    0 -.26499616E+02 -.30109497E+02 0.52663124E+01 0.40454378E+02 0.10565837E+00 0.0000E+00 0.9000E+01
       13  1    4    4    0    0 -.30568026E+03 -.29717800E+03 0.38286398E+03 0.57300962E+03 0.10565837E+00 0.0000E+00 0.9000E+01
       23  1    3    3    0    0 0.15313394E+03 0.16937104E+03 -.12235760E+04 0.12480344E+04 0.91188000E+02 0.0000E+00 0.9000E+01
#aMCatNLO 1  0  0  1  2 0.10589142D+04 0.00000000D+00  -5  7  0 0.00000000D+00 0.00000000D+00 0.00000000D+00 0.00000000D+00 0.00000000D+00
  <mgrwgt>
 0.2690759622D-03    5    2    0
 0.100775899621586D+04 0.000000000000000D+00 0.000000000000000D+00 0.100775899621586D+04
 0.100775899621586D+04 0.000000000000000D+00 0.000000000000000D+00 -.100775899621586D+04
 0.337485498786833D+03 0.179045936217005D+03 0.157916457199766D+03 -.220422675369501D+03
 0.518051764366918D+02 -.264992377825505D+02 -.301091350144704D+02 0.327872946621251D+02
 0.935687993259953D+03 -.305680637927421D+03 -.297178358576258D+03 0.832920399270569D+03
 0.690539323948235D+03 0.153133939492967D+03 0.169371036390962D+03 -.645285018563193D+03
 0.000000000000000D+00 -.000000000000000D+00 -.000000000000000D+00 0.000000000000000D+00
 0.178851714195625D+04 0.000000000000000D+00 0.000000000000000D+00 0.178851714195625D+04
 0.156955357976510D+04 0.000000000000000D+00 0.000000000000000D+00 -.156955357976510D+04
 0.499637930217233D+03 0.370317720829622D+03 0.235799575466678D+03 -.220422675369501D+03
 0.396599738826342D+02 -.560064394884015D+01 -.215995283390295D+02 0.327872946621251D+02
 0.849343765961979D+03 0.102175836216156D+03 -.131105071415876D+03 0.832920399270569D+03
 0.888113046481541D+03 0.513835415181298D+03 0.316243486747295D+03 -.645285018563193D+03
 0.108131600517796D+04 -.980728328278235D+03 -.399338462459068D+03 0.218963562191146D+03
0.181492505643D-03 0.000000000000D+00 0.000000000000D+00 0.101240867431D-04 0.000000000000D+00  7 -2 2 23 -13 13 23 21 0 0.83793951D-01 0.28686263D+00 0.23419107D+06 0.23419107D+06 0.23419107D+06 0.10925998D+01  1  2  2  1  7  1       -2 0.240775121956D-03 0.100000000000D+01
-.348642626831D-05 0.000000000000D+00 -.696979009742D-06 0.101240867431D-04 0.000000000000D+00  7 -2 2 23 -13 13 23 21 2 0.83793951D-01 0.28686263D+00 0.23419107D+06 0.23419107D+06 0.23419107D+06 0.10925998D+01  1  2  3  1  7  1       -2 -.552148152327D-05 0.100000000000D+01
0.103865167100D-04 0.000000000000D+00 0.000000000000D+00 0.101240867431D-04 0.000000000000D+00  7 -2 2 23 -13 13 23 21 2 0.83793951D-01 0.28686263D+00 0.23419107D+06 0.23419107D+06 0.23419107D+06 0.10925998D+01  1  2 15  1  7  1       -2 0.164492106506D-04 0.100000000000D+01
0.720814295702D-04 0.000000000000D+00 -.521719325298D-04 0.101240867431D-04 0.000000000000D+00  7 -2 2 23 -13 13 23 21 2 0.22342705D+00 0.28686263D+00 0.23419107D+06 0.23419107D+06 0.23419107D+06 0.10925998D+01  1  2  5  1  7  1       -2 0.798978463590D-05 0.100000000000D+01
0.109425244999D-04 0.000000000000D+00 -.569442009617D-05 0.101240867431D-04 0.000000000000D+00  7 21 2 23 -13 13 23 2 2 0.22342705D+00 0.28686263D+00 0.23419107D+06 0.23419107D+06 0.23419107D+06 0.10925998D+01  1  2  5  3  7  1       -2 0.938332652065D-05 0.100000000000D+01
  </mgrwgt>
  </event>
  <event>
  8     66 0.53686478E-06 0.32494605E+03 0.75467711E-02 0.97005248E-01
       -2 -1    0    0    0  501 0.00000000E+00 0.00000000E+00 0.97231423E+02 0.97231950E+02 0.32000000E+00 0.0000E+00 0.9000E+01
        2 -1    0    0  501    0 0.00000000E+00 0.00000000E+00 -.16592160E+04 0.16592161E+04 0.32000000E+00 0.0000E+00 0.9000E+01
       25  2    1    2    0    0 -.19863758E+03 0.27052056E+03 -.79651777E+03 0.91521187E+03 0.30088861E+03 0.0000E+00 0.0000E+00
       23  2    1    2    0    0 0.19863758E+03 -.27052056E+03 -.76546686E+03 0.84123616E+03 0.95396536E+02 0.0000E+00 0.0000E+00
       23  1    3    3    0    0 -.23263235E+03 0.18326468E+03 -.64167815E+03 0.71257971E+03 0.91188000E+02 0.0000E+00 0.9000E+01
      -11  1    4    4    0    0 0.16396450E+03 -.21403579E+03 -.50499815E+03 0.57246730E+03 0.51099893E-03 0.0000E+00 0.9000E+01
       11  1    4    4    0    0 0.34673086E+02 -.56484771E+02 -.26046871E+03 0.26876886E+03 0.51099893E-03 0.0000E+00 0.9000E+01
       23  1    3    3    0    0 0.33994766E+02 0.87255879E+02 -.15483962E+03 0.20263216E+03 0.91188000E+02 0.0000E+00 0.9000E+01
#aMCatNLO 1  0  0  2  1 0.38019890D+02 0.00000000D+00  -5  7  0 0.00000000D+00 0.00000000D+00 0.00000000D+00 0.00000000D+00 0.00000000D+00
  <mgrwgt>
 0.3697851775D-03    9    2    0
 0.401657101970708D+03 0.000000000000000D+00 0.000000000000000D+00 0.401657101970708D+03
 0.401657101970708D+03 0.000000000000000D+00 0.000000000000000D+00 -.401657101970708D+03
 0.310361540395442D+03 -.232632350436937D+03 0.183264677792407D+03 -.174723157155134D+02
 0.269769547921168D+03 0.163964499337928D+03 -.214035785872934D+03 0.894059887308549D+01
 0.812016226417639D+02 0.346730855709195D+02 -.564847707924641D+02 -.469142976625455D+02
 0.141981492983042D+03 0.339947655280893D+02 0.872558788729906D+02 0.554460145049735D+02
 0.000000000000000D+00 0.000000000000000D+00 -.000000000000000D+00 -.000000000000000D+00
 0.410466617505369D+03 0.000000000000000D+00 0.000000000000000D+00 0.410466617505369D+03
 0.445334217638579D+03 0.000000000000000D+00 0.000000000000000D+00 -.445334217638579D+03
 0.322849883004447D+03 -.238191420773522D+03 0.197170892540997D+03 -.174723157155134D+02
 0.257784650868161D+03 0.159333011671955D+03 -.202449952597068D+03 0.894059887308549D+01
 0.782010168214808D+02 0.332736628001560D+02 -.529840643081023D+02 -.469142976625455D+02
 0.145377867674760D+03 0.314719890292139D+02 0.935666951843401D+02 0.554460145049735D+02
 0.515874167751005D+02 0.141127572721972D+02 -.353035708201668D+02 -.348676001332101D+02
0.446005109374D-05 0.000000000000D+00 0.000000000000D+00 0.254810368763D-07 0.000000000000D+00  7 -2 2 23 -11 11 23 21 0 0.14958723D-01 0.25526405D+00 0.15072881D+06 0.15072881D+06 0.15072881D+06 0.11073858D+01  1  2  2  2  7  2        2 0.193589862890D-03 0.100000000000D+01
-.247432763667D-06 0.000000000000D+00 -.171277705584D-07 0.254810368763D-07 0.000000000000D+00  7 -2 2 23 -11 11 23 21 2 0.14958723D-01 0.25526405D+00 0.15072881D+06 0.15072881D+06 0.15072881D+06 0.11073858D+01  1  2  3  2  7  2        2 -.131703677553D-04 0.100000000000D+01
0.284322360629D-06 0.000000000000D+00 0.000000000000D+00 0.254810368763D-07 0.000000000000D+00  7 -2 2 23 -11 11 23 21 2 0.14958723D-01 0.25526405D+00 0.15072881D+06 0.15072881D+06 0.15072881D+06 0.11073858D+01  1  2 15  2  7  2        2 0.151339296989D-04 0.100000000000D+01
0.139545614946D-04 0.000000000000D+00 0.000000000000D+00 0.254810368763D-07 0.000000000000D+00  7 -2 2 23 -11 11 23 21 2 0.14958723D-01 0.28562088D+00 0.16604850D+06 0.16604850D+06 0.16604850D+06 0.11040851D+01  1  2 12  2  7  2        2 0.576736783673D-03 0.100000000000D+01
-.141378599438D-04 0.000000000000D+00 0.000000000000D+00 0.254810368763D-07 0.000000000000D+00  7 -2 2 23 -11 11 23 21 2 0.14958723D-01 0.25526405D+00 0.15072881D+06 0.15072881D+06 0.15072881D+06 0.11073858D+01  1  2  4  2  7  2        2 -.752530958201D-03 0.100000000000D+01
-.290210686836D-04 0.000000000000D+00 -.447094354836D-05 0.254810368763D-07 0.000000000000D+00  7 -2 2 23 -11 11 23 21 2 0.14958723D-01 0.28554888D+00 0.15072881D+06 0.15072881D+06 0.15072881D+06 0.11073858D+01  1  2  5  2  7  2        2 -.121048779665D-02 0.100000000000D+01
0.293655285969D-04 0.000000000000D+00 0.444299073006D-05 0.254810368763D-07 0.000000000000D+00  7 -2 2 23 -11 11 23 21 2 0.14958723D-01 0.25526405D+00 0.15072881D+06 0.15072881D+06 0.15072881D+06 0.11073858D+01  1  2  6  2  7  2        2 0.156307032754D-02 0.100000000000D+01
0.250464783995D-06 0.000000000000D+00 0.000000000000D+00 0.254810368763D-07 0.000000000000D+00  7 -2 21 23 -11 11 23 -2 2 0.14958723D-01 0.28562088D+00 0.16604850D+06 0.16604850D+06 0.16604850D+06 0.11040851D+01  1  2 12  4  7  2        2 0.247574029451D-05 0.100000000000D+01
-.501654049191D-06 0.000000000000D+00 -.800941788602D-07 0.254810368763D-07 0.000000000000D+00  7 -2 21 23 -11 11 23 -2 2 0.14958723D-01 0.28554888D+00 0.15072881D+06 0.15072881D+06 0.15072881D+06 0.11073858D+01  1  2  5  4  7  2        2 -.503234403878D-05 0.100000000000D+01
  </mgrwgt>
  </event>
  <event>
  8     66 0.53686478E-06 0.19235129E+03 0.75467711E-02 0.99160040E-01
       -2 -1    0    0    0  501 0.00000000E+00 0.00000000E+00 0.42775502E+02 0.42776699E+02 0.32000000E+00 0.0000E+00 0.9000E+01
        2 -1    0    0  501    0 0.00000000E+00 0.00000000E+00 -.19986468E+04 0.19986468E+04 0.32000000E+00 0.0000E+00 0.9000E+01
       25  2    1    2    0    0 -.11706169E+03 0.44276830E+02 -.65412396E+03 0.73037810E+03 0.29985018E+03 0.0000E+00 0.0000E+00
       23  2    1    2    0    0 0.11706169E+03 -.44276830E+02 -.13017473E+04 0.13110454E+04 0.92898376E+02 0.0000E+00 0.0000E+00
       23  1    3    3    0    0 -.13430121E+03 0.30817158E+02 -.59950154E+03 0.62185517E+03 0.91188000E+02 0.0000E+00 0.9000E+01
      -11  1    4    4    0    0 0.68997683E+02 -.32179679E+02 -.35840161E+03 0.36639859E+03 0.51099893E-03 0.0000E+00 0.9000E+01
       11  1    4    4    0    0 0.48064003E+02 -.12097151E+02 -.94334571E+03 0.94464682E+03 0.51099893E-03 0.0000E+00 0.9000E+01
       23  1    3    3    0    0 0.17239528E+02 0.13459672E+02 -.54622425E+02 0.10852292E+03 0.91188000E+02 0.0000E+00 0.9000E+01
#aMCatNLO 1  0  0  2  1 0.22334804D+03 0.00000000D+00  -5  7  0 0.00000000D+00 0.00000000D+00 0.00000000D+00 0.00000000D+00 0.00000000D+00
  <mgrwgt>
 0.2688533176D-03    6    2    0
 0.292394197278930D+03 0.000000000000000D+00 0.000000000000000D+00 0.292394197278930D+03
 0.292394197278930D+03 0.000000000000000D+00 0.000000000000000D+00 -.292394197278930D+03
 0.165738465794413D+03 -.134301214704173D+03 0.308171578359713D+02 -.129411827814279D+02
 0.803491949089851D+02 0.689976834504131D+02 -.321796785880510D+02 -.256862042148778D+02
 0.142549760158156D+03 0.480640032113596D+02 -.120971509733223D+02 -.133656068529547D+03
 0.196150973696305D+03 0.172395280424007D+02 0.134596717254020D+02 0.172283455525852D+03
 0.000000000000000D+00 -.000000000000000D+00 -.000000000000000D+00 -.000000000000000D+00
 0.373529620608465D+03 0.000000000000000D+00 0.000000000000000D+00 0.373529620608465D+03
 0.519007832628777D+03 0.000000000000000D+00 0.000000000000000D+00 -.519007832628777D+03
 0.170413937611414D+03 -.112515583337706D+03 0.888731010071125D+02 -.129411827814279D+02
 0.837615364045600D+02 0.796335017859494D+02 -.383657232320846D+01 -.256862042148778D+02
 0.154716535266798D+03 0.673294728738957D+02 0.392428810449871D+02 -.133656068529547D+03
 0.217096657979985D+03 0.440216080619107D+02 0.848305165479606D+02 0.172283455525852D+03
 0.266548785974484D+03 -.784689993840502D+02 -.209109926276852D+03 -.145478212020312D+03
0.174714830270D-05 0.000000000000D+00 0.000000000000D+00 0.195397422575D-06 0.000000000000D+00  7 -2 2 23 -11 11 23 21 0 0.65809404D-02 0.30748421D+00 0.36999019D+05 0.36999019D+05 0.36999019D+05 0.11589795D+01  1  2  2  2  7  2        2 0.181701096929D-03 0.100000000000D+01
-.763666850589D-07 0.000000000000D+00 -.670950951707D-08 0.195397422575D-06 0.000000000000D+00  7 -2 2 23 -11 11 23 21 2 0.65809404D-02 0.30748421D+00 0.36999019D+05 0.36999019D+05 0.36999019D+05 0.11589795D+01  1  2  3  2  7  2        2 -.106680057983D-04 0.100000000000D+01
0.107674785069D-06 0.000000000000D+00 0.000000000000D+00 0.195397422575D-06 0.000000000000D+00  7 -2 2 23 -11 11 23 21 2 0.65809404D-02 0.30748421D+00 0.36999019D+05 0.36999019D+05 0.36999019D+05 0.11589795D+01  1  2 15  2  7  2        2 0.150415751393D-04 0.100000000000D+01
-.400567496542D-06 0.000000000000D+00 -.441969603770D-06 0.195397422575D-06 0.000000000000D+00  7 -2 2 23 -11 11 23 21 2 0.65809404D-02 0.57865344D+00 0.36999019D+05 0.36999019D+05 0.36999019D+05 0.11589795D+01  1  2  5  2  7  2        2 -.470960932214D-05 0.100000000000D+01
0.626288830602D-06 0.000000000000D+00 0.366281961637D-06 0.195397422575D-06 0.000000000000D+00  7 -2 2 23 -11 11 23 21 2 0.65809404D-02 0.30748421D+00 0.36999019D+05 0.36999019D+05 0.36999019D+05 0.11589795D+01  1  2  6  2  7  2        2 0.874891043278D-04 0.100000000000D+01
-.259701260138D-08 0.000000000000D+00 -.304026549129D-07 0.195397422575D-06 0.000000000000D+00  7 -2 21 23 -11 11 23 -2 2 0.65809404D-02 0.57865344D+00 0.36999019D+05 0.36999019D+05 0.36999019D+05 0.11589795D+01  1  2  5  4  7  2        2 -.843666076205D-09 0.100000000000D+01
  </mgrwgt>
  </event>
  <event>
  8     66 0.53686478E-06 0.24913734E+03 0.75467711E-02 0.93552567E-01
       -2 -1    0    0    0  501 0.00000000E+00 0.00000000E+00 0.13170466E+03 0.13170505E+03 0.32000000E+00 0.0000E+00 0.9000E+01
        2 -1    0    0  501    0 0.00000000E+00 0.00000000E+00 -.11319284E+04 0.11319284E+04 0.32000000E+00 0.0000E+00 0.9000E+01
       25  2    1    2    0    0 0.11635383E+03 -.10779125E+03 -.11312843E+03 0.35790322E+03 0.30023242E+03 0.0000E+00 0.0000E+00
       23  2    1    2    0    0 -.11635383E+03 0.10779125E+03 -.88709528E+03 0.90573025E+03 0.90840984E+02 0.0000E+00 0.0000E+00
       23  1    3    3    0    0 0.74131677E+02 -.16880765E+03 -.17629383E+02 0.20644025E+03 0.91188000E+02 0.0000E+00 0.9000E+01
      -11  1    4    4    0    0 0.92228437E+01 0.19336655E+02 -.46256910E+02 0.50977140E+02 0.51099893E-03 0.0000E+00 0.9000E+01
       11  1    4    4    0    0 -.12557667E+03 0.88454592E+02 -.84083837E+03 0.85475311E+03 0.51099893E-03 0.0000E+00 0.9000E+01
       23  1    3    3    0    0 0.42222149E+02 0.61016407E+02 -.95499043E+02 0.15146297E+03 0.91188000E+02 0.0000E+00 0.9000E+01
#aMCatNLO 1  0  0  1  1 0.43205830D+03 0.00000000D+00  -5  7  0 0.00000000D+00 0.00000000D+00 0.00000000D+00 0.00000000D+00 0.00000000D+00
  <mgrwgt>
 0.4438871918D-03    3    2    0
 0.386109464178001D+03 0.000000000000000D+00 0.000000000000000D+00 0.386109464178001D+03
 0.386109464178001D+03 0.000000000000000D+00 0.000000000000000D+00 -.386109464178001D+03
 0.314977360542617D+03 0.741316770926231D+02 -.168807654093549D+03 0.238545502328720D+03
 0.235026123446490D+02 0.922284370576542D+01 0.193366551696234D+02 -.966466284217639D+01
 0.309585993795647D+03 -.125576669330419D+03 0.884545920061111D+02 -.268793178535746D+03
 0.124152961673089D+03 0.422221485320304D+02 0.610164069178141D+02 0.399123390492021D+02
 0.000000000000000D+00 0.000000000000000D+00 -.000000000000000D+00 -.000000000000000D+00
 0.484988382703531D+03 0.000000000000000D+00 0.000000000000000D+00 0.484988382703531D+03
 0.153915357316556D+04 0.000000000000000D+00 0.000000000000000D+00 -.153915357316556D+04
 0.307173186376082D+03 -.866220120385959D+02 -.147080880584660D+03 0.238545502328720D+03
 0.232665461605384D+02 -.286155420163381D+01 0.209699301367132D+02 -.966466284217639D+01
 0.431004688984595D+03 -.316933383525657D+03 0.114317538052291D+03 -.268793178535746D+03
 0.123426442316229D+03 -.217483851937759D+02 0.696623876415833D+02 0.399123390492021D+02
 0.113927109203165D+04 0.428165334959662D+03 -.578689752459270D+02 -.105416519046203D+04
0.827280549637D-05 0.000000000000D+00 0.000000000000D+00 0.140463277343D-05 0.000000000000D+00  7 -2 2 23 -11 11 23 21 0 0.20262289D-01 0.17414286D+00 0.62069416D+05 0.62069416D+05 0.62069416D+05 0.11391258D+01  1  2  2  1  7  1       -2 0.434259683763D-03 0.100000000000D+01
-.352339463281D-06 0.000000000000D+00 -.317697513858D-07 0.140463277343D-05 0.000000000000D+00  7 -2 2 23 -11 11 23 21 2 0.20262289D-01 0.17414286D+00 0.62069416D+05 0.62069416D+05 0.62069416D+05 0.11391258D+01  1  2  3  1  7  1       -2 -.239994537796D-04 0.100000000000D+01
0.493682305666D-06 0.000000000000D+00 0.000000000000D+00 0.140463277343D-05 0.000000000000D+00  7 -2 2 23 -11 11 23 21 2 0.20262289D-01 0.17414286D+00 0.62069416D+05 0.62069416D+05 0.62069416D+05 0.11391258D+01  1  2 15  1  7  1       -2 0.336269618121D-04 0.100000000000D+01
  </mgrwgt>
  </event>
  <event>
  8     66 0.53686478E-06 0.36537562E+03 0.75467711E-02 0.89913676E-01
       -2 -1    0    0    0  501 0.00000000E+00 0.00000000E+00 0.85726578E+02 0.85727175E+02 0.32000000E+00 0.0000E+00 0.9000E+01
        2 -1    0    0  501    0 0.00000000E+00 0.00000000E+00 -.20427770E+04 0.20427770E+04 0.32000000E+00 0.0000E+00 0.9000E+01
       25  2    1    2    0    0 -.76314920E+02 0.31148953E+03 -.14980318E+04 0.15611026E+04 0.30015392E+03 0.0000E+00 0.0000E+00
       23  2    1    2    0    0 0.76314920E+02 -.31148953E+03 -.45901860E+03 0.56740158E+03 0.91633921E+02 0.0000E+00 0.0000E+00
       23  1    3    3    0    0 0.97467417E+01 0.25216669E+03 -.67347880E+03 0.72496343E+03 0.91188000E+02 0.0000E+00 0.9000E+01
      -13  1    4    4    0    0 0.64690412E+02 -.17236395E+03 -.32695489E+03 0.37522486E+03 0.10565837E+00 0.0000E+00 0.9000E+01
       13  1    4    4    0    0 0.11624508E+02 -.13912558E+03 -.13206371E+03 0.19217672E+03 0.10565837E+00 0.0000E+00 0.9000E+01
       23  1    3    3    0    0 -.86061662E+02 0.59322843E+02 -.82455299E+03 0.83613916E+03 0.91188000E+02 0.0000E+00 0.9000E+01
#aMCatNLO 1  0  0  1  1 0.61203775D+03 0.00000000D+00  -5  7  0 0.00000000D+00 0.00000000D+00 0.00000000D+00 0.00000000D+00 0.00000000D+00
  <mgrwgt>
 0.2246483360D-03    5    2    0
 0.418474540461046D+03 0.000000000000000D+00 0.000000000000000D+00 0.418474540461046D+03
 0.418474540461046D+03 0.000000000000000D+00 0.000000000000000D+00 -.418474540461046D+03
 0.268900165226187D+03 0.974674163512968D+01 0.252166688259822D+03 -.175786766920185D+02
 0.189737330932396D+03 0.646904828302867D+02 -.172363995113167D+03 0.458917135130322D+02
 0.179931613033036D+03 0.116244374398329D+02 -.139125536272161D+03 0.113509219801129D+03
 0.198379971730474D+03 -.860616619052493D+02 0.593228431255059D+02 -.141822256622143D+03
 0.000000000000000D+00 -.000000000000000D+00 -.000000000000000D+00 0.000000000000000D+00
 0.121373631491821D+04 0.000000000000000D+00 0.000000000000000D+00 0.121373631491821D+04
 0.653113966229314D+03 0.000000000000000D+00 0.000000000000000D+00 -.653113966229314D+03
 0.427610493116500D+03 0.209520311666843D+03 0.361009295730903D+03 -.175786766920185D+02
 0.216294170885118D+03 0.181148661455192D+03 -.108914101211509D+03 0.458917135130322D+02
 0.181698869991799D+03 0.115347491438842D+03 -.826141186190463D+02 0.113509219801129D+03
 0.211254203748636D+03 0.314298375603574D+02 0.123335721082754D+03 -.141822256622143D+03
 0.829992543405475D+03 -.537446302121234D+03 -.292816796983101D+03 0.560622348688899D+03
0.632399390238D-05 0.000000000000D+00 0.000000000000D+00 0.821665572649D-06 0.000000000000D+00  7 -2 2 23 -13 13 23 21 0 0.13188752D-01 0.31427343D+00 0.13349934D+06 0.13349934D+06 0.13349934D+06 0.11115682D+01  1  2  2  1  7  1       -2 0.209188112532D-03 0.100000000000D+01
-.343468025194D-06 0.000000000000D+00 -.242858017310D-07 0.821665572649D-06 0.000000000000D+00  7 -2 2 23 -13 13 23 21 2 0.13188752D-01 0.31427343D+00 0.13349934D+06 0.13349934D+06 0.13349934D+06 0.11115682D+01  1  2  3  1  7  1       -2 -.140379630977D-04 0.100000000000D+01
0.388463088239D-06 0.000000000000D+00 0.000000000000D+00 0.821665572649D-06 0.000000000000D+00  7 -2 2 23 -13 13 23 21 2 0.13188752D-01 0.31427343D+00 0.13349934D+06 0.13349934D+06 0.13349934D+06 0.11115682D+01  1  2 15  1  7  1       -2 0.158769669882D-04 0.100000000000D+01
0.222991949256D-05 0.000000000000D+00 -.261414647076D-05 0.821665572649D-06 0.000000000000D+00  7 -2 2 23 -13 13 23 21 2 0.65905539D-01 0.31427343D+00 0.13349934D+06 0.13349934D+06 0.13349934D+06 0.11115682D+01  1  2  5  1  7  1       -2 0.512923269303D-05 0.100000000000D+01
0.363275999876D-06 0.000000000000D+00 -.512572740804D-06 0.821665572649D-06 0.000000000000D+00  7 21 2 23 -13 13 23 2 2 0.65905539D-01 0.31427343D+00 0.13349934D+06 0.13349934D+06 0.13349934D+06 0.11115682D+01  1  2  5  3  7  1       -2 0.849198692637D-05 0.100000000000D+01
  </mgrwgt>
  </event>
  <event>
  8     66 0.53686478E-06 0.11387324E+03 0.75467711E-02 0.10400614E+00
       -4 -1    0    0    0  501 0.00000000E+00 0.00000000E+00 0.86816381E+03 0.86816519E+03 0.15500000E+01 0.0000E+00 0.9000E+01
        4 -1    0    0  501    0 0.00000000E+00 0.00000000E+00 -.49480168E+02 0.49504439E+02 0.15500000E+01 0.0000E+00 0.9000E+01
       25  2    1    2    0    0 0.19430622E+02 -.25562680E+02 0.48884742E+03 0.57448360E+03 0.30004767E+03 0.0000E+00 0.0000E+00
       23  2    1    2    0    0 -.19430622E+02 0.25562680E+02 0.32983622E+03 0.34318603E+03 0.89183631E+02 0.0000E+00 0.0000E+00
       23  1    3    3    0    0 0.72422738E+02 -.10810353E+03 0.19487660E+03 0.25144297E+03 0.91188000E+02 0.0000E+00 0.9000E+01
      -11  1    4    4    0    0 -.48591289E+01 0.54142992E+02 0.26870339E+03 0.27414701E+03 0.51099893E-03 0.0000E+00 0.9000E+01
       11  1    4    4    0    0 -.14571494E+02 -.28580312E+02 0.61132831E+02 0.69039016E+02 0.51099893E-03 0.0000E+00 0.9000E+01
       23  1    3    3    0    0 -.52992116E+02 0.82540846E+02 0.29397082E+03 0.32304063E+03 0.91188000E+02 0.0000E+00 0.9000E+01
#aMCatNLO 1  0  0  1  2 0.81871441D+02 0.00000000D+00  -5  7  0 0.00000000D+00 0.00000000D+00 0.00000000D+00 0.00000000D+00 0.00000000D+00
  <mgrwgt>
 0.7329931010D-04    9    2    0
 0.207288837432930D+03 0.000000000000000D+00 0.000000000000000D+00 0.207288837432930D+03
 0.207288837432930D+03 0.000000000000000D+00 0.000000000000000D+00 -.207288837432930D+03
 0.171739327539547D+03 0.724227384797600D+02 -.108103526395593D+03 -.651745334595164D+02
 0.762060368105732D+02 -.485912894777153D+01 0.541429918548002D+02 0.534067911903945D+02
 0.320966614761060D+02 -.145714936325281D+02 -.285803116738024D+02 -.101638371555909D+01
 0.134535649039633D+03 -.529921158994604D+02 0.825408462145947D+02 0.127841259846810D+02
 0.000000000000000D+00 -.000000000000000D+00 -.000000000000000D+00 0.000000000000000D+00
 0.341812001325082D+03 0.000000000000000D+00 0.000000000000000D+00 0.341812001325082D+03
 0.224131123516179D+03 0.000000000000000D+00 0.000000000000000D+00 -.224131123516179D+03
 0.159773807080708D+03 0.833448825105873D+02 -.775778888130773D+02 -.651745334595164D+02
 0.874217577513482D+02 0.531807799573661D+00 0.692097938412283D+02 0.534067911903945D+02
 0.264329576587013D+02 -.126431569740361D+02 -.231909205608429D+02 -.101638371555909D+01
 0.148955884895197D+03 -.436521077917780D+02 0.108644668111482D+03 0.127841259846810D+02
 0.143358717455306D+03 -.275814255443469D+02 -.770856525787901D+02 0.117680877808903D+03
0.741015234892D-05 0.000000000000D+00 0.000000000000D+00 0.379073791783D-07 0.000000000000D+00  7 -4 4 23 -11 11 23 21 0 0.13356564D+00 0.76143070D-02 0.35959549D+05 0.35959549D+05 0.35959549D+05 0.11601043D+01  1  2  2  1  7  1       -4 0.658897014110D-04 0.100000000000D+01
-.407706973577D-06 0.000000000000D+00 -.284569361578D-07 0.379073791783D-07 0.000000000000D+00  7 -4 4 23 -11 11 23 21 2 0.13356564D+00 0.76143070D-02 0.35959549D+05 0.35959549D+05 0.35959549D+05 0.11601043D+01  1  2  3  1  7  1       -4 -.487902028964D-05 0.100000000000D+01
0.460479451906D-06 0.000000000000D+00 0.000000000000D+00 0.379073791783D-07 0.000000000000D+00  7 -4 4 23 -11 11 23 21 2 0.13356564D+00 0.76143070D-02 0.35959549D+05 0.35959549D+05 0.35959549D+05 0.11601043D+01  1  2 15  1  7  1       -4 0.551054736469D-05 0.100000000000D+01
0.671467167380D-05 0.000000000000D+00 0.000000000000D+00 0.379073791783D-07 0.000000000000D+00  7 -4 4 23 -11 11 23 21 2 0.22269004D+00 0.76143070D-02 0.55643962D+05 0.55643962D+05 0.55643962D+05 0.11432321D+01  1  2 12  1  7  1       -4 0.134174473225D-04 0.100000000000D+01
-.834948777285D-05 0.000000000000D+00 0.000000000000D+00 0.379073791783D-07 0.000000000000D+00  7 -4 4 23 -11 11 23 21 2 0.13356564D+00 0.76143070D-02 0.35959549D+05 0.35959549D+05 0.35959549D+05 0.11601043D+01  1  2  4  1  7  1       -4 -.999181345720D-04 0.100000000000D+01
-.934370018213D-05 0.000000000000D+00 -.229552361847D-05 0.379073791783D-07 0.000000000000D+00  7 -4 4 23 -11 11 23 21 2 0.22755987D+00 0.76143070D-02 0.35959549D+05 0.35959549D+05 0.35959549D+05 0.11601043D+01  1  2  5  1  7  1       -4 -.173770762053D-04 0.100000000000D+01
0.948024572832D-05 0.000000000000D+00 0.200423081112D-05 0.379073791783D-07 0.000000000000D+00  7 -4 4 23 -11 11 23 21 2 0.13356564D+00 0.76143070D-02 0.35959549D+05 0.35959549D+05 0.35959549D+05 0.11601043D+01  1  2  6  1  7  1       -4 0.113449889889D-03 0.100000000000D+01
0.385324883928D-06 0.000000000000D+00 0.000000000000D+00 0.379073791783D-07 0.000000000000D+00  7 21 4 23 -11 11 23 4 2 0.22269004D+00 0.76143070D-02 0.55643962D+05 0.55643962D+05 0.55643962D+05 0.11432321D+01  1  2 12  3  7  1       -4 0.240491393870D-04 0.100000000000D+01
-.443555500027D-06 0.000000000000D+00 -.136227127414D-06 0.379073791783D-07 0.000000000000D+00  7 21 4 23 -11 11 23 4 2 0.22755987D+00 0.76143070D-02 0.35959549D+05 0.35959549D+05 0.35959549D+05 0.11601043D+01  1  2  5  3  7  1       -4 -.268431842089D-04 0.100000000000D+01
  </mgrwgt>
  </event>
  <event>
  8     66 0.53686478E-06 0.13712002E+03 0.75467711E-02 0.10387489E+00
       -2 -1    0    0    0  501 0.00000000E+00 0.00000000E+00 0.19645288E+03 0.19645314E+03 0.32000000E+00 0.0000E+00 0.9000E+01
        2 -1    0    0  501    0 0.00000000E+00 0.00000000E+00 -.44472770E+03 0.44472781E+03 0.32000000E+00 0.0000E+00 0.9000E+01
       25  2    1    2    0    0 0.13240563E+03 -.20784134E+02 -.32446566E+03 0.46151877E+03 0.29959703E+03 0.0000E+00 0.0000E+00
       23  2    1    2    0    0 -.13240563E+03 0.20784134E+02 0.76190837E+02 0.17966218E+03 0.92250877E+02 0.0000E+00 0.0000E+00
       23  1    3    3    0    0 0.16092030E+03 -.81035340E+02 -.26707055E+03 0.33481935E+03 0.91188000E+02 0.0000E+00 0.9000E+01
      -13  1    4    4    0    0 -.10634565E+03 -.94534463E+01 0.16764058E+02 0.10807316E+03 0.10565837E+00 0.0000E+00 0.9000E+01
       13  1    4    4    0    0 -.26059985E+02 0.30237580E+02 0.59426779E+02 0.71589016E+02 0.10565837E+00 0.0000E+00 0.9000E+01
       23  1    3    3    0    0 -.28514665E+02 0.60251205E+02 -.57395110E+02 0.12669942E+03 0.91188000E+02 0.0000E+00 0.9000E+01
#aMCatNLO 1  0  0  2  1 0.13833278D+02 0.00000000D+00  -5  7  0 0.00000000D+00 0.00000000D+00 0.00000000D+00 0.00000000D+00 0.00000000D+00
  <mgrwgt>
 0.2248142797D-03    9    2    0
 0.295581049621659D+03 0.000000000000000D+00 0.000000000000000D+00 0.295581049621659D+03
 0.295581049621659D+03 0.000000000000000D+00 0.000000000000000D+00 -.295581049621659D+03
 0.250985132058533D+03 0.160920296020115D+03 -.810353396652392D+02 -.149051055764718D+03
 0.124257905923562D+03 -.106345749013566D+03 -.945349659483324D+01 0.635707499828655D+02
 0.102604123995360D+03 -.260598827274497D+02 0.302376309911301D+02 0.945207619792132D+02
 0.113314937265863D+03 -.285146642790993D+02 0.602512052689423D+02 -.904045619736094D+01
 0.000000000000000D+00 0.000000000000000D+00 -.000000000000000D+00 -.000000000000000D+00
 0.301353179247001D+03 0.000000000000000D+00 0.000000000000000D+00 0.301353179247001D+03
 0.304067882511956D+03 0.000000000000000D+00 0.000000000000000D+00 -.304067882511956D+03
 0.247137036683984D+03 0.157054929985251D+03 -.766746066158272D+02 -.149051055764718D+03
 0.125777065486110D+03 -.108285989273209D+03 -.726460432752571D+01 0.635707499828655D+02
 0.103566203441878D+03 -.276597388091102D+02 0.320425170553927D+02 0.945207619792132D+02
 0.114843621828763D+03 -.302851463018412D+02 0.622485838872476D+02 -.904045619736094D+01
 0.140971343182217D+02 0.917594439890967D+01 -.103518899992875D+02 -.271470326495429D+01
0.117986454067D-05 0.000000000000D+00 0.000000000000D+00 0.148665977873D-06 0.000000000000D+00  7 -2 2 23 -13 13 23 21 0 0.30223549D-01 0.68419675D-01 0.53261853D+05 0.53261853D+05 0.53261853D+05 0.11448890D+01  1  2  2  2  7  2        2 0.990758976984D-04 0.100000000000D+01
-.606678651043D-07 0.000000000000D+00 -.453099050163D-08 0.148665977873D-06 0.000000000000D+00  7 -2 2 23 -13 13 23 21 2 0.30223549D-01 0.68419675D-01 0.53261853D+05 0.53261853D+05 0.53261853D+05 0.11448890D+01  1  2  3  2  7  2        2 -.667761481310D-05 0.100000000000D+01
0.743846808728D-07 0.000000000000D+00 0.000000000000D+00 0.148665977873D-06 0.000000000000D+00  7 -2 2 23 -13 13 23 21 2 0.30223549D-01 0.68419675D-01 0.53261853D+05 0.53261853D+05 0.53261853D+05 0.11448890D+01  1  2 15  2  7  2        2 0.818740277097D-05 0.100000000000D+01
0.235290197385D-05 0.000000000000D+00 0.000000000000D+00 0.148665977873D-06 0.000000000000D+00  7 -2 2 23 -13 13 23 21 2 0.30223549D-01 0.71036102D-01 0.56717815D+05 0.56717815D+05 0.56717815D+05 0.11425106D+01  1  2 12  2  7  2        2 0.247538196602D-03 0.100000000000D+01
-.204035447796D-05 0.000000000000D+00 0.000000000000D+00 0.148665977873D-06 0.000000000000D+00  7 -2 2 23 -13 13 23 21 2 0.30223549D-01 0.68419675D-01 0.53261853D+05 0.53261853D+05 0.53261853D+05 0.11448890D+01  1  2  4  2  7  2        2 -.224578551801D-03 0.100000000000D+01
-.223933927998D-04 0.000000000000D+00 -.357630925575D-05 0.148665977873D-06 0.000000000000D+00  7 -2 2 23 -13 13 23 21 2 0.30223549D-01 0.71542080D-01 0.53261853D+05 0.53261853D+05 0.53261853D+05 0.11448890D+01  1  2  5  2  7  2        2 -.234760926955D-02 0.100000000000D+01
0.225341037575D-04 0.000000000000D+00 0.357275123410D-05 0.148665977873D-06 0.000000000000D+00  7 -2 2 23 -13 13 23 21 2 0.30223549D-01 0.68419675D-01 0.53261853D+05 0.53261853D+05 0.53261853D+05 0.11448890D+01  1  2  6  2  7  2        2 0.248029273475D-02 0.100000000000D+01
0.363452610343D-07 0.000000000000D+00 0.000000000000D+00 0.148665977873D-06 0.000000000000D+00  7 -2 21 23 -13 13 23 -2 2 0.30223549D-01 0.71036102D-01 0.56717815D+05 0.56717815D+05 0.56717815D+05 0.11425106D+01  1  2 12  4  7  2        2 0.846186676876D-05 0.100000000000D+01
-.172920219205D-06 0.000000000000D+00 -.280191311730D-07 0.148665977873D-06 0.000000000000D+00  7 -2 21 23 -13 13 23 -2 2 0.30223549D-01 0.71542080D-01 0.53261853D+05 0.53261853D+05 0.53261853D+05 0.11448890D+01  1  2  5  4  7  2        2 -.398763827610D-04 0.100000000000D+01
  </mgrwgt>
  </event>
  <event>
  8     66 0.53686478E-06 0.10410026E+03 0.75467711E-02 0.10496256E+00
       -2 -1    0    0    0  501 0.00000000E+00 0.00000000E+00 0.97587176E+02 0.97587701E+02 0.32000000E+00 0.0000E+00 0.9000E+01
        2 -1    0    0  501    0 0.00000000E+00 0.00000000E+00 -.52536295E+03 0.52536304E+03 0.32000000E+00 0.0000E+00 0.9000E+01
       25  2    1    2    0    0 -.33265307E+02 -.94729025E+02 -.29602554E+03 0.43329661E+03 0.30005776E+03 0.0000E+00 0.0000E+00
       23  2    1    2    0    0 0.33265307E+02 0.94729025E+02 -.13175023E+03 0.18965414E+03 0.92360161E+02 0.0000E+00 0.0000E+00
       23  1    3    3    0    0 0.85414812E+02 -.82595766E+02 -.21683998E+03 0.26353857E+03 0.91188000E+02 0.0000E+00 0.9000E+01
      -13  1    4    4    0    0 0.28258463E+02 0.59174365E+02 -.14676172E+02 0.67197823E+02 0.10565837E+00 0.0000E+00 0.9000E+01
       13  1    4    4    0    0 0.50068445E+01 0.35554660E+02 -.11707406E+03 0.12245631E+03 0.10565837E+00 0.0000E+00 0.9000E+01
       23  1    3    3    0    0 -.11868012E+03 -.12133260E+02 -.79185561E+02 0.16975804E+03 0.91188000E+02 0.0000E+00 0.9000E+01
#aMCatNLO 1  0  0  1  2 0.39282121D+02 0.00000000D+00  -5  7  0 0.00000000D+00 0.00000000D+00 0.00000000D+00 0.00000000D+00 0.00000000D+00
  <mgrwgt>
 0.1444744784D-03    9    2    0
 0.226426323516643D+03 0.000000000000000D+00 0.000000000000000D+00 0.226426323516643D+03
 0.226426323516643D+03 0.000000000000000D+00 0.000000000000000D+00 -.226426323516643D+03
 0.157695134155179D+03 0.854148052869740D+02 -.825957707162360D+02 -.493432233422104D+02
 0.785748669772096D+02 0.282584948906530D+02 0.591744030966876D+02 0.432880723196569D+02
 0.578616339509917D+02 0.500681718454732D+01 0.355546356563468D+02 -.453736525805838D+02
 0.158721011949906D+03 -.118680117362174D+03 -.121332680367984D+02 0.514288036031373D+02
 0.000000000000000D+00 0.000000000000000D+00 0.000000000000000D+00 0.000000000000000D+00
 0.248362146827891D+03 0.000000000000000D+00 0.000000000000000D+00 0.248362146827891D+03
 0.245572123057577D+03 0.000000000000000D+00 0.000000000000000D+00 -.245572123057577D+03
 0.157535942227788D+03 0.752385725599249D+02 -.916881958538967D+02 -.493432233422104D+02
 0.736220084925108D+02 0.233453028193612D+02 0.547844847159468D+02 0.432880723196569D+02
 0.557001455233645D+02 0.134083631080592D+01 0.322790957247580D+02 -.453736525805838D+02
 0.167695096394527D+03 -.129217423272760D+03 -.215483106871069D+02 0.514288036031373D+02
 0.393810772472771D+02 0.292927115826682D+02 0.261729261002988D+02 0.279002377031395D+01
0.450570245290D-06 0.000000000000D+00 0.000000000000D+00 0.139332684978D-06 0.000000000000D+00  7 -2 2 23 -13 13 23 21 0 0.15013460D-01 0.80825116D-01 0.40283607D+05 0.40283607D+05 0.40283607D+05 0.11556423D+01  1  2  2  1  7  1       -2 0.100141536603D-03 0.100000000000D+01
-.245892472393D-07 0.000000000000D+00 -.173030837978D-08 0.139332684978D-06 0.000000000000D+00  7 -2 2 23 -13 13 23 21 2 0.15013460D-01 0.80825116D-01 0.40283607D+05 0.40283607D+05 0.40283607D+05 0.11556423D+01  1  2  3  1  7  1       -2 -.729867160185D-05 0.100000000000D+01
0.286276594165D-07 0.000000000000D+00 0.000000000000D+00 0.139332684978D-06 0.000000000000D+00  7 -2 2 23 -13 13 23 21 2 0.15013460D-01 0.80825116D-01 0.40283607D+05 0.40283607D+05 0.40283607D+05 0.11556423D+01  1  2 15  1  7  1       -2 0.849736808845D-05 0.100000000000D+01
0.477692395203D-06 0.000000000000D+00 0.000000000000D+00 0.139332684978D-06 0.000000000000D+00  7 -2 2 23 -13 13 23 21 2 0.17046655D-01 0.80825116D-01 0.48479985D+05 0.48479985D+05 0.48479985D+05 0.11484766D+01  1  2 12  1  7  1       -2 0.114612612805D-03 0.100000000000D+01
-.399470399314D-06 0.000000000000D+00 0.000000000000D+00 0.139332684978D-06 0.000000000000D+00  7 -2 2 23 -13 13 23 21 2 0.15013460D-01 0.80825116D-01 0.40283607D+05 0.40283607D+05 0.40283607D+05 0.11556423D+01  1  2  4  1  7  1       -2 -.118572286125D-03 0.100000000000D+01
-.133875526622D-05 0.000000000000D+00 -.367745331161D-06 0.139332684978D-06 0.000000000000D+00  7 -2 2 23 -13 13 23 21 2 0.17828881D-01 0.80825116D-01 0.40283607D+05 0.40283607D+05 0.40283607D+05 0.11556423D+01  1  2  5  1  7  1       -2 -.302063666744D-03 0.100000000000D+01
0.138679264767D-05 0.000000000000D+00 0.362379760400D-06 0.139332684978D-06 0.000000000000D+00  7 -2 2 23 -13 13 23 21 2 0.15013460D-01 0.80825116D-01 0.40283607D+05 0.40283607D+05 0.40283607D+05 0.11556423D+01  1  2  6  1  7  1       -2 0.411632939256D-03 0.100000000000D+01
0.950452640929D-08 0.000000000000D+00 0.000000000000D+00 0.139332684978D-06 0.000000000000D+00  7 21 2 23 -13 13 23 2 2 0.17046655D-01 0.80825116D-01 0.48479985D+05 0.48479985D+05 0.48479985D+05 0.11484766D+01  1  2 12  3  7  1       -2 0.306882210896D-04 0.100000000000D+01
-.307968352479D-07 0.000000000000D+00 -.935300815819D-08 0.139332684978D-06 0.000000000000D+00  7 21 2 23 -13 13 23 2 2 0.17828881D-01 0.80825116D-01 0.40283607D+05 0.40283607D+05 0.40283607D+05 0.11556423D+01  1  2  5  3  7  1       -2 -.931635749552D-04 0.100000000000D+01
  </mgrwgt>
  </event>
  <event>
  8     66 0.53686478E-06 0.23309014E+03 0.75467711E-02 0.90386137E-01
       -2 -1    0    0    0  501 0.00000000E+00 0.00000000E+00 0.47014386E+03 0.47014397E+03 0.32000000E+00 0.0000E+00 0.9000E+01
        2 -1    0    0  501    0 0.00000000E+00 0.00000000E+00 -.10006326E+04 0.10006326E+04 0.32000000E+00 0.0000E+00 0.9000E+01
       25  2    1    2    0    0 -.11718940E+03 -.65423472E+02 -.95829115E+03 0.10130553E+04 0.29990930E+03 0.0000E+00 0.0000E+00
       23  2    1    2    0    0 0.11718940E+03 0.65423472E+02 0.42780243E+03 0.45772127E+03 0.92088264E+02 0.0000E+00 0.0000E+00
       23  1    3    3    0    0 0.89824614E+01 -.12885222E+03 -.40410024E+03 0.43393068E+03 0.91188000E+02 0.0000E+00 0.9000E+01
      -13  1    4    4    0    0 0.85201664E+02 0.25752090E+02 0.37047526E+03 0.38101762E+03 0.10565837E+00 0.0000E+00 0.9000E+01
       13  1    4    4    0    0 0.31987740E+02 0.39671383E+02 0.57327174E+02 0.76703652E+02 0.10565837E+00 0.0000E+00 0.9000E+01
       23  1    3    3    0    0 -.12617187E+03 0.63428750E+02 -.55419091E+03 0.57912465E+03 0.91188000E+02 0.0000E+00 0.9000E+01
#aMCatNLO 1  0  0  1  1 0.66882518D+03 0.00000000D+00  -5  7  0 0.00000000D+00 0.00000000D+00 0.00000000D+00 0.00000000D+00 0.00000000D+00
  <mgrwgt>
 0.4765162550D-03    3    2    0
 0.685887294857926D+03 0.000000000000000D+00 0.000000000000000D+00 0.685887294857926D+03
 0.685887294857926D+03 0.000000000000000D+00 0.000000000000000D+00 -.685887294857926D+03
 0.308975303968191D+03 0.898246139380873D+01 -.128852222166796D+03 -.265456036563916D+03
 0.551785657940710D+03 0.852017345498512D+02 0.257520713457579D+02 0.544559370096744D+03
 0.104408223018339D+03 0.319876700202061D+02 0.396714010956354D+02 0.911265380426296D+02
 0.406605404788612D+03 -.126171865963866D+03 0.634287497254031D+02 -.370229871575457D+03
 0.000000000000000D+00 0.000000000000000D+00 -.000000000000000D+00 -.000000000000000D+00
 0.852345306348270D+03 0.000000000000000D+00 0.000000000000000D+00 0.852345306348270D+03
 0.201570575357795D+04 0.000000000000000D+00 0.000000000000000D+00 -.201570575357795D+04
 0.280778914604089D+03 -.306570767826869D+01 0.672618989167259D+01 -.265456036563916D+03
 0.622705927256133D+03 0.612078863558691D+02 0.295755572944290D+03 0.544559370096744D+03
 0.134042835234040D+03 0.271163209483921D+02 0.944888399768408D+02 0.911265380426296D+02
 0.488608834119168D+03 -.144460319299906D+03 0.269229269910020D+03 -.370229871575457D+03
 0.134191454871279D+04 0.592018196739137D+02 -.666199872722824D+03 -.116336044722968D+04
0.723351735759D-04 0.000000000000D+00 0.000000000000D+00 0.416080489377D-05 0.000000000000D+00  7 -2 2 23 -13 13 23 21 0 0.72329837D-01 0.15394349D+00 0.54331011D+05 0.54331011D+05 0.54331011D+05 0.11441355D+01  1  2  2  1  7  1       -2 0.430548949084D-03 0.100000000000D+01
0.167296515376D-05 0.000000000000D+00 -.277786112820D-06 0.416080489377D-05 0.000000000000D+00  7 -2 2 23 -13 13 23 21 2 0.72329837D-01 0.15394349D+00 0.54331011D+05 0.54331011D+05 0.54331011D+05 0.11441355D+01  1  2  3  1  7  1       -2 0.130351127788D-04 0.100000000000D+01
0.422661564017D-05 0.000000000000D+00 0.000000000000D+00 0.416080489377D-05 0.000000000000D+00  7 -2 2 23 -13 13 23 21 2 0.72329837D-01 0.15394349D+00 0.54331011D+05 0.54331011D+05 0.54331011D+05 0.11441355D+01  1  2 15  1  7  1       -2 0.329321931292D-04 0.100000000000D+01
  </mgrwgt>
  </event>
  <event>
  8     66 0.53686478E-06 0.82804335E+03 0.75467711E-02 0.88919625E-01
       -2 -1    0    0    0  501 0.00000000E+00 0.00000000E+00 0.35879939E+03 0.35879954E+03 0.32000000E+00 0.0000E+00 0.9000E+01
        2 -1    0    0  501    0 0.00000000E+00 0.00000000E+00 -.19896127E+04 0.19896127E+04 0.32000000E+00 0.0000E+00 0.9000E+01
       25  2    1    2    0    0 0.63601714E+03 -.51041813E+03 -.88455143E+03 0.12393169E+04 0.29737295E+03 0.0000E+00 0.0000E+00
       23  2    1    2    0    0 -.63601714E+03 0.51041813E+03 -.74626187E+03 0.11090954E+04 0.90228862E+02 0.0000E+00 0.0000E+00
       23  1    3    3    0    0 0.39159848E+03 -.29442727E+03 -.35941340E+03 0.61443472E+03 0.91188000E+02 0.0000E+00 0.9000E+01
      -11  1    4    4    0    0 -.48493689E+03 0.42883817E+03 -.56243146E+03 0.85755181E+03 0.51099893E-03 0.0000E+00 0.9000E+01
       11  1    4    4    0    0 -.15108025E+03 0.81579961E+02 -.18383041E+03 0.25154354E+03 0.51099893E-03 0.0000E+00 0.9000E+01
       23  1    3    3    0    0 0.24441867E+03 -.21599087E+03 -.52513802E+03 0.62488218E+03 0.91188000E+02 0.0000E+00 0.9000E+01
#aMCatNLO 1  0  0  2  2 0.53215358D+02 0.00000000D+00  -5  7  0 0.00000000D+00 0.00000000D+00 0.00000000D+00 0.00000000D+00 0.00000000D+00
  <mgrwgt>
 0.1020988677D-03    4    2    0
 0.844909477737364D+03 0.000000000000000D+00 0.000000000000000D+00 0.844909477737364D+03
 0.844909477737364D+03 0.000000000000000D+00 0.000000000000000D+00 -.844909477737364D+03
 0.507042410902752D+03 0.391598477531843D+03 -.294427267862070D+03 0.934878144150046D+02
 0.648983417599097D+03 -.484936889165246D+03 0.428838171626488D+03 0.459729529331002D+02
 0.172169247289014D+03 -.151080254787452D+03 0.815799612360649D+02 -.127167704291019D+02
 0.361623879683865D+03 0.244418666420855D+03 -.215990865000483D+03 -.126743996919003D+03
 0.000000000000000D+00 0.000000000000000D+00 -.000000000000000D+00 0.000000000000000D+00
 0.945568271895534D+03 0.000000000000000D+00 0.000000000000000D+00 0.945568271895534D+03
 0.852391074712575D+03 0.000000000000000D+00 0.000000000000000D+00 -.852391074712575D+03
 0.491910953283299D+03 0.378336831629739D+03 -.285976231537448D+03 0.934878144150046D+02
 0.669441582983484D+03 -.502439693733559D+03 0.439991903092513D+03 0.459729529331002D+02
 0.177647594524396D+03 -.155724262458923D+03 0.845393735000583D+02 -.127167704291019D+02
 0.351656539430907D+03 0.234949483287454D+03 -.209956590581184D+03 -.126743996919003D+03
 0.107302676386022D+03 0.448776412752883D+02 -.285984544739390D+02 0.931771971829591D+02
0.492063356891D-04 0.000000000000D+00 0.000000000000D+00 0.767099730212D-07 0.000000000000D+00  7 -2 2 23 -11 11 23 21 0 0.55199920D-01 0.30609427D+00 0.68565579D+06 0.68565579D+06 0.68565579D+06 0.10589512D+01  1  2  2  2  7  2        2 0.128834087150D-03 0.100000000000D+01
-.273233391952D-05 0.000000000000D+00 -.188965285372D-06 0.767099730212D-07 0.000000000000D+00  7 -2 2 23 -11 11 23 21 2 0.55199920D-01 0.30609427D+00 0.68565579D+06 0.68565579D+06 0.68565579D+06 0.10589512D+01  1  2  3  2  7  2        2 -.802223645484D-05 0.100000000000D+01
0.306067826695D-05 0.000000000000D+00 0.000000000000D+00 0.767099730212D-07 0.000000000000D+00  7 -2 2 23 -11 11 23 21 2 0.55199920D-01 0.30609427D+00 0.68565579D+06 0.68565579D+06 0.68565579D+06 0.10589512D+01  1  2 15  2  7  2        2 0.898626796465D-05 0.100000000000D+01
-.943422739971D-05 0.000000000000D+00 0.000000000000D+00 0.767099730212D-07 0.000000000000D+00  7 -2 2 23 -11 11 23 21 2 0.55199920D-01 0.30609427D+00 0.68565579D+06 0.68565579D+06 0.68565579D+06 0.10589512D+01  1  2  4  2  7  2        2 -.276992509695D-04 0.100000000000D+01
  </mgrwgt>
  </event>
  <event>
  8     66 0.53686478E-06 0.40000261E+03 0.75467711E-02 0.88700913E-01
       -2 -1    0    0    0  501 0.00000000E+00 0.00000000E+00 0.14577923E+04 0.14577923E+04 0.32000000E+00 0.0000E+00 0.9000E+01
        2 -1    0    0  501    0 0.00000000E+00 0.00000000E+00 -.45892888E+03 0.45892899E+03 0.32000000E+00 0.0000E+00 0.9000E+01
       25  2    1    2    0    0 0.26258427E+03 -.22824249E+03 -.31317108E+03 0.55610743E+03 0.30022360E+03 0.0000E+00 0.0000E+00
       23  2    1    2    0    0 -.26258427E+03 0.22824249E+03 0.13120345E+04 0.13606139E+04 0.93757594E+02 0.0000E+00 0.0000E+00
       23  1    3    3    0    0 0.79814924E+02 0.15335138E+02 -.20201824E+02 0.12381015E+03 0.91188000E+02 0.0000E+00 0.9000E+01
      -11  1    4    4    0    0 -.22302010E+03 0.14014799E+03 0.98625798E+03 0.10208253E+04 0.51099893E-03 0.0000E+00 0.9000E+01
       11  1    4    4    0    0 -.39564174E+02 0.88094504E+02 0.32577650E+03 0.33978860E+03 0.51099893E-03 0.0000E+00 0.9000E+01
       23  1    3    3    0    0 0.18276935E+03 -.24357763E+03 -.29296926E+03 0.43229728E+03 0.91188000E+02 0.0000E+00 0.9000E+01
#aMCatNLO 1  0  0  1  2 0.68258057D+03 0.00000000D+00  -5  7  0 0.00000000D+00 0.00000000D+00 0.00000000D+00 0.00000000D+00 0.00000000D+00
  <mgrwgt>
 0.2149381193D-03    6    2    0
 0.817938327788529D+03 0.000000000000000D+00 0.000000000000000D+00 0.817938327788529D+03
 0.817938327788529D+03 0.000000000000000D+00 0.000000000000000D+00 -.817938327788529D+03
 0.157400874981826D+03 0.798149244025659D+02 0.153351382000480D+02 -.992683004792696D+02
 0.593871505194908D+03 -.223020100836396D+03 0.140147990593335D+03 0.532263036513001D+03
 0.199204397511570D+03 -.395641739233460D+02 0.880945044045546D+02 0.174230957132843D+03
 0.685399877888755D+03 0.182769350357176D+03 -.243577633197937D+03 -.607225693166575D+03
 0.000000000000000D+00 0.000000000000000D+00 0.000000000000000D+00 0.000000000000000D+00
 0.136169099873220D+04 0.000000000000000D+00 0.000000000000000D+00 0.136169099873220D+04
 0.113129556528241D+04 0.000000000000000D+00 0.000000000000000D+00 -.113129556528241D+04
 0.138707669516430D+03 0.289762188475490D+02 -.151904410711297D+02 -.992683004792696D+02
 0.693172855703639D+03 -.443992006293692D+03 0.746767658651495D+01 0.532263036513001D+03
 0.211081069896151D+03 -.110005849648669D+03 0.457985227725881D+02 0.174230957132843D+03
 0.729609607721003D+03 -.601728137008227D+02 -.389449763621055D+03 -.607225693166575D+03
 0.720415361177381D+03 0.585194450795635D+03 0.351374005333082D+03 0.230395433449792D+03
0.235842383468D-03 0.000000000000D+00 0.000000000000D+00 0.110121854512D-05 0.000000000000D+00  7 -2 2 23 -11 11 23 21 0 0.22427574D+00 0.70604454D-01 0.16000209D+06 0.16000209D+06 0.16000209D+06 0.11053464D+01  1  2  2  1  7  1       -2 0.175612624919D-03 0.100000000000D+01
-.495106043091D-05 0.000000000000D+00 -.905696851243D-06 0.110121854512D-05 0.000000000000D+00  7 -2 2 23 -11 11 23 21 2 0.22427574D+00 0.70604454D-01 0.16000209D+06 0.16000209D+06 0.16000209D+06 0.11053464D+01  1  2  3  1  7  1       -2 -.450431627774D-05 0.100000000000D+01
0.129884996489D-04 0.000000000000D+00 0.000000000000D+00 0.110121854512D-05 0.000000000000D+00  7 -2 2 23 -11 11 23 21 2 0.22427574D+00 0.70604454D-01 0.16000209D+06 0.16000209D+06 0.16000209D+06 0.11053464D+01  1  2 15  1  7  1       -2 0.118165211692D-04 0.100000000000D+01
0.895328349568D-05 0.000000000000D+00 -.603490982957D-04 0.110121854512D-05 0.000000000000D+00  7 -2 2 23 -11 11 23 21 2 0.42698908D+00 0.70604454D-01 0.16000209D+06 0.16000209D+06 0.16000209D+06 0.11053464D+01  1  2  5  1  7  1       -2 0.353736488909D-06 0.100000000000D+01
0.333992879515D-04 0.000000000000D+00 0.496883002215D-04 0.110121854512D-05 0.000000000000D+00  7 -2 2 23 -11 11 23 21 2 0.22427574D+00 0.70604454D-01 0.16000209D+06 0.16000209D+06 0.16000209D+06 0.11053464D+01  1  2  6  1  7  1       -2 0.303856029398D-04 0.100000000000D+01
0.408024983706D-05 0.000000000000D+00 -.422115723095D-05 0.110121854512D-05 0.000000000000D+00  7 21 2 23 -11 11 23 2 2 0.42698908D+00 0.70604454D-01 0.16000209D+06 0.16000209D+06 0.16000209D+06 0.11053464D+01  1  2  5  3  7  1       -2 0.127395002865D-05 0.100000000000D+01
  </mgrwgt>
  </event>
  <event>
  8     66 0.53686478E-06 0.23493247E+03 0.75467711E-02 0.94459457E-01
       -2 -1    0    0    0  501 0.00000000E+00 0.00000000E+00 0.10065755E+03 0.10065806E+03 0.32000000E+00 0.0000E+00 0.9000E+01
        2 -1    0    0  501    0 0.00000000E+00 0.00000000E+00 -.73746091E+03 0.73746098E+03 0.32000000E+00 0.0000E+00 0.9000E+01
       25  2    1    2    0    0 -.88115011E+02 0.15033337E+03 -.45263305E+03 0.57046051E+03 0.30030674E+03 0.0000E+00 0.0000E+00
       23  2    1    2    0    0 0.88115011E+02 -.15033337E+03 -.18417030E+03 0.26765852E+03 0.85778821E+02 0.0000E+00 0.0000E+00
       23  1    3    3    0    0 -.58950097E+02 0.16360788E+03 -.42773031E+03 0.47064968E+03 0.91188000E+02 0.0000E+00 0.9000E+01
      -11  1    4    4    0    0 0.23876618E+01 0.12562006E+01 -.44059560E+02 0.44142086E+02 0.51099893E-03 0.0000E+00 0.9000E+01
       11  1    4    4    0    0 0.85727349E+02 -.15158957E+03 -.14011074E+03 0.22351644E+03 0.51099893E-03 0.0000E+00 0.9000E+01
       23  1    3    3    0    0 -.29164914E+02 -.13274511E+02 -.24902747E+02 0.99810836E+02 0.91188000E+02 0.0000E+00 0.9000E+01
#aMCatNLO 1  0  0  2  2 0.41018855D+03 0.00000000D+00  -5  7  0 0.00000000D+00 0.00000000D+00 0.00000000D+00 0.00000000D+00 0.00000000D+00
  <mgrwgt>
 0.3189623726D-03    5    2    0
 0.272454124604174D+03 0.000000000000000D+00 0.000000000000000D+00 0.272454124604174D+03
 0.272454124604174D+03 0.000000000000000D+00 0.000000000000000D+00 -.272454124604174D+03
 0.224038373515136D+03 -.589500970086775D+02 0.163607880083068D+03 -.107866997273030D+03
 0.164046831045585D+02 0.238766180176906D+01 0.125620059854961D+01 -.161813058477233D+02
 0.180049368857344D+03 0.857273491993400D+02 -.151589569827486D+03 0.457077580362442D+02
 0.124415823731310D+03 -.291649139924316D+02 -.132745108541308D+02 0.783405450845087D+02
 0.000000000000000D+00 -.000000000000000D+00 0.000000000000000D+00 -.000000000000000D+00
 0.468781972561301D+03 0.000000000000000D+00 0.000000000000000D+00 0.468781972561301D+03
 0.670256016384782D+03 0.000000000000000D+00 0.000000000000000D+00 -.670256016384782D+03
 0.151398578294195D+03 0.296318026743614D+01 0.544261759405016D+02 -.107866997273030D+03
 0.205971295907021D+02 0.848962773261314D+01 -.950438369386786D+01 -.161813058477233D+02
 0.356455822084673D+03 0.174202376728694D+03 -.307611907922035D+03 0.457077580362442D+02
 0.153589264569990D+03 0.166808825739920D+02 -.941218253093564D+02 0.783405450845087D+02
 0.456997194406523D+03 -.202336067302735D+03 0.356811940984757D+03 -.201474043823482D+03
0.214770251020D-05 0.000000000000D+00 0.000000000000D+00 0.120038156299D-07 0.000000000000D+00  7 -2 2 23 -11 11 23 21 0 0.15485821D-01 0.11345557D+00 0.55193268D+05 0.55193268D+05 0.55193268D+05 0.11435395D+01  1  2  2  2  7  2        2 0.308447010096D-03 0.100000000000D+01
-.116131757294D-06 0.000000000000D+00 -.824774314224D-08 0.120038156299D-07 0.000000000000D+00  7 -2 2 23 -11 11 23 21 2 0.15485821D-01 0.11345557D+00 0.55193268D+05 0.55193268D+05 0.55193268D+05 0.11435395D+01  1  2  3  2  7  2        2 -.218102078340D-04 0.100000000000D+01
0.132421944881D-06 0.000000000000D+00 0.000000000000D+00 0.120038156299D-07 0.000000000000D+00  7 -2 2 23 -11 11 23 21 2 0.15485821D-01 0.11345557D+00 0.55193268D+05 0.55193268D+05 0.55193268D+05 0.11435395D+01  1  2 15  2  7  2        2 0.248695981782D-04 0.100000000000D+01
0.328197477943D-06 0.000000000000D+00 -.694419926070D-06 0.120038156299D-07 0.000000000000D+00  7 -2 2 23 -11 11 23 21 2 0.15485821D-01 0.36924130D+00 0.55193268D+05 0.55193268D+05 0.55193268D+05 0.11435395D+01  1  2  5  2  7  2        2 0.722396423686D-05 0.100000000000D+01
0.734014643226D-07 0.000000000000D+00 -.946610321346D-07 0.120038156299D-07 0.000000000000D+00  7 -2 21 23 -11 11 23 -2 2 0.15485821D-01 0.36924130D+00 0.55193268D+05 0.55193268D+05 0.55193268D+05 0.11435395D+01  1  2  5  4  7  2        2 0.232007920203D-06 0.100000000000D+01
  </mgrwgt>
  </event>
  <event>
  8     66 0.53686478E-06 0.21432054E+03 0.75467711E-02 0.96846459E-01
       -2 -1    0    0    0  501 0.00000000E+00 0.00000000E+00 0.73161725E+02 0.73162424E+02 0.32000000E+00 0.0000E+00 0.9000E+01
        2 -1    0    0  501    0 0.00000000E+00 0.00000000E+00 -.31567285E+04 0.31567285E+04 0.32000000E+00 0.0000E+00 0.9000E+01
       25  2    1    2    0    0 -.18083758E+03 0.31213320E+03 -.24542752E+04 0.24987661E+04 0.30039271E+03 0.0000E+00 0.0000E+00
       23  2    1    2    0    0 0.18083758E+03 -.31213320E+03 -.62929153E+03 0.73112481E+03 0.91685906E+02 0.0000E+00 0.0000E+00
       23  1    3    3    0    0 -.36773579E+00 0.10006672E+03 -.13322829E+04 0.13391439E+04 0.91188000E+02 0.0000E+00 0.9000E+01
      -13  1    4    4    0    0 0.33500818E+02 -.10376550E+03 -.26292771E+03 0.28464113E+03 0.10565837E+00 0.0000E+00 0.9000E+01
       13  1    4    4    0    0 0.14733676E+03 -.20836771E+03 -.36636382E+03 0.44648368E+03 0.10565837E+00 0.0000E+00 0.9000E+01
       23  1    3    3    0    0 -.18046984E+03 0.21206648E+03 -.11219924E+04 0.11596222E+04 0.91188000E+02 0.0000E+00 0.9000E+01
#aMCatNLO 1  0  0  2  1 0.32808479D+02 0.00000000D+00  -5  7  0 0.00000000D+00 0.00000000D+00 0.00000000D+00 0.00000000D+00 0.00000000D+00
  <mgrwgt>
 0.4558531217D-03    9    2    0
 0.480575545227546D+03 0.000000000000000D+00 0.000000000000000D+00 0.480575545227546D+03
 0.480575545227546D+03 0.000000000000000D+00 0.000000000000000D+00 -.480575545227546D+03
 0.225880772366141D+03 -.367735793534948D+00 0.100066718730748D+03 -.180813131584993D+03
 0.112994093653763D+03 0.335006664945188D+02 -.103765357374864D+03 0.296331090830044D+02
 0.325012974273864D+03 0.147336910225224D+03 -.208367844616825D+03 0.201266265582104D+03
 0.297263250161325D+03 -.180469840926208D+03 0.212066483260941D+03 -.500862430801150D+02
 0.000000000000000D+00 -.000000000000000D+00 0.000000000000000D+00 -.000000000000000D+00
 0.491337209872363D+03 0.000000000000000D+00 0.000000000000000D+00 0.491337209872363D+03
 0.506528495992122D+03 0.000000000000000D+00 0.000000000000000D+00 -.506528495992122D+03
 0.222651065918673D+03 0.102150321142301D+01 0.925408763106253D+02 -.180813131584993D+03
 0.116750624922906D+03 0.342122554988809D+02 -.107620206465344D+03 0.296331090830044D+02
 0.333109602794907D+03 0.149375315252621D+03 -.219410375793842D+03 0.201266265582104D+03
 0.289199585477602D+03 -.178653387830384D+03 0.202226319175479D+03 -.500862430801150D+02
 0.361548267503967D+02 -.595568613254055D+01 0.322633867730817D+02 -.151912861197597D+02
0.164984542024D-04 0.000000000000D+00 0.000000000000D+00 0.835025727975D-06 0.000000000000D+00  7 -2 2 23 -13 13 23 21 0 0.11255705D-01 0.48565059D+00 0.15706669D+06 0.15706669D+06 0.15706669D+06 0.11059776D+01  1  2  2  2  7  2        2 0.154821781330D-03 0.100000000000D+01
-.875167652171D-06 0.000000000000D+00 -.633584082798D-07 0.835025727975D-06 0.000000000000D+00  7 -2 2 23 -13 13 23 21 2 0.11255705D-01 0.48565059D+00 0.15706669D+06 0.15706669D+06 0.15706669D+06 0.11059776D+01  1  2  3  2  7  2        2 -.100455274741D-04 0.100000000000D+01
0.104021809294D-05 0.000000000000D+00 0.000000000000D+00 0.835025727975D-06 0.000000000000D+00  7 -2 2 23 -13 13 23 21 2 0.11255705D-01 0.48565059D+00 0.15706669D+06 0.15706669D+06 0.15706669D+06 0.11059776D+01  1  2 15  2  7  2        2 0.119400430372D-04 0.100000000000D+01
0.359350707560D-04 0.000000000000D+00 0.000000000000D+00 0.835025727975D-06 0.000000000000D+00  7 -2 2 23 -13 13 23 21 2 0.11255705D-01 0.51710229D+00 0.17053605D+06 0.17053605D+06 0.17053605D+06 0.11031811D+01  1  2 12  2  7  2        2 0.298943808221D-03 0.100000000000D+01
-.345368706093D-04 0.000000000000D+00 0.000000000000D+00 0.835025727975D-06 0.000000000000D+00  7 -2 2 23 -13 13 23 21 2 0.11255705D-01 0.48565059D+00 0.15706669D+06 0.15706669D+06 0.15706669D+06 0.11059776D+01  1  2  4  2  7  2        2 -.396428137757D-03 0.100000000000D+01
-.132657052829D-03 0.000000000000D+00 -.211364305502D-04 0.835025727975D-06 0.000000000000D+00  7 -2 2 23 -13 13 23 21 2 0.11255705D-01 0.51503619D+00 0.15706669D+06 0.15706669D+06 0.15706669D+06 0.11059776D+01  1  2  5  2  7  2        2 -.113774875154D-02 0.100000000000D+01
0.133704399082D-03 0.000000000000D+00 0.211000088603D-04 0.835025727975D-06 0.000000000000D+00  7 -2 2 23 -13 13 23 21 2 0.11255705D-01 0.48565059D+00 0.15706669D+06 0.15706669D+06 0.15706669D+06 0.11059776D+01  1  2  6  2  7  2        2 0.153471304734D-02 0.100000000000D+01
0.443979617121D-06 0.000000000000D+00 0.000000000000D+00 0.835025727975D-06 0.000000000000D+00  7 -2 21 23 -13 13 23 -2 2 0.11255705D-01 0.51710229D+00 0.17053605D+06 0.17053605D+06 0.17053605D+06 0.11031811D+01  1  2 12  4  7  2        2 0.161621206271D-06 0.100000000000D+01
-.131537556255D-05 0.000000000000D+00 -.213625958082D-06 0.835025727975D-06 0.000000000000D+00  7 -2 21 23 -13 13 23 -2 2 0.11255705D-01 0.51503619D+00 0.15706669D+06 0.15706669D+06 0.15706669D+06 0.11059776D+01  1  2  5  4  7  2        2 -.504762663081D-06 0.100000000000D+01
  </mgrwgt>
  </event>
  <event>
  8     66 0.53686478E-06 0.67278416E+03 0.75467711E-02 0.84524169E-01
       -2 -1    0    0    0  501 0.00000000E+00 0.00000000E+00 0.20047381E+03 0.20047406E+03 0.32000000E+00 0.0000E+00 0.9000E+01
        2 -1    0    0  501    0 0.00000000E+00 0.00000000E+00 -.23814365E+04 0.23814365E+04 0.32000000E+00 0.0000E+00 0.9000E+01
       25  2    1    2    0    0 0.64802673E+03 -.87451268E+02 -.11852249E+04 0.13866257E+04 0.30064344E+03 0.0000E+00 0.0000E+00
       23  2    1    2    0    0 -.64802673E+03 0.87451268E+02 -.99573774E+03 0.11952848E+04 0.98110913E+02 0.0000E+00 0.0000E+00
       23  1    3    3    0    0 0.18770405E+03 -.11001894E+02 -.58310609E+03 0.61942055E+03 0.91188000E+02 0.0000E+00 0.9000E+01
      -11  1    4    4    0    0 -.36739505E+02 -.17859451E+02 -.66037726E+02 0.77651352E+02 0.51099893E-03 0.0000E+00 0.9000E+01
       11  1    4    4    0    0 -.61128722E+03 0.10531072E+03 -.92970001E+03 0.11176334E+04 0.51099893E-03 0.0000E+00 0.9000E+01
       23  1    3    3    0    0 0.46032268E+03 -.76449374E+02 -.60211882E+03 0.76720519E+03 0.91188000E+02 0.0000E+00 0.9000E+01
#aMCatNLO 1  0  0  1  1 0.10200928D+04 0.00000000D+00  -5  7  0 0.00000000D+00 0.00000000D+00 0.00000000D+00 0.00000000D+00 0.00000000D+00
  <mgrwgt>
 0.2844721166D-03    5    2    0
 0.690952957618982D+03 0.000000000000000D+00 0.000000000000000D+00 0.690952957618982D+03
 0.690952957618982D+03 0.000000000000000D+00 0.000000000000000D+00 -.690952957618982D+03
 0.237031939291041D+03 0.187704048638903D+03 -.110018944979899D+02 -.111870627700445D+03
 0.408588097971822D+02 -.367395052132980D+02 -.178594514628590D+02 -.831317129708578D+00
 0.620873370779862D+03 -.611287223036998D+03 0.105310719562411D+03 0.268575099462105D+02
 0.483141795369878D+03 0.460322679611394D+03 -.764493736015619D+02 0.858444348839427D+02
 0.000000000000000D+00 -.000000000000000D+00 0.000000000000000D+00 0.000000000000000D+00
 0.530656229438313D+04 0.000000000000000D+00 0.000000000000000D+00 0.530656229438313D+04
 0.917304749984026D+03 0.000000000000000D+00 0.000000000000000D+00 -.917304749984026D+03
 0.389646068397017D+03 0.319875588647168D+03 -.169332152052672D+03 -.111870627700445D+03
 0.435259466884498D+02 -.189420668460652D+02 -.391792681217353D+02 -.831317129708578D+00
 0.422860164630989D+03 -.391155246102854D+03 -.158388656277691D+03 0.268575099462105D+02
 0.861597952888567D+03 0.743939339614113D+03 -.416197997414383D+03 0.858444348839427D+02
 0.450623691176213D+04 -.653717615312362D+03 0.783098073866481D+03 0.438925754439910D+04
0.600016058627D-04 0.000000000000D+00 0.000000000000D+00 0.410537466106D-07 0.000000000000D+00  7 -2 2 23 -11 11 23 21 0 0.30842145D-01 0.36637486D+00 0.45263853D+06 0.45263853D+06 0.45263853D+06 0.10715783D+01  1  2  2  1  7  1       -2 0.294027386125D-03 0.100000000000D+01
-.333054465770D-05 0.000000000000D+00 -.230421965298D-06 0.410537466106D-07 0.000000000000D+00  7 -2 2 23 -11 11 23 21 2 0.30842145D-01 0.36637486D+00 0.45263853D+06 0.45263853D+06 0.45263853D+06 0.10715783D+01  1  2  3  1  7  1       -2 -.187407947038D-04 0.100000000000D+01
0.367293410078D-05 0.000000000000D+00 0.000000000000D+00 0.410537466106D-07 0.000000000000D+00  7 -2 2 23 -11 11 23 21 2 0.30842145D-01 0.36637486D+00 0.45263853D+06 0.45263853D+06 0.45263853D+06 0.10715783D+01  1  2 15  1  7  1       -2 0.206674015868D-04 0.100000000000D+01
-.135412671948D-03 0.000000000000D+00 -.371945444673D-04 0.410537466106D-07 0.000000000000D+00  7 -2 2 23 -11 11 23 21 2 0.26709422D+00 0.36637486D+00 0.45263853D+06 0.45263853D+06 0.45263853D+06 0.10715783D+01  1  2  5  1  7  1       -2 -.364373890219D-05 0.100000000000D+01
-.402633071009D-04 0.000000000000D+00 -.968791905440D-05 0.410537466106D-07 0.000000000000D+00  7 21 2 23 -11 11 23 2 2 0.26709422D+00 0.36637486D+00 0.45263853D+06 0.45263853D+06 0.45263853D+06 0.10715783D+01  1  2  5  3  7  1       -2 -.783813750823D-05 0.100000000000D+01
  </mgrwgt>
  </event>
  <event>
  8     66 0.53686478E-06 0.28307211E+03 0.75467711E-02 0.94388703E-01
       -4 -1    0    0    0  501 0.00000000E+00 0.00000000E+00 0.25217429E+03 0.25217906E+03 0.15500000E+01 0.0000E+00 0.9000E+01
        4 -1    0    0  501    0 0.00000000E+00 0.00000000E+00 -.40975211E+03 0.40975504E+03 0.15500000E+01 0.0000E+00 0.9000E+01
       25  2    1    2    0    0 -.18640521E+03 -.98137594E+02 -.21379808E+03 0.42427207E+03 0.29986544E+03 0.0000E+00 0.0000E+00
       23  2    1    2    0    0 0.18640521E+03 0.98137594E+02 0.56220266E+02 0.23766203E+03 0.94576064E+02 0.0000E+00 0.0000E+00
       23  1    3    3    0    0 -.15389475E+03 0.34264017E+02 -.42330740E+02 0.18698866E+03 0.91188000E+02 0.0000E+00 0.9000E+01
      -11  1    4    4    0    0 0.60449047E+02 0.21705135E+00 0.49243618E+02 0.77968380E+02 0.51099893E-03 0.0000E+00 0.9000E+01
       11  1    4    4    0    0 0.12595616E+03 0.97920542E+02 0.69766473E+01 0.15969365E+03 0.51099893E-03 0.0000E+00 0.9000E+01
       23  1    3    3    0    0 -.32510461E+02 -.13240161E+03 -.17146734E+03 0.23728341E+03 0.91188000E+02 0.0000E+00 0.9000E+01
#aMCatNLO 1  0  0  2  1 0.36577397D+03 0.00000000D+00  -5  7  0 0.00000000D+00 0.00000000D+00 0.00000000D+00 0.00000000D+00 0.00000000D+00
  <mgrwgt>
 0.1322448305D-04    3    2    0
 0.321452165868804D+03 0.000000000000000D+00 0.000000000000000D+00 0.321452165868804D+03
 0.321452165868804D+03 0.000000000000000D+00 0.000000000000000D+00 -.321452165868804D+03
 0.182148071964276D+03 -.153894747986112D+03 0.342640165723374D+02 0.224777377080055D+01
 0.923459801547552D+02 0.604490466245837D+02 0.217051363729048D+00 0.698115012131014D+02
 0.166130526148666D+03 0.125956162440562D+03 0.979205423012727D+02 0.463245535013975D+02
 0.202279753469912D+03 -.325104610790344D+02 -.132401610237339D+03 -.118383828485299D+03
 0.000000000000000D+00 0.000000000000000D+00 -.000000000000000D+00 0.000000000000000D+00
 0.192228891705821D+04 0.000000000000000D+00 0.000000000000000D+00 0.192228891705821D+04
 0.391381685975335D+03 0.000000000000000D+00 0.000000000000000D+00 -.391381685975335D+03
 0.232403099227903D+03 -.158101671165866D+03 0.143856728290234D+03 0.224777377080055D+01
 0.105049925781815D+03 0.584458454036466D+02 0.524015682989634D+02 0.698115012131014D+02
 0.244057305068576D+03 0.121793519044240D+03 0.206359740790331D+03 0.463245535013975D+02
 0.158162958859010D+03 -.361682840616813D+02 -.371132670649403D+02 -.118383828485299D+03
 0.157399731409624D+04 0.140305907796605D+02 -.365504770314588D+03 0.153090723108287D+04
0.363678040234D-05 0.000000000000D+00 0.000000000000D+00 0.539771274662D-07 0.000000000000D+00  7 -4 4 23 -11 11 23 21 0 0.38796637D-01 0.63039377D-01 0.80129822D+05 0.80129822D+05 0.80129822D+05 0.11297034D+01  1  2  2  2  7  2        4 0.130605592708D-04 0.100000000000D+01
-.198072000557D-06 0.000000000000D+00 -.139661943313D-07 0.539771274662D-07 0.000000000000D+00  7 -4 4 23 -11 11 23 21 2 0.38796637D-01 0.63039377D-01 0.80129822D+05 0.80129822D+05 0.80129822D+05 0.11297034D+01  1  2  3  2  7  2        4 -.907813525010D-06 0.100000000000D+01
0.233837837030D-06 0.000000000000D+00 0.000000000000D+00 0.539771274662D-07 0.000000000000D+00  7 -4 4 23 -11 11 23 21 2 0.38796637D-01 0.63039377D-01 0.80129822D+05 0.80129822D+05 0.80129822D+05 0.11297034D+01  1  2 15  2  7  2        4 0.107173730016D-05 0.100000000000D+01
  </mgrwgt>
  </event>
  <event>
  8     66 0.53686478E-06 0.16225155E+03 0.75467711E-02 0.96244318E-01
       -2 -1    0    0    0  501 0.00000000E+00 0.00000000E+00 0.35291993E+03 0.35292007E+03 0.32000000E+00 0.0000E+00 0.9000E+01
        2 -1    0    0  501    0 0.00000000E+00 0.00000000E+00 -.32623771E+04 0.32623771E+04 0.32000000E+00 0.0000E+00 0.9000E+01
       25  2    1    2    0    0 0.33497561E+03 -.13359344E+03 -.31420286E+04 0.31768344E+04 0.29979543E+03 0.0000E+00 0.0000E+00
       23  2    1    2    0    0 -.33497561E+03 0.13359344E+03 0.23257141E+03 0.43846279E+03 0.90023786E+02 0.0000E+00 0.0000E+00
       23  1    3    3    0    0 0.24381212E+02 0.37120977E+02 -.79544718E+03 0.80188770E+03 0.91188000E+02 0.0000E+00 0.9000E+01
      -13  1    4    4    0    0 -.25208023E+03 0.57685080E+02 0.17432622E+03 0.31186801E+03 0.10565837E+00 0.0000E+00 0.9000E+01
       13  1    4    4    0    0 -.82895380E+02 0.75908364E+02 0.58245191E+02 0.12659478E+03 0.10565837E+00 0.0000E+00 0.9000E+01
       23  1    3    3    0    0 0.31059440E+03 -.17071442E+03 -.23465814E+04 0.23749467E+04 0.91188000E+02 0.0000E+00 0.9000E+01
#aMCatNLO 1  0  0  2  1 0.32414445D+02 0.00000000D+00  -5  7  0 0.00000000D+00 0.00000000D+00 0.00000000D+00 0.00000000D+00 0.00000000D+00
  <mgrwgt>
 0.3221623937D-03    9    2    0
 0.107301359741605D+04 0.000000000000000D+00 0.000000000000000D+00 0.107301359741605D+04
 0.107301359741605D+04 0.000000000000000D+00 0.000000000000000D+00 -.107301359741605D+04
 0.272476896833061D+03 0.243812118326309D+02 0.371209767415971D+02 -.252895230400054D+03
 0.761729216954455D+03 -.252080467238825D+03 0.576850553228850D+02 0.716490943690915D+03
 0.292232195173739D+03 -.828951472562154D+02 0.759083895070603D+02 0.269751676287427D+03
 0.819588885870847D+03 0.310594402662410D+03 -.170714421571543D+03 -.733347389578289D+03
 0.000000000000000D+00 -.000000000000000D+00 0.000000000000000D+00 -.000000000000000D+00
 0.107897911085672D+04 0.000000000000000D+00 0.000000000000000D+00 0.107897911085672D+04
 0.111809040766606D+04 0.000000000000000D+00 0.000000000000000D+00 -.111809040766606D+04
 0.272086846632585D+03 0.256394291811360D+02 0.332057657438144D+02 -.252895230400054D+03
 0.759821655088883D+03 -.248564916071841D+03 0.467456698434221D+02 0.716490943690915D+03
 0.290790878936944D+03 -.815480694251494D+02 0.717166702104501D+02 0.269751676287427D+03
 0.823572600526730D+03 0.314390935783442D+03 -.182528142187121D+03 -.733347389578289D+03
 0.507975373376459D+02 -.991737946758810D+01 0.308600363894348D+02 -.391112968093383D+02
0.177448633186D-03 0.000000000000D+00 0.000000000000D+00 0.541510026739D-05 0.000000000000D+00  7 -2 2 23 -13 13 23 21 0 0.54295386D-01 0.50190418D+00 0.17572251D+06 0.17572251D+06 0.17572251D+06 0.11021682D+01  1  2  2  2  7  2        2 0.914339229927D-04 0.100000000000D+01
0.730402423042D-06 0.000000000000D+00 -.681449474733D-06 0.541510026739D-05 0.000000000000D+00  7 -2 2 23 -13 13 23 21 2 0.54295386D-01 0.50190418D+00 0.17572251D+06 0.17572251D+06 0.17572251D+06 0.11021682D+01  1  2  3  2  7  2        2 0.457185676944D-06 0.100000000000D+01
0.103681373884D-04 0.000000000000D+00 0.000000000000D+00 0.541510026739D-05 0.000000000000D+00  7 -2 2 23 -13 13 23 21 2 0.54295386D-01 0.50190418D+00 0.17572251D+06 0.17572251D+06 0.17572251D+06 0.11021682D+01  1  2 15  2  7  2        2 0.648979762528D-05 0.100000000000D+01
0.556206095694D-03 0.000000000000D+00 0.000000000000D+00 0.541510026739D-05 0.000000000000D+00  7 -2 2 23 -13 13 23 21 2 0.54295386D-01 0.52434942D+00 0.18883693D+06 0.18883693D+06 0.18883693D+06 0.10997462D+01  1  2 12  2  7  2        2 0.274421746003D-03 0.100000000000D+01
-.566795621210D-03 0.000000000000D+00 0.000000000000D+00 0.541510026739D-05 0.000000000000D+00  7 -2 2 23 -13 13 23 21 2 0.54295386D-01 0.50190418D+00 0.17572251D+06 0.17572251D+06 0.17572251D+06 0.11021682D+01  1  2  4  2  7  2        2 -.354778176519D-03 0.100000000000D+01
-.239837177751D-02 0.000000000000D+00 -.301527000977D-03 0.541510026739D-05 0.000000000000D+00  7 -2 2 23 -13 13 23 21 2 0.54295386D-01 0.52370204D+00 0.17572251D+06 0.17572251D+06 0.17572251D+06 0.11021682D+01  1  2  5  2  7  2        2 -.120394537726D-02 0.100000000000D+01
0.240957645768D-02 0.000000000000D+00 0.301350768578D-03 0.541510026739D-05 0.000000000000D+00  7 -2 2 23 -13 13 23 21 2 0.54295386D-01 0.50190418D+00 0.17572251D+06 0.17572251D+06 0.17572251D+06 0.11021682D+01  1  2  6  2  7  2        2 0.150824231848D-02 0.100000000000D+01
0.103546204647D-04 0.000000000000D+00 0.000000000000D+00 0.541510026739D-05 0.000000000000D+00  7 -2 21 23 -13 13 23 -2 2 0.54295386D-01 0.52434942D+00 0.18883693D+06 0.18883693D+06 0.18883693D+06 0.10997462D+01  1  2 12  4  7  2        2 0.208723204798D-06 0.100000000000D+01
-.177623403031D-04 0.000000000000D+00 -.225745815345D-05 0.541510026739D-05 0.000000000000D+00  7 -2 21 23 -13 13 23 -2 2 0.54295386D-01 0.52370204D+00 0.17572251D+06 0.17572251D+06 0.17572251D+06 0.11021682D+01  1  2  5  4  7  2        2 -.367746500533D-06 0.100000000000D+01
  </mgrwgt>
  </event>
  <event>
  9     66 0.53686478E-06 0.31433817E+03 0.75467711E-02 0.99765596E-01
       -2 -1    0    0    0  501 0.00000000E+00 0.00000000E+00 0.10814556E+03 0.10814603E+03 0.32000000E+00 0.0000E+00 0.9000E+01
        2 -1    0    0  502    0 0.00000000E+00 0.00000000E+00 -.13983114E+04 0.13983114E+04 0.32000000E+00 0.0000E+00 0.9000E+01
       25  2    1    2    0    0 0.24320470E+03 0.96779140E+02 -.40042747E+03 0.56508291E+03 0.30076870E+03 0.0000E+00 0.0000E+00
       23  2    1    2    0    0 -.23908190E+03 -.75849609E+02 -.87649699E+03 0.91625603E+03 0.91459418E+02 0.0000E+00 0.0000E+00
       23  1    3    3    0    0 0.22994853E+03 0.11181821E+03 -.18006711E+03 0.32575920E+03 0.91188000E+02 0.0000E+00 0.9000E+01
      -13  1    4    4    0    0 -.63393716E+02 0.17468645E+02 -.27339817E+03 0.28119475E+03 0.10565837E+00 0.0000E+00 0.9000E+01
       13  1    4    4    0    0 -.17568819E+03 -.93318254E+02 -.60309882E+03 0.63506128E+03 0.10565837E+00 0.0000E+00 0.9000E+01
       23  1    3    3    0    0 0.13256164E+02 -.15039070E+02 -.22036036E+03 0.23932371E+03 0.91188000E+02 0.0000E+00 0.9000E+01
       21  1    1    2  502  501 -.41227933E+01 -.20929531E+02 -.13241334E+02 0.25118482E+02 0.75000000E+00 0.0000E+00 0.9000E+01
#aMCatNLO 2  0  0  2  2 0.21331730D+02 0.00000000D+00  -5  7  0 0.00000000D+00 0.00000000D+00 0.00000000D+00 0.00000000D+00 0.00000000D+00
  <mgrwgt>
 0.1214054763D-03    2    2    0
 0.375291201595911D+03 0.000000000000000D+00 0.000000000000000D+00 0.375291201595911D+03
 0.375291201595911D+03 0.000000000000000D+00 0.000000000000000D+00 -.375291201595911D+03
 0.332194512004087D+03 0.228112567736491D+03 0.102497863659390D+03 0.198737985416878D+03
 0.897057143531732D+02 -.638864835340760D+02 0.149664778791139D+02 -.611689214320256D+02
 0.230896632818703D+03 -.176946300887013D+03 -.997045110984466D+02 -.109828375732492D+03
 0.977855440158586D+02 0.127202166845988D+02 -.177598304400577D+02 -.277406882523608D+02
 0.000000000000000D+00 -.000000000000000D+00 -.000000000000000D+00 0.000000000000000D+00
 0.397251796424932D+03 0.000000000000000D+00 0.000000000000000D+00 0.397251796424932D+03
 0.380658945391819D+03 0.000000000000000D+00 0.000000000000000D+00 -.380658945391819D+03
 0.336439708516868D+03 0.229948531563072D+03 0.111818210088261D+03 0.198737985416878D+03
 0.898083510239928D+02 -.633935663002882D+02 0.174687926377970D+02 -.611689214320256D+02
 0.227237734152359D+03 -.175688336368211D+03 -.933184021017894D+02 -.109828375732492D+03
 0.973996747226988D+02 0.132561644271600D+02 -.150390695208500D+02 -.277406882523608D+02
 0.270252734008326D+02 -.412279332173317D+01 -.209295311034185D+02 0.165928510331124D+02
-.407902070313D-06 0.000000000000D+00 0.000000000000D+00 0.198747278730D-06 0.000000000000D+00  7 -2 2 23 -13 13 23 21 2 0.15717845D-01 0.21208847D+00 0.98808487D+05 0.98808487D+05 0.98808487D+05 0.11221495D+01  1  2  8  2  7  2        2 -.294559057469D-04 0.100000000000D+01
0.236043805747D-05 0.000000000000D+00 0.000000000000D+00 0.198747278730D-06 0.292669273010D-08  7 -2 2 23 -13 13 23 21 2 0.16637592D-01 0.21512195D+00 0.10590331D+06 0.10590331D+06 0.10590331D+06 0.11196836D+01  1  2  1  2  7  2        2 0.150861382040D-03 0.100000000000D+01
  </mgrwgt>
  </event>
  <event>
  8     66 0.53686478E-06 0.37267221E+03 0.75467711E-02 0.98006442E-01
       -2 -1    0    0    0  501 0.00000000E+00 0.00000000E+00 0.32678710E+02 0.32680277E+02 0.32000000E+00 0.0000E+00 0.9000E+01
        2 -1    0    0  501    0 0.00000000E+00 0.00000000E+00 -.43593067E+04 0.43593067E+04 0.32000000E+00 0.0000E+00 0.9000E+01
       25  2    1    2    0    0 -.67917741E+02 -.29962112E+03 -.26346007E+04 0.26695059E+04 0.30125633E+03 0.0000E+00 0.0000E+00
       23  2    1    2    0    0 0.67917741E+02 0.29962112E+03 -.16920272E+04 0.17224810E+04 0.97974718E+02 0.0000E+00 0.0000E+00
       23  1    3    3    0    0 -.27144688E+02 0.13334562E+02 -.79730262E+03 0.80306996E+03 0.91188000E+02 0.0000E+00 0.9000E+01
      -13  1    4    4    0    0 -.13652990E+02 0.41980544E+01 -.12088687E+03 0.12172787E+03 0.10565837E+00 0.0000E+00 0.9000E+01
       13  1    4    4    0    0 0.81570731E+02 0.29542307E+03 -.15711404E+04 0.16007532E+04 0.10565837E+00 0.0000E+00 0.9000E+01
       23  1    3    3    0    0 -.40773053E+02 -.31295568E+03 -.18372981E+04 0.18664360E+04 0.91188000E+02 0.0000E+00 0.9000E+01
#aMCatNLO 1  0  0  1  2 0.46833751D+01 0.00000000D+00  -5  7  0 0.00000000D+00 0.00000000D+00 0.00000000D+00 0.00000000D+00 0.00000000D+00
  <mgrwgt>
 0.1279897525D-03    6    2    0
 0.377438718554505D+03 0.000000000000000D+00 0.000000000000000D+00 0.377438718554505D+03
 0.377438718554505D+03 0.000000000000000D+00 0.000000000000000D+00 -.377438718554505D+03
 0.102587504200407D+03 -.271446887506293D+02 0.133345605311823D+02 -.359763817266317D+02
 0.153593718036746D+02 -.136530933806978D+02 0.419772013092408D+01 -.564645809724070D+01
 0.308324701146182D+03 0.815708364076819D+02 0.295423406392222D+03 0.336946722828703D+02
 0.328605859958747D+03 -.407730542763548D+02 -.312955687054328D+03 0.792816754100212D+01
 0.000000000000000D+00 -.000000000000000D+00 0.000000000000000D+00 -.000000000000000D+00
 0.378339859672571D+03 0.000000000000000D+00 0.000000000000000D+00 0.378339859672571D+03
 0.383580495565946D+03 0.000000000000000D+00 0.000000000000000D+00 -.383580495565946D+03
 0.102416971034614D+03 -.265096262795865D+02 0.133012888203109D+02 -.359763817266317D+02
 0.152737149645425D+02 -.135581982631332D+02 0.419274845796483D+01 -.564645809724070D+01
 0.308740125981580D+03 0.834823786482114D+02 0.295323258322315D+03 0.336946722828703D+02
 0.328461153176422D+03 -.387375933405683D+02 -.313062327378444D+03 0.792816754100212D+01
 0.702839008135750D+01 -.467696076492337D+01 0.245031777853312D+00 -.524063589337534D+01
0.340399616717D-04 0.000000000000D+00 0.000000000000D+00 0.424453357896D-08 0.000000000000D+00  7 -2 2 23 -13 13 23 21 0 0.50276153D-02 0.67066268D+00 0.13888458D+06 0.13888458D+06 0.13888458D+06 0.11102003D+01  1  2  2  1  7  1       -2 0.131474373205D-03 0.100000000000D+01
-.189073760140D-05 0.000000000000D+00 -.130722415747D-06 0.424453357896D-08 0.000000000000D+00  7 -2 2 23 -13 13 23 21 2 0.50276153D-02 0.67066268D+00 0.13888458D+06 0.13888458D+06 0.13888458D+06 0.11102003D+01  1  2  3  1  7  1       -2 -.900090064540D-05 0.100000000000D+01
0.224218721470D-05 0.000000000000D+00 0.000000000000D+00 0.424453357896D-08 0.000000000000D+00  7 -2 2 23 -13 13 23 21 2 0.50276153D-02 0.67066268D+00 0.13888458D+06 0.13888458D+06 0.13888458D+06 0.11102003D+01  1  2 15  1  7  1       -2 0.106739847629D-04 0.100000000000D+01
-.158712440501D-04 0.000000000000D+00 0.000000000000D+00 0.424453357896D-08 0.000000000000D+00  7 -2 2 23 -13 13 23 21 2 0.50276153D-02 0.67066268D+00 0.13888458D+06 0.13888458D+06 0.13888458D+06 0.11102003D+01  1  2  4  1  7  1       -2 -.755554291129D-04 0.100000000000D+01
0.152716096577D-04 0.000000000000D+00 0.000000000000D+00 0.424453357896D-08 0.127126412658D-08  7 -2 2 23 -13 13 23 21 2 0.50396189D-02 0.68157587D+00 0.14063502D+06 0.14063502D+06 0.14063502D+06 0.11097681D+01  1  2 11  1  7  1       -2 0.619904278850D-04 0.100000000000D+01
0.127701820122D-06 0.000000000000D+00 0.000000000000D+00 0.424453357896D-08 0.571177371693D-12  7 21 2 23 -13 13 23 2 2 0.50396189D-02 0.68157587D+00 0.14063502D+06 0.14063502D+06 0.14063502D+06 0.11097681D+01  1  2 11  3  7  1       -2 0.840729642132D-05 0.100000000000D+01
  </mgrwgt>
  </event>
  <event>
  8     66 0.53686478E-06 0.38284976E+03 0.75467711E-02 0.91326704E-01
       -2 -1    0    0    0  501 0.00000000E+00 0.00000000E+00 0.82708148E+02 0.82708767E+02 0.32000000E+00 0.0000E+00 0.9000E+01
        2 -1    0    0  501    0 0.00000000E+00 0.00000000E+00 -.22944414E+04 0.22944414E+04 0.32000000E+00 0.0000E+00 0.9000E+01
       25  2    1    2    0    0 0.69915834E+02 0.30841431E+03 -.66507548E+03 0.79518350E+03 0.29997297E+03 0.0000E+00 0.0000E+00
       23  2    1    2    0    0 -.69915834E+02 -.30841431E+03 -.15466578E+04 0.15819667E+04 0.10227786E+03 0.0000E+00 0.0000E+00
       23  1    3    3    0    0 0.49968412E+02 0.32306034E+03 -.55007339E+03 0.64634419E+03 0.91188000E+02 0.0000E+00 0.9000E+01
      -11  1    4    4    0    0 -.37585334E+02 -.21903052E+02 -.23498327E+03 0.23897602E+03 0.51099893E-03 0.0000E+00 0.9000E+01
       11  1    4    4    0    0 -.32330500E+02 -.28651126E+03 -.13116745E+04 0.13429907E+04 0.51099893E-03 0.0000E+00 0.9000E+01
       23  1    3    3    0    0 0.19947422E+02 -.14646030E+02 -.11500210E+03 0.14883931E+03 0.91188000E+02 0.0000E+00 0.9000E+01
#aMCatNLO 1  0  0  2  1 0.47681668D+03 0.00000000D+00  -5  7  0 0.00000000D+00 0.00000000D+00 0.00000000D+00 0.00000000D+00 0.00000000D+00
  <mgrwgt>
 0.2819370846D-03    5    2    0
 0.435625712350515D+03 0.000000000000000D+00 0.000000000000000D+00 0.435625712350515D+03
 0.435625712350515D+03 0.000000000000000D+00 0.000000000000000D+00 -.435625712350515D+03
 0.367105977130628D+03 0.499684123186840D+02 0.323060340169441D+03 0.139952568683066D+03
 0.555081782123105D+02 -.375853336238553D+02 -.219030516389351D+02 -.344783536981576D+02
 0.334480294385216D+03 -.323305003691294D+02 -.286511258395894D+03 -.169537915789664D+03
 0.114156974972875D+03 0.199474216743007D+02 -.146460301346116D+02 0.640637008047560D+02
 0.000000000000000D+00 -.000000000000000D+00 -.000000000000000D+00 -.000000000000000D+00
 0.593489103343715D+03 0.000000000000000D+00 0.000000000000000D+00 0.593489103343715D+03
 0.108321180796781D+04 0.000000000000000D+00 0.000000000000000D+00 -.108321180796781D+04
 0.565839662663584D+03 0.213728381175409D+03 0.496581040816491D+03 0.139952568683066D+03
 0.404413469449045D+02 -.207433113437266D+02 -.405717925166059D+01 -.344783536981576D+02
 0.255114378815680D+03 0.711610657019301D+02 -.176851192012869D+03 -.169537915789664D+03
 0.131798043136306D+03 0.631199114611644D+02 0.310997081480356D+02 0.640637008047560D+02
 0.683507479751055D+03 -.327266046994777D+03 -.346772377699997D+03 -.489722704624099D+03
0.110025533917D-04 0.000000000000D+00 0.000000000000D+00 0.179673187295D-07 0.000000000000D+00  7 -2 2 23 -11 11 23 21 0 0.12724380D-01 0.35299104D+00 0.14657394D+06 0.14657394D+06 0.14657394D+06 0.11083446D+01  1  2  2  2  7  2        2 0.279365824159D-03 0.100000000000D+01
-.598858460817D-06 0.000000000000D+00 -.422527020629D-07 0.179673187295D-07 0.000000000000D+00  7 -2 2 23 -11 11 23 21 2 0.12724380D-01 0.35299104D+00 0.14657394D+06 0.14657394D+06 0.14657394D+06 0.11083446D+01  1  2  3  2  7  2        2 -.186790001597D-04 0.100000000000D+01
0.681965935743D-06 0.000000000000D+00 0.000000000000D+00 0.179673187295D-07 0.000000000000D+00  7 -2 2 23 -11 11 23 21 2 0.12724380D-01 0.35299104D+00 0.14657394D+06 0.14657394D+06 0.14657394D+06 0.11083446D+01  1  2 15  2  7  2        2 0.212712062300D-04 0.100000000000D+01
-.237965276134D-05 0.000000000000D+00 -.244217681623D-05 0.179673187295D-07 0.000000000000D+00  7 -2 2 23 -11 11 23 21 2 0.12724380D-01 0.89120081D+00 0.14657394D+06 0.14657394D+06 0.14657394D+06 0.11083446D+01  1  2  5  2  7  2        2 -.209433738197D-07 0.100000000000D+01
-.928782204553D-07 0.000000000000D+00 -.249361721377D-06 0.179673187295D-07 0.000000000000D+00  7 -2 21 23 -11 11 23 -2 2 0.12724380D-01 0.89120081D+00 0.14657394D+06 0.14657394D+06 0.14657394D+06 0.11083446D+01  1  2  5  4  7  2        2 -.222195806979D-11 0.100000000000D+01
  </mgrwgt>
  </event>
  <event>
  8     66 0.53686478E-06 0.24954229E+03 0.75467711E-02 0.10180763E+00
       -2 -1    0    0    0  501 0.00000000E+00 0.00000000E+00 0.63652086E+02 0.63652891E+02 0.32000000E+00 0.0000E+00 0.9000E+01
        2 -1    0    0  501    0 0.00000000E+00 0.00000000E+00 -.14747879E+04 0.14747879E+04 0.32000000E+00 0.0000E+00 0.9000E+01
       25  2    1    2    0    0 0.14243895E+03 -.13650758E+03 -.11191517E+04 0.11744321E+04 0.29642397E+03 0.0000E+00 0.0000E+00
       23  2    1    2    0    0 -.14243895E+03 0.13650758E+03 -.29198410E+03 0.36400866E+03 0.91238247E+02 0.0000E+00 0.0000E+00
       23  1    3    3    0    0 -.54204895E+01 -.62593164E+02 -.14658068E+03 0.18370746E+03 0.91188000E+02 0.0000E+00 0.9000E+01
      -13  1    4    4    0    0 -.63918524E+02 0.41082981E+02 -.46252027E+02 0.88953079E+02 0.10565837E+00 0.0000E+00 0.9000E+01
       13  1    4    4    0    0 -.78520429E+02 0.95424598E+02 -.24573207E+03 0.27505559E+03 0.10565837E+00 0.0000E+00 0.9000E+01
       23  1    3    3    0    0 0.14785944E+03 -.73914415E+02 -.97257101E+03 0.99072468E+03 0.91188000E+02 0.0000E+00 0.9000E+01
#aMCatNLO 1  0  0  1  2 0.54035968D+02 0.00000000D+00  -5  7  0 0.00000000D+00 0.00000000D+00 0.00000000D+00 0.00000000D+00 0.00000000D+00
  <mgrwgt>
 0.4694606616D-03    4    2    0
 0.306388594317050D+03 0.000000000000000D+00 0.000000000000000D+00 0.306388594317050D+03
 0.306388594317050D+03 0.000000000000000D+00 0.000000000000000D+00 -.306388594317050D+03
 0.123662922678412D+03 -.542048939200448D+01 -.625931639064321D+02 0.550452652668746D+02
 0.116814316289771D+03 -.639185044370288D+02 0.410829091075446D+02 0.887254408838936D+02
 0.124670791600055D+03 -.785204484972610D+02 0.954246704071653D+02 0.164765810669941D+02
 0.247629158065863D+03 0.147859442326294D+03 -.739144156082778D+02 -.160247287217762D+03
 0.000000000000000D+00 -.000000000000000D+00 -.000000000000000D+00 -.000000000000000D+00
 0.310774888222972D+03 0.000000000000000D+00 0.000000000000000D+00 0.310774888222972D+03
 0.535882708759845D+03 0.000000000000000D+00 0.000000000000000D+00 -.535882708759845D+03
 0.118641703451362D+03 -.324625474278054D+01 -.521544154955765D+02 0.550452652668746D+02
 0.119664951199147D+03 -.617965415780856D+02 0.512706946943460D+02 0.887254408838936D+02
 0.131980644207441D+03 -.762174778383068D+02 0.106481495076474D+03 0.164765810669941D+02
 0.244867778167426D+03 0.152278688960164D+03 -.526971087306823D+02 -.160247287217762D+03
 0.231502519957441D+03 -.110184148009910D+02 -.529006655445611D+02 -.225107820536873D+03
0.441072988014D-05 0.000000000000D+00 0.000000000000D+00 0.140632152503D-07 0.000000000000D+00  7 -2 2 23 -13 13 23 21 0 0.97926932D-02 0.22689051D+00 0.62271355D+05 0.62271355D+05 0.62271355D+05 0.11390044D+01  1  2  2  1  7  1       -2 0.473786222971D-03 0.100000000000D+01
-.232492291968D-06 0.000000000000D+00 -.169383641116D-07 0.140632152503D-07 0.000000000000D+00  7 -2 2 23 -13 13 23 21 2 0.97926932D-02 0.22689051D+00 0.62271355D+05 0.62271355D+05 0.62271355D+05 0.11390044D+01  1  2  3  1  7  1       -2 -.323989812080D-04 0.100000000000D+01
0.284452413456D-06 0.000000000000D+00 0.000000000000D+00 0.140632152503D-07 0.000000000000D+00  7 -2 2 23 -13 13 23 21 2 0.97926932D-02 0.22689051D+00 0.62271355D+05 0.62271355D+05 0.62271355D+05 0.11390044D+01  1  2 15  1  7  1       -2 0.396398879296D-04 0.100000000000D+01
-.829999765869D-07 0.000000000000D+00 0.000000000000D+00 0.140632152503D-07 0.000000000000D+00  7 -2 2 23 -13 13 23 21 2 0.97926932D-02 0.22689051D+00 0.62271355D+05 0.62271355D+05 0.62271355D+05 0.11390044D+01  1  2  4  1  7  1       -2 -.115664681136D-04 0.100000000000D+01
  </mgrwgt>
  </event>
  <event>
  8     66 0.53686478E-06 0.35895677E+03 0.75467711E-02 0.96997959E-01
       -2 -1    0    0    0  501 0.00000000E+00 0.00000000E+00 0.20681651E+03 0.20681676E+03 0.32000000E+00 0.0000E+00 0.9000E+01
        2 -1    0    0  501    0 0.00000000E+00 0.00000000E+00 -.70871996E+03 0.70872003E+03 0.32000000E+00 0.0000E+00 0.9000E+01
       25  2    1    2    0    0 0.28960303E+03 -.14990692E+02 -.43913054E+03 0.60583668E+03 0.30017964E+03 0.0000E+00 0.0000E+00
       23  2    1    2    0    0 -.28960303E+03 0.14990692E+02 -.62772907E+02 0.30970011E+03 0.88764202E+02 0.0000E+00 0.0000E+00
       23  1    3    3    0    0 0.29626242E+03 -.59126805E+02 -.32252737E+03 0.45122783E+03 0.91188000E+02 0.0000E+00 0.9000E+01
      -13  1    4    4    0    0 -.11165175E+03 -.33155376E+02 -.43569642E+02 0.12435320E+03 0.10565837E+00 0.0000E+00 0.9000E+01
       13  1    4    4    0    0 -.17795128E+03 0.48146068E+02 -.19203265E+02 0.18534691E+03 0.10565837E+00 0.0000E+00 0.9000E+01
       23  1    3    3    0    0 -.66593949E+01 0.44136113E+02 -.11660318E+03 0.15460885E+03 0.91188000E+02 0.0000E+00 0.9000E+01
#aMCatNLO 1  0  0  1  2 0.91219681D+02 0.00000000D+00  -5  7  0 0.00000000D+00 0.00000000D+00 0.00000000D+00 0.00000000D+00 0.00000000D+00
  <mgrwgt>
 0.9204833328D-04    4    2    0
 0.382851320263804D+03 0.000000000000000D+00 0.000000000000000D+00 0.382851320263804D+03
 0.382851320263804D+03 0.000000000000000D+00 0.000000000000000D+00 -.382851320263804D+03
 0.328114422807147D+03 0.296262422218239D+03 -.591268051855222D+02 -.898689111984905D+02
 0.120127670275515D+03 -.111651656126790D+03 -.331554906955990D+02 0.294156129751172D+02
 0.209028699464535D+03 -.177951371371896D+03 0.481461829159433D+02 0.985304607586955D+02
 0.108431847980412D+03 -.665939471955294D+01 0.441361129651779D+02 -.380771625353223D+02
 0.000000000000000D+00 -.000000000000000D+00 -.000000000000000D+00 -.000000000000000D+00
 0.414375211619686D+03 0.000000000000000D+00 0.000000000000000D+00 0.414375211619686D+03
 0.457747931546931D+03 0.000000000000000D+00 0.000000000000000D+00 -.457747931546931D+03
 0.325286746085262D+03 0.298334848248007D+03 -.203988469177592D+02 -.898689111984905D+02
 0.116322115718497D+03 -.110901696202388D+03 -.191407966908115D+02 0.294156129751172D+02
 0.215101516106597D+03 -.176606135794417D+03 0.732849461608571D+02 0.985304607586955D+02
 0.114406710463321D+03 -.595260622430507D+01 0.573440513692159D+02 -.380771625353223D+02
 0.101006054792939D+03 -.487441002689682D+01 -.910893539215022D+02 -.433727199272449D+02
0.317892701020D-05 0.000000000000D+00 0.000000000000D+00 0.675951647787D-07 0.000000000000D+00  7 -2 2 23 -13 13 23 21 0 0.31817949D-01 0.10903386D+00 0.12884997D+06 0.12884997D+06 0.12884997D+06 0.11127988D+01  1  2  2  1  7  1       -2 0.142587195993D-03 0.100000000000D+01
-.175715262156D-06 0.000000000000D+00 -.122079167499D-07 0.675951647787D-07 0.000000000000D+00  7 -2 2 23 -13 13 23 21 2 0.31817949D-01 0.10903386D+00 0.12884997D+06 0.12884997D+06 0.12884997D+06 0.11127988D+01  1  2  3  1  7  1       -2 -.975984050366D-05 0.100000000000D+01
0.202894968693D-06 0.000000000000D+00 0.000000000000D+00 0.675951647787D-07 0.000000000000D+00  7 -2 2 23 -13 13 23 21 2 0.31817949D-01 0.10903386D+00 0.12884997D+06 0.12884997D+06 0.12884997D+06 0.11127988D+01  1  2 15  1  7  1       -2 0.112694965090D-04 0.100000000000D+01
-.937076697902D-06 0.000000000000D+00 0.000000000000D+00 0.675951647787D-07 0.000000000000D+00  7 -2 2 23 -13 13 23 21 2 0.31817949D-01 0.10903386D+00 0.12884997D+06 0.12884997D+06 0.12884997D+06 0.11127988D+01  1  2  4  1  7  1       -2 -.520485187173D-04 0.100000000000D+01
  </mgrwgt>
  </event>
  <event>
  8     66 0.53686478E-06 0.11234656E+04 0.75467711E-02 0.82871752E-01
       -2 -1    0    0    0  501 0.00000000E+00 0.00000000E+00 0.12570973E+04 0.12570973E+04 0.32000000E+00 0.0000E+00 0.9000E+01
        2 -1    0    0  501    0 0.00000000E+00 0.00000000E+00 -.14153134E+04 0.14153134E+04 0.32000000E+00 0.0000E+00 0.9000E+01
       25  2    1    2    0    0 0.10025268E+04 0.46234427E+03 0.63635075E+03 0.13090943E+04 0.29993894E+03 0.0000E+00 0.0000E+00
       23  2    1    2    0    0 -.10025268E+04 -.46234427E+03 -.79456682E+03 0.13633164E+04 0.92048845E+02 0.0000E+00 0.0000E+00
       23  1    3    3    0    0 0.75627840E+03 0.43807616E+03 0.51792636E+03 0.10200151E+04 0.91188000E+02 0.0000E+00 0.9000E+01
      -13  1    4    4    0    0 -.10070072E+03 -.35851068E+02 -.11033590E+03 0.15362277E+03 0.10565837E+00 0.0000E+00 0.9000E+01
       13  1    4    4    0    0 -.90182613E+03 -.42649320E+03 -.68423092E+03 0.12096937E+04 0.10565837E+00 0.0000E+00 0.9000E+01
       23  1    3    3    0    0 0.24624844E+03 0.24268114E+02 0.11842439E+03 0.28907927E+03 0.91188000E+02 0.0000E+00 0.9000E+01
#aMCatNLO 1  0  0  2  1 0.86888427D+03 0.00000000D+00  -5  7  0 0.00000000D+00 0.00000000D+00 0.00000000D+00 0.00000000D+00 0.00000000D+00
  <mgrwgt>
 0.4341743870D-03    4    2    0
 0.133386158896905D+04 0.000000000000000D+00 0.000000000000000D+00 0.133386158896905D+04
 0.133386158896905D+04 0.000000000000000D+00 0.000000000000000D+00 -.133386158896905D+04
 0.105252430176000D+04 0.756278402709534D+03 0.438076159282688D+03 0.579331002721785D+03
 0.147347608422177D+03 -.100699661017176D+03 -.358505537383833D+02 -.101418113645504D+03
 0.117124058581989D+04 -.901827183022120D+03 -.426493719046212D+03 -.613689945695894D+03
 0.296610681936042D+03 0.246248441329762D+03 0.242681135019070D+02 0.135777056619612D+03
 0.000000000000000D+00 -.000000000000000D+00 0.000000000000000D+00 0.000000000000000D+00
 0.201356309785834D+04 0.000000000000000D+00 0.000000000000000D+00 0.201356309785834D+04
 0.171186553821006D+04 0.000000000000000D+00 0.000000000000000D+00 -.171186553821006D+04
 0.103406133052699D+04 0.843387234175083D+03 0.118495343634787D+03 0.579331002721785D+03
 0.157606558257941D+03 -.879687188027699D+02 -.825572404014368D+02 -.101418113645504D+03
 0.128857571513341D+04 -.799137065597560D+03 -.803238429466290D+03 -.613689945695894D+03
 0.325412617309179D+03 0.272216090058469D+03 -.710007842844286D+02 0.135777056619612D+03
 0.919772414840877D+03 -.228497539833223D+03 0.838301110517368D+03 0.301697559648286D+03
0.234539310513D-02 0.000000000000D+00 0.000000000000D+00 0.130024464748D-04 0.000000000000D+00  7 -2 2 23 -13 13 23 21 0 0.19339959D+00 0.21774053D+00 0.12621750D+07 0.12621750D+07 0.12621750D+07 0.10411984D+01  1  2  2  2  7  2        2 0.540356665901D-03 0.100000000000D+01
-.125631273389D-03 0.000000000000D+00 -.900692707988D-05 0.130024464748D-04 0.000000000000D+00  7 -2 2 23 -13 13 23 21 2 0.19339959D+00 0.21774053D+00 0.12621750D+07 0.12621750D+07 0.12621750D+07 0.10411984D+01  1  2  3  2  7  2        2 -.313783128164D-04 0.100000000000D+01
0.135730113983D-03 0.000000000000D+00 0.000000000000D+00 0.130024464748D-04 0.000000000000D+00  7 -2 2 23 -13 13 23 21 2 0.19339959D+00 0.21774053D+00 0.12621750D+07 0.12621750D+07 0.12621750D+07 0.10411984D+01  1  2 15  2  7  2        2 0.339006511695D-04 0.100000000000D+01
-.435227335728D-03 0.000000000000D+00 0.000000000000D+00 0.130024464748D-04 0.000000000000D+00  7 -2 2 23 -13 13 23 21 2 0.19339959D+00 0.21774053D+00 0.12621750D+07 0.12621750D+07 0.12621750D+07 0.10411984D+01  1  2  4  2  7  2        2 -.108704617237D-03 0.100000000000D+01
  </mgrwgt>
  </event>
  <event>
  8     66 0.53686478E-06 0.17750056E+03 0.75467711E-02 0.10426650E+00
       21 -1    0    0  502  501 0.00000000E+00 0.00000000E+00 0.77352203E+03 0.77352240E+03 0.75000000E+00 0.0000E+00 0.9000E+01
        4 -1    0    0  501    0 0.00000000E+00 0.00000000E+00 -.11445683E+03 0.11446732E+03 0.15500000E+01 0.0000E+00 0.9000E+01
       23  2    1    2    0    0 -.24197412E+02 0.34981240E+02 0.42565868E+02 0.11072457E+03 0.92945551E+02 0.0000E+00 0.0000E+00
       23  1    1    2    0    0 -.49482697E+02 0.99203222E+02 0.19509440E+03 0.24221250E+03 0.91188000E+02 0.0000E+00 0.9000E+01
      -13  1    3    3    0    0 0.21090318E+02 0.43760748E+02 0.93639096E+00 0.48586959E+02 0.10565837E+00 0.0000E+00 0.9000E+01
       13  1    3    3    0    0 -.45287730E+02 -.87795084E+01 0.41629477E+02 0.62137611E+02 0.10565837E+00 0.0000E+00 0.9000E+01
       23  1    1    2    0    0 -.12809138E+02 -.84367415E+02 0.41681697E+03 0.43512478E+03 0.91188000E+02 0.0000E+00 0.9000E+01
        4  1    1    2  502    0 0.86489247E+02 -.49817047E+02 0.45879687E+01 0.99927874E+02 0.15500000E+01 0.0000E+00 0.9000E+01
#aMCatNLO 2  0  0  1  1 0.99810460D+02 0.00000000D+00  -5  7  0 0.00000000D+00 0.00000000D+00 0.00000000D+00 0.00000000D+00 0.00000000D+00
  <mgrwgt>
 0.4768839024D-04    1    2    0
 0.213739846018915D+03 0.000000000000000D+00 0.000000000000000D+00 0.213739846018915D+03
 0.213739846018915D+03 0.000000000000000D+00 0.000000000000000D+00 -.213739846018915D+03
 0.126255918746224D+03 -.225102545020708D+02 0.836673139600681D+02 -.108800133921165D+02
 0.873041908463449D+02 0.383722975331415D+02 0.338065082735528D+02 -.707580986157293D+02
 0.426760547422651D+02 -.360882544747670D+02 -.140783108360874D+02 -.179076715776164D+02
 0.171243527702995D+03 0.202262114436963D+02 -.103395511397534D+03 0.995457835854622D+02
 0.000000000000000D+00 0.000000000000000D+00 -.000000000000000D+00 -.000000000000000D+00
 0.235387861353184D+03 0.000000000000000D+00 0.000000000000000D+00 0.235387861353184D+03
 0.376133313825985D+03 0.000000000000000D+00 0.000000000000000D+00 -.376133313825985D+03
 0.143956377529656D+03 -.494826949963104D+02 0.992032030327160D+02 -.108800133921165D+02
 0.858284089779210D+02 0.210902981173738D+02 0.437607883074368D+02 -.707580986157293D+02
 0.494847429851132D+02 -.452876938299081D+02 -.877951448198860D+01 -.179076715776164D+02
 0.159707708088816D+03 -.128091560688756D+02 -.843674295575130D+02 0.995457835854622D+02
 0.172543937597663D+03 0.864892467777203D+02 -.498170473006513D+02 -.140745452472801D+03
0.467067812425D-06 0.000000000000D+00 0.000000000000D+00 0.161264038828D-09 0.303684646500D-14  7 21 4 23 -13 13 23 4 2 0.11900256D+00 0.17609331D-01 0.53581255D+05 0.53581255D+05 0.53581255D+05 0.11446622D+01  1  2  1  3  7  1       -4 0.476883902405D-04 0.100000000000D+01
  </mgrwgt>
  </event>
  <event>
  9     66 -.53686478E-06 0.36317510E+03 0.75467711E-02 0.97700196E-01
       -2 -1    0    0    0  502 0.00000000E+00 0.00000000E+00 0.44455388E+03 0.44455399E+03 0.32000000E+00 0.0000E+00 0.9000E+01
        2 -1    0    0  501    0 0.00000000E+00 0.00000000E+00 -.28693559E+04 0.28693560E+04 0.32000000E+00 0.0000E+00 0.9000E+01
       25  2    1    2    0    0 0.11443847E+03 0.25371458E+03 -.27490884E+04 0.27796067E+04 0.30209126E+03 0.0000E+00 0.0000E+00
       23  2    1    2    0    0 -.10857748E+03 -.29213736E+03 0.35681358E+03 0.48361555E+03 0.97132695E+02 0.0000E+00 0.0000E+00
       23  1    3    3    0    0 -.52139693E+02 0.16711657E+03 -.15457108E+04 0.15582630E+04 0.91188000E+02 0.0000E+00 0.9000E+01
      -13  1    4    4    0    0 -.30703204E+02 -.11201324E+02 0.20700474E+02 0.38686913E+02 0.10565837E+00 0.0000E+00 0.9000E+01
       13  1    4    4    0    0 -.77874278E+02 -.28093604E+03 0.33611310E+03 0.44492863E+03 0.10565837E+00 0.0000E+00 0.9000E+01
       23  1    3    3    0    0 0.16657816E+03 0.86598012E+02 -.12033776E+04 0.12213437E+04 0.91188000E+02 0.0000E+00 0.9000E+01
       21  1    1    2  501  502 -.58609885E+01 0.38422777E+02 -.32527281E+02 0.50687744E+02 0.75000000E+00 0.0000E+00 0.9000E+01
#aMCatNLO 2  0  0  1  2 0.38867222D+02 0.00000000D+00  -5  7  0 0.00000000D+00 0.00000000D+00 0.00000000D+00 0.00000000D+00 0.00000000D+00
  <mgrwgt>
 -.6625114116D-04    3    2    0
 0.110951902653575D+04 0.000000000000000D+00 0.000000000000000D+00 0.110951902653575D+04
 0.110951902653575D+04 0.000000000000000D+00 0.000000000000000D+00 -.110951902653575D+04
 0.628164159242627D+03 -.537945621730654D+02 0.177965366547888D+03 -.593050953125514D+03
 0.790938805436538D+02 -.309121702619245D+02 -.983072323594556D+01 0.721362360385529D+02
 0.101198824485390D+04 -.805529676709590D+02 -.263376082515294D+03 0.973788717474575D+03
 0.499791768431328D+03 0.165259700105949D+03 0.952414392033517D+02 -.452874000387614D+03
 0.000000000000000D+00 -.000000000000000D+00 0.000000000000000D+00 0.000000000000000D+00
 0.113282419236377D+04 0.000000000000000D+00 0.000000000000000D+00 0.113282419236377D+04
 0.112601362740653D+04 0.000000000000000D+00 0.000000000000000D+00 -.112601362740653D+04
 0.625036943524107D+03 -.521396932909255D+02 0.167116572506752D+03 -.593050953125514D+03
 0.791945855442293D+02 -.307031482172166D+02 -.112010052791735D+02 0.721362360385529D+02
 0.101649107933029D+04 -.778743334882683D+02 -.280936356246455D+03 0.973788717474575D+03
 0.498655805016772D+03 0.166578163532209D+03 0.865980123333177D+02 -.452874000387614D+03
 0.394594063549090D+02 -.586098853579897D+01 0.384227766855588D+02 0.681056495723699D+01
-.165736680846D-03 0.000000000000D+00 0.000000000000D+00 0.405941732119D-07 0.000000000000D+00  7 -2 2 23 -13 13 23 21 2 0.68881695D-01 0.43497151D+00 0.14791092D+06 0.14791092D+06 0.14791092D+06 0.11080329D+01  1  2 13  1  7  1       -2 -.122430659730D-03 0.100000000000D+01
-.492434259187D-03 0.000000000000D+00 0.000000000000D+00 0.405941732119D-07 0.000000000000D+00  7 -2 2 23 -13 13 23 21 2 0.66985681D-01 0.43497151D+00 0.13189616D+06 0.13189616D+06 0.13189616D+06 0.11119871D+01  1  2  8  1  7  1       -2 -.392403452063D-03 0.100000000000D+01
0.634301790460D-03 0.000000000000D+00 0.000000000000D+00 0.405941732119D-07 0.175980370544D-09  7 -2 2 23 -13 13 23 21 2 0.68392699D-01 0.44143799D+00 0.14791092D+06 0.14791092D+06 0.14791092D+06 0.11080329D+01  1  2  1  1  7  1       -2 0.448582970628D-03 0.100000000000D+01
  </mgrwgt>
  </event>
  <event>
  8     66 0.53686478E-06 0.35942797E+03 0.75467711E-02 0.89122422E-01
       -2 -1    0    0    0  501 0.00000000E+00 0.00000000E+00 0.34316136E+03 0.34316151E+03 0.32000000E+00 0.0000E+00 0.9000E+01
        2 -1    0    0  501    0 0.00000000E+00 0.00000000E+00 -.10597180E+04 0.10597180E+04 0.32000000E+00 0.0000E+00 0.9000E+01
       25  2    1    2    0    0 -.31524628E+03 -.67994630E+02 0.15674589E+03 0.46746743E+03 0.29992171E+03 0.0000E+00 0.0000E+00
       23  2    1    2    0    0 0.31524628E+03 0.67994630E+02 -.87330250E+03 0.93541210E+03 0.91296476E+02 0.0000E+00 0.0000E+00
       23  1    3    3    0    0 -.20253149E+03 -.95465556E+02 0.19992655E+03 0.31371732E+03 0.91188000E+02 0.0000E+00 0.9000E+01
      -11  1    4    4    0    0 0.11730323E+03 -.78317719E+01 -.39767821E+03 0.41469187E+03 0.51099893E-03 0.0000E+00 0.9000E+01
       11  1    4    4    0    0 0.19794304E+03 0.75826402E+02 -.47562429E+03 0.52072023E+03 0.51099893E-03 0.0000E+00 0.9000E+01
       23  1    3    3    0    0 -.11271479E+03 0.27470926E+02 -.43180661E+02 0.15375011E+03 0.91188000E+02 0.0000E+00 0.9000E+01
#aMCatNLO 1  0  0  2  2 0.67156439D+03 0.00000000D+00  -5  7  0 0.00000000D+00 0.00000000D+00 0.00000000D+00 0.00000000D+00 0.00000000D+00
  <mgrwgt>
 0.2218630899D-03    5    2    0
 0.603037640491481D+03 0.000000000000000D+00 0.000000000000000D+00 0.603037640491481D+03
 0.603037640491481D+03 0.000000000000000D+00 0.000000000000000D+00 -.603037640491481D+03
 0.483689784981536D+03 -.202531490147776D+03 -.954655563353305D+02 0.418936605948432D+03
 0.246090591514260D+03 0.117303234979616D+03 -.783177193703206D+01 -.216192492107107D+03
 0.323110857869043D+03 0.197943043349414D+03 0.758264020465943D+02 -.243863762816679D+03
 0.153184046618122D+03 -.112714788181255D+03 0.274709262257683D+02 0.411196489753534D+02
 0.000000000000000D+00 -.000000000000000D+00 0.000000000000000D+00 -.000000000000000D+00
 0.986257232198821D+03 0.000000000000000D+00 0.000000000000000D+00 0.986257232198821D+03
 0.107108388682801D+04 0.000000000000000D+00 0.000000000000000D+00 -.107108388682801D+04
 0.532847077341008D+03 -.517956988974201D+02 -.312121902882495D+03 0.418936605948432D+03
 0.322551266541161D+03 0.201623522407481D+03 -.129027443266251D+03 -.216192492107107D+03
 0.398112214866028D+03 0.304888629452753D+03 -.778891805121033D+02 -.243863762816679D+03
 0.126930061810616D+03 -.711784471597163D+02 -.322303021289301D+02 0.411196489753534D+02
 0.676900498468018D+03 -.383538005803098D+03 0.551268828789779D+03 -.848266546291892D+02
0.204920307438D-04 0.000000000000D+00 0.000000000000D+00 0.243915267394D-05 0.000000000000D+00  7 -2 2 23 -11 11 23 21 0 0.52794070D-01 0.16303355D+00 0.12918847D+06 0.12918847D+06 0.12918847D+06 0.11127075D+01  1  2  2  2  7  2        2 0.208886785326D-03 0.100000000000D+01
-.767801860746D-06 0.000000000000D+00 -.786947937319D-07 0.243915267394D-05 0.000000000000D+00  7 -2 2 23 -11 11 23 21 2 0.52794070D-01 0.16303355D+00 0.12918847D+06 0.12918847D+06 0.12918847D+06 0.11127075D+01  1  2  3  2  7  2        2 -.969029915423D-05 0.100000000000D+01
0.116473313791D-05 0.000000000000D+00 0.000000000000D+00 0.243915267394D-05 0.000000000000D+00  7 -2 2 23 -11 11 23 21 2 0.52794070D-01 0.16303355D+00 0.12918847D+06 0.12918847D+06 0.12918847D+06 0.11127075D+01  1  2 15  2  7  2        2 0.146999025637D-04 0.100000000000D+01
0.356144019892D-05 0.000000000000D+00 -.588491774045D-05 0.243915267394D-05 0.000000000000D+00  7 -2 2 23 -11 11 23 21 2 0.52794070D-01 0.37608241D+00 0.12918847D+06 0.12918847D+06 0.12918847D+06 0.11127075D+01  1  2  5  2  7  2        2 0.776923263638D-05 0.100000000000D+01
0.696301348218D-06 0.000000000000D+00 -.535503473684D-06 0.243915267394D-05 0.000000000000D+00  7 -2 21 23 -11 11 23 -2 2 0.52794070D-01 0.37608241D+00 0.12918847D+06 0.12918847D+06 0.12918847D+06 0.11127075D+01  1  2  5  4  7  2        2 0.197468519185D-06 0.100000000000D+01
  </mgrwgt>
  </event>
  <event>
  8     66 0.53686478E-06 0.43105196E+03 0.75467711E-02 0.90385519E-01
       -2 -1    0    0    0  501 0.00000000E+00 0.00000000E+00 0.51392606E+03 0.51392616E+03 0.32000000E+00 0.0000E+00 0.9000E+01
        2 -1    0    0  501    0 0.00000000E+00 0.00000000E+00 -.11042878E+04 0.11042879E+04 0.32000000E+00 0.0000E+00 0.9000E+01
       25  2    1    2    0    0 -.65797097E+03 -.25300828E+03 -.14538784E+03 0.77976566E+03 0.29992979E+03 0.0000E+00 0.0000E+00
       23  2    1    2    0    0 0.65797097E+03 0.25300828E+03 -.44497393E+03 0.83844838E+03 0.89749099E+02 0.0000E+00 0.0000E+00
       23  1    3    3    0    0 -.55131342E+02 -.72390529E+02 -.71194839E+01 0.12901857E+03 0.91188000E+02 0.0000E+00 0.9000E+01
      -13  1    4    4    0    0 0.61141657E+02 0.16207357E+02 -.72216280E+02 0.96000953E+02 0.10565837E+00 0.0000E+00 0.9000E+01
       13  1    4    4    0    0 0.59682931E+03 0.23680092E+03 -.37275765E+03 0.74244743E+03 0.10565837E+00 0.0000E+00 0.9000E+01
       23  1    3    3    0    0 -.60283963E+03 -.18061775E+03 -.13826836E+03 0.65074709E+03 0.91188000E+02 0.0000E+00 0.9000E+01
#aMCatNLO 1  0  0  2  1 0.95138159D+01 0.00000000D+00  -5  7  0 0.00000000D+00 0.00000000D+00 0.00000000D+00 0.00000000D+00 0.00000000D+00
  <mgrwgt>
 0.4099695247D-03    8    2    0
 0.753340837811224D+03 0.000000000000000D+00 0.000000000000000D+00 0.753340837811224D+03
 0.753340837811224D+03 0.000000000000000D+00 0.000000000000000D+00 -.753340837811224D+03
 0.135779572989046D+03 -.551313423870987D+02 -.723905288840395D+02 0.429067303761696D+02
 0.748101980100271D+02 0.611409140655421D+02 0.162070515477213D+02 -.399460365200223D+02
 0.651350718159549D+03 0.596830055003407D+03 0.236801228113423D+03 -.109438667095158D+03
 0.644741186463825D+03 -.602839626681850D+03 -.180617750777105D+03 0.106477973239010D+03
 0.000000000000000D+00 0.000000000000000D+00 -.000000000000000D+00 0.000000000000000D+00
 0.758499311351061D+03 0.000000000000000D+00 0.000000000000000D+00 0.758499311351061D+03
 0.757755267252401D+03 0.000000000000000D+00 0.000000000000000D+00 -.757755267252401D+03
 0.135458458642729D+03 -.554016975060662D+02 -.715779789861160D+02 0.429067303761696D+02
 0.747869085557676D+02 0.609918039156878D+02 0.166552007727337D+02 -.399460365200223D+02
 0.651592705584044D+03 0.595531352818411D+03 0.240704465943287D+03 -.109438667095158D+03
 0.644873639639514D+03 -.604125043655406D+03 -.176754441531691D+03 0.106477973239010D+03
 0.954286618140790D+01 0.300358442737351D+01 -.902724619821279D+01 0.744044098659925D+00
0.954290802850D-04 0.000000000000D+00 0.000000000000D+00 0.194896839997D-05 0.000000000000D+00  7 -2 2 23 -13 13 23 21 0 0.79065559D-01 0.16989045D+00 0.54026442D+06 0.54026442D+06 0.54026442D+06 0.10661412D+01  1  2  2  2  7  2        2 0.368265273070D-03 0.100000000000D+01
-.529771129538D-05 0.000000000000D+00 -.366472795348D-06 0.194896839997D-05 0.000000000000D+00  7 -2 2 23 -13 13 23 21 2 0.79065559D-01 0.16989045D+00 0.54026442D+06 0.54026442D+06 0.54026442D+06 0.10661412D+01  1  2  3  2  7  2        2 -.232379498032D-04 0.100000000000D+01
0.596206495558D-05 0.000000000000D+00 0.000000000000D+00 0.194896839997D-05 0.000000000000D+00  7 -2 2 23 -13 13 23 21 2 0.79065559D-01 0.16989045D+00 0.54026442D+06 0.54026442D+06 0.54026442D+06 0.10661412D+01  1  2 15  2  7  2        2 0.261520793483D-04 0.100000000000D+01
0.269369262366D-04 0.000000000000D+00 0.000000000000D+00 0.194896839997D-05 0.000000000000D+00  7 -2 2 23 -13 13 23 21 2 0.79065559D-01 0.17146395D+00 0.54729011D+06 0.54729011D+06 0.54729011D+06 0.10657476D+01  1  2 12  2  7  2        2 0.116343018208D-03 0.100000000000D+01
-.189557639827D-04 0.000000000000D+00 0.000000000000D+00 0.194896839997D-05 0.000000000000D+00  7 -2 2 23 -13 13 23 21 2 0.79065559D-01 0.16989045D+00 0.54026442D+06 0.54026442D+06 0.54026442D+06 0.10661412D+01  1  2  4  2  7  2        2 -.831478099411D-04 0.100000000000D+01
0.789523407784D-08 0.000000000000D+00 0.000000000000D+00 0.194896839997D-05 0.130441044045D-06  7 -2 2 23 -13 13 23 21 2 0.79606958D-01 0.17088597D+00 0.54729011D+06 0.54729011D+06 0.54729011D+06 0.10657476D+01  1  2 11  2  7  2        2 0.337538509638D-07 0.100000000000D+01
0.226091519591D-05 0.000000000000D+00 0.000000000000D+00 0.194896839997D-05 0.000000000000D+00  7 -2 21 23 -13 13 23 -2 2 0.79065559D-01 0.17146395D+00 0.54729011D+06 0.54729011D+06 0.54729011D+06 0.10657476D+01  1  2 12  4  7  2        2 0.556111230869D-05 0.100000000000D+01
0.194474073249D-10 0.000000000000D+00 0.000000000000D+00 0.194896839997D-05 0.142025744693D-09  7 -2 21 23 -13 13 23 -2 2 0.79606958D-01 0.17088597D+00 0.54729011D+06 0.54729011D+06 0.54729011D+06 0.10657476D+01  1  2 11  4  7  2        2 0.476110328419D-10 0.100000000000D+01
  </mgrwgt>
  </event>
  <event>
  8     66 0.53686478E-06 0.27208865E+03 0.75467711E-02 0.95907370E-01
       -2 -1    0    0    0  501 0.00000000E+00 0.00000000E+00 0.15345391E+03 0.15345424E+03 0.32000000E+00 0.0000E+00 0.9000E+01
        2 -1    0    0  501    0 0.00000000E+00 0.00000000E+00 -.96405530E+03 0.96405535E+03 0.32000000E+00 0.0000E+00 0.9000E+01
       25  2    1    2    0    0 0.16931924E+03 -.83424313E+02 -.83450378E+03 0.90672661E+03 0.30021322E+03 0.0000E+00 0.0000E+00
       23  2    1    2    0    0 -.16931924E+03 0.83424313E+02 0.23902389E+02 0.21078298E+03 0.90716707E+02 0.0000E+00 0.0000E+00
       23  1    3    3    0    0 -.17119194E+02 -.11142221E+03 -.32637224E+03 0.35713032E+03 0.91188000E+02 0.0000E+00 0.9000E+01
      -11  1    4    4    0    0 -.41852562E+02 0.11513484E+02 0.45455722E+02 0.62852366E+02 0.51099893E-03 0.0000E+00 0.9000E+01
       11  1    4    4    0    0 -.12746668E+03 0.71910829E+02 -.21553333E+02 0.14793062E+03 0.51099893E-03 0.0000E+00 0.9000E+01
       23  1    3    3    0    0 0.18643843E+03 0.27997901E+02 -.50813154E+03 0.54959629E+03 0.91188000E+02 0.0000E+00 0.9000E+01
#aMCatNLO 1  0  0  2  2 0.29664885D+03 0.00000000D+00  -5  7  0 0.00000000D+00 0.00000000D+00 0.00000000D+00 0.00000000D+00 0.00000000D+00
  <mgrwgt>
 0.3354497191D-03    6    2    0
 0.384627445675063D+03 0.000000000000000D+00 0.000000000000000D+00 0.384627445675063D+03
 0.384627445675063D+03 0.000000000000000D+00 0.000000000000000D+00 -.384627445675063D+03
 0.174894918950078D+03 -.171191943553321D+02 -.111422213764359D+03 -.978008425067408D+02
 0.139205606900173D+03 -.418525616650050D+02 0.115134842964720D+02 0.132264899931453D+03
 0.192189512889728D+03 -.127466678431259D+03 0.719108285278951D+02 0.124570813174373D+03
 0.262964852610146D+03 0.186438434451596D+03 0.279979009399917D+02 -.159034870599086D+03
 0.000000000000000D+00 -.000000000000000D+00 -.000000000000000D+00 -.000000000000000D+00
 0.547177998046842D+03 0.000000000000000D+00 0.000000000000000D+00 0.547177998046842D+03
 0.575269707103661D+03 0.000000000000000D+00 0.000000000000000D+00 -.575269707103661D+03
 0.163523041264286D+03 0.401285618216462D+02 -.851423949124027D+02 -.978008425067408D+02
 0.136382076296962D+03 0.476664401501977D+01 0.329142231569727D+02 0.132264899931453D+03
 0.172881080697328D+03 -.657102860819344D+02 0.100260355431156D+03 0.124570813174373D+03
 0.351685528153756D+03 0.290414461934801D+03 0.757285256784938D+02 -.159034870599086D+03
 0.297975978738171D+03 -.269599381689532D+03 -.123760709354220D+03 -.280917090568194D+02
0.479564400508D-05 0.000000000000D+00 0.000000000000D+00 0.735938391723D-06 0.000000000000D+00  7 -2 2 23 -11 11 23 21 0 0.23608324D-01 0.14831623D+00 0.74032235D+05 0.74032235D+05 0.74032235D+05 0.11325977D+01  1  2  2  2  7  2        2 0.244848726089D-03 0.100000000000D+01
-.227611622587D-06 0.000000000000D+00 -.184165357016D-07 0.735938391723D-06 0.000000000000D+00  7 -2 2 23 -11 11 23 21 2 0.23608324D-01 0.14831623D+00 0.74032235D+05 0.74032235D+05 0.74032235D+05 0.11325977D+01  1  2  3  2  7  2        2 -.149072218320D-04 0.100000000000D+01
0.298779067550D-06 0.000000000000D+00 0.000000000000D+00 0.735938391723D-06 0.000000000000D+00  7 -2 2 23 -11 11 23 21 2 0.23608324D-01 0.14831623D+00 0.74032235D+05 0.74032235D+05 0.74032235D+05 0.11325977D+01  1  2 15  2  7  2        2 0.195682706713D-04 0.100000000000D+01
-.661763133822D-06 0.000000000000D+00 -.150121041947D-05 0.735938391723D-06 0.000000000000D+00  7 -2 2 23 -11 11 23 21 2 0.23608324D-01 0.27621156D+00 0.74032235D+05 0.74032235D+05 0.74032235D+05 0.11325977D+01  1  2  5  2  7  2        2 -.150272756789D-04 0.100000000000D+01
0.153802177594D-05 0.000000000000D+00 0.125138347906D-05 0.735938391723D-06 0.000000000000D+00  7 -2 2 23 -11 11 23 21 2 0.23608324D-01 0.14831623D+00 0.74032235D+05 0.74032235D+05 0.74032235D+05 0.11325977D+01  1  2  6  2  7  2        2 0.100731375383D-03 0.100000000000D+01
0.388449245179D-07 0.000000000000D+00 -.101717358668D-06 0.735938391723D-06 0.000000000000D+00  7 -2 21 23 -11 11 23 -2 2 0.23608324D-01 0.27621156D+00 0.74032235D+05 0.74032235D+05 0.74032235D+05 0.11325977D+01  1  2  5  4  7  2        2 0.235844496714D-06 0.100000000000D+01
  </mgrwgt>
  </event>
  <event>
  8     66 0.53686478E-06 0.25896663E+03 0.75467711E-02 0.97000253E-01
       -4 -1    0    0    0  501 0.00000000E+00 0.00000000E+00 0.14406666E+04 0.14406674E+04 0.15500000E+01 0.0000E+00 0.9000E+01
        4 -1    0    0  501    0 0.00000000E+00 0.00000000E+00 -.10923329E+03 0.10924429E+03 0.15500000E+01 0.0000E+00 0.9000E+01
       25  2    1    2    0    0 -.30302604E+03 0.13628361E+03 0.71152653E+03 0.84089171E+03 0.30071723E+03 0.0000E+00 0.0000E+00
       23  2    1    2    0    0 0.30302604E+03 -.13628361E+03 0.61990679E+03 0.70902003E+03 0.89593317E+02 0.0000E+00 0.0000E+00
       23  1    3    3    0    0 -.10703343E+03 0.16833371E+03 0.44590089E+03 0.49692580E+03 0.91188000E+02 0.0000E+00 0.9000E+01
      -11  1    4    4    0    0 0.41698738E+02 -.29367991E+02 0.42946542E+02 0.66675851E+02 0.51099893E-03 0.0000E+00 0.9000E+01
       11  1    4    4    0    0 0.26132731E+03 -.10691562E+03 0.57696025E+03 0.64234418E+03 0.51099893E-03 0.0000E+00 0.9000E+01
       23  1    3    3    0    0 -.19599261E+03 -.32050101E+02 0.26562564E+03 0.34396591E+03 0.91188000E+02 0.0000E+00 0.9000E+01
#aMCatNLO 1  0  0  1  2 0.43177965D+02 0.00000000D+00  -5  7  0 0.00000000D+00 0.00000000D+00 0.00000000D+00 0.00000000D+00 0.00000000D+00
  <mgrwgt>
 0.5640345030D-04    9    2    0
 0.396708861937049D+03 0.000000000000000D+00 0.000000000000000D+00 0.396708861937049D+03
 0.396708861937049D+03 0.000000000000000D+00 0.000000000000000D+00 -.396708861937049D+03
 0.222460143751458D+03 -.107033432283112D+03 0.168333710402894D+03 0.371600663294675D+02
 0.581802312380510D+02 0.416987380464519D+02 -.293679908780584D+02 -.279942076871762D+02
 0.286598931019654D+03 0.261327305750992D+03 -.106915618369336D+03 0.491532000915382D+02
 0.226178417864935D+03 -.195992611514331D+03 -.320501011554992D+02 -.583190587338295D+02
 0.000000000000000D+00 0.000000000000000D+00 -.000000000000000D+00 0.000000000000000D+00
 0.570821373959553D+03 0.000000000000000D+00 0.000000000000000D+00 0.570821373959553D+03
 0.399981835430938D+03 0.000000000000000D+00 0.000000000000000D+00 -.399981835430938D+03
 0.233483481726002D+03 -.111787900083028D+03 0.179782868372692D+03 0.371600663294675D+02
 0.559200229554447D+02 0.405089287055337D+02 -.265028300080331D+02 -.279942076871762D+02
 0.276195392617149D+03 0.255458625194477D+03 -.927833424567688D+02 0.491532000915382D+02
 0.228992835131082D+03 -.200739025204292D+03 -.206203381592399D+02 -.583190587338295D+02
 0.176211476960814D+03 0.165593713873103D+02 -.398763577486505D+02 0.170839538528615D+03
0.104171278173D-03 0.000000000000D+00 0.000000000000D+00 0.129902722983D-06 0.000000000000D+00  7 -4 4 23 -11 11 23 21 0 0.22164193D+00 0.16806031D-01 0.14869509D+06 0.14869509D+06 0.14869509D+06 0.11078515D+01  1  2  2  1  7  1       -4 0.427209430330D-04 0.100000000000D+01
-.578162741829D-05 0.000000000000D+00 -.400045137110D-06 0.129902722983D-06 0.000000000000D+00  7 -4 4 23 -11 11 23 21 2 0.22164193D+00 0.16806031D-01 0.14869509D+06 0.14869509D+06 0.14869509D+06 0.11078515D+01  1  2  3  1  7  1       -4 -.291008729306D-05 0.100000000000D+01
0.675748305096D-05 0.000000000000D+00 0.000000000000D+00 0.129902722983D-06 0.000000000000D+00  7 -4 4 23 -11 11 23 21 2 0.22164193D+00 0.16806031D-01 0.14869509D+06 0.14869509D+06 0.14869509D+06 0.11078515D+01  1  2 15  1  7  1       -4 0.340126821343D-05 0.100000000000D+01
0.848176798249D-03 0.000000000000D+00 0.000000000000D+00 0.129902722983D-06 0.000000000000D+00  7 -4 4 23 -11 11 23 21 2 0.31952369D+00 0.16806031D-01 0.16618761D+06 0.16618761D+06 0.16618761D+06 0.11040567D+01  1  2 12  1  7  1       -4 0.729738602855D-04 0.100000000000D+01
-.803482907911D-03 0.000000000000D+00 0.000000000000D+00 0.129902722983D-06 0.000000000000D+00  7 -4 4 23 -11 11 23 21 2 0.22164193D+00 0.16806031D-01 0.14869509D+06 0.14869509D+06 0.14869509D+06 0.11078515D+01  1  2  4  1  7  1       -4 -.404419937734D-03 0.100000000000D+01
-.885302838315D-03 0.000000000000D+00 -.364039092597D-04 0.129902722983D-06 0.000000000000D+00  7 -4 4 23 -11 11 23 21 2 0.31967646D+00 0.16806031D-01 0.14869509D+06 0.14869509D+06 0.14869509D+06 0.11078515D+01  1  2  5  1  7  1       -4 -.765729839385D-04 0.100000000000D+01
0.843725302963D-03 0.000000000000D+00 0.340917643316D-04 0.129902722983D-06 0.000000000000D+00  7 -4 4 23 -11 11 23 21 2 0.22164193D+00 0.16806031D-01 0.14869509D+06 0.14869509D+06 0.14869509D+06 0.11078515D+01  1  2  6  1  7  1       -4 0.424675286965D-03 0.100000000000D+01
0.378257880164D-04 0.000000000000D+00 0.000000000000D+00 0.129902722983D-06 0.000000000000D+00  7 21 4 23 -11 11 23 4 2 0.31952369D+00 0.16806031D-01 0.16618761D+06 0.16618761D+06 0.16618761D+06 0.11040567D+01  1  2 12  3  7  1       -4 0.121127365520D-03 0.100000000000D+01
-.384197350105D-04 0.000000000000D+00 -.162502602081D-05 0.129902722983D-06 0.000000000000D+00  7 21 4 23 -11 11 23 4 2 0.31967646D+00 0.16806031D-01 0.14869509D+06 0.14869509D+06 0.14869509D+06 0.11078515D+01  1  2  5  3  7  1       -4 -.124592264752D-03 0.100000000000D+01
  </mgrwgt>
  </event>
  <event>
  8     66 0.53686478E-06 0.10078391E+03 0.75467711E-02 0.10274749E+00
       -2 -1    0    0    0  501 0.00000000E+00 0.00000000E+00 0.27677998E+03 0.27678017E+03 0.32000000E+00 0.0000E+00 0.9000E+01
        2 -1    0    0  501    0 0.00000000E+00 0.00000000E+00 -.22230036E+03 0.22230059E+03 0.32000000E+00 0.0000E+00 0.9000E+01
       25  2    1    2    0    0 0.12975147E+03 0.33401468E+02 0.31122181E+01 0.32874767E+03 0.30019035E+03 0.0000E+00 0.0000E+00
       23  2    1    2    0    0 -.12975147E+03 -.33401468E+02 0.51367402E+02 0.17033308E+03 0.91780425E+02 0.0000E+00 0.0000E+00
       23  1    3    3    0    0 0.19567053E+02 0.92281004E+02 -.79489637E+02 0.15340309E+03 0.91188000E+02 0.0000E+00 0.9000E+01
      -13  1    4    4    0    0 -.12143183E+03 -.39307998E+02 0.10337492E+02 0.12805344E+03 0.10565837E+00 0.0000E+00 0.9000E+01
       13  1    4    4    0    0 -.83196406E+01 0.59065302E+01 0.41029910E+02 0.42279643E+02 0.10565837E+00 0.0000E+00 0.9000E+01
       23  1    3    3    0    0 0.11018442E+03 -.58879536E+02 0.82601855E+02 0.17534459E+03 0.91188000E+02 0.0000E+00 0.9000E+01
#aMCatNLO 1  0  0  2  1 0.81501069D+02 0.00000000D+00  -5  7  0 0.00000000D+00 0.00000000D+00 0.00000000D+00 0.00000000D+00 0.00000000D+00
  <mgrwgt>
 0.2517274518D-03    9    2    0
 0.248049174965304D+03 0.000000000000000D+00 0.000000000000000D+00 0.248049174965304D+03
 0.248049174965304D+03 0.000000000000000D+00 0.000000000000000D+00 -.248049174965304D+03
 0.163054552868177D+03 0.195670569572745D+02 0.922810049002793D+02 -.968136471974198D+02
 0.127688158662294D+03 -.121431984353804D+03 -.393080568256025D+02 -.366274583611312D+01
 0.380279456395269D+02 -.831949713042286D+01 0.590658678352736D+01 0.366336300361888D+02
 0.167327692760610D+03 0.110184424526952D+03 -.588795348582042D+02 0.638427629973440D+02
 0.000000000000000D+00 0.000000000000000D+00 -.000000000000000D+00 -.000000000000000D+00
 0.265209255558059D+03 0.000000000000000D+00 0.000000000000000D+00 0.265209255558059D+03
 0.371403275609184D+03 0.000000000000000D+00 0.000000000000000D+00 -.371403275609184D+03
 0.177554848196061D+03 0.764227980467878D+01 0.117384777759498D+03 -.968136471974198D+02
 0.132126436148316D+03 -.130528125371721D+03 -.201590651851594D+02 -.366274583611312D+01
 0.400006360216058D+02 -.110512874008466D+02 0.116574902654269D+02 0.366336300361888D+02
 0.153066522689920D+03 0.989673835166610D+02 -.352656722198072D+02 0.638427629973440D+02
 0.133864088111341D+03 0.349697494512275D+02 -.736175306199579D+02 -.106194020051125D+03
0.259544987095D-05 0.000000000000D+00 0.000000000000D+00 0.200378444706D-06 0.000000000000D+00  7 -2 2 23 -13 13 23 21 0 0.42581567D-01 0.34200087D-01 0.44882526D+05 0.44882526D+05 0.44882526D+05 0.11514430D+01  1  2  2  2  7  2        2 0.249338072349D-03 0.100000000000D+01
-.139830286057D-06 0.000000000000D+00 -.996721090210D-08 0.200378444706D-06 0.000000000000D+00  7 -2 2 23 -13 13 23 21 2 0.42581567D-01 0.34200087D-01 0.44882526D+05 0.44882526D+05 0.44882526D+05 0.11514430D+01  1  2  3  2  7  2        2 -.178099257866D-04 0.100000000000D+01
0.171212872916D-06 0.000000000000D+00 0.000000000000D+00 0.200378444706D-06 0.000000000000D+00  7 -2 2 23 -13 13 23 21 2 0.42581567D-01 0.34200087D-01 0.44882526D+05 0.44882526D+05 0.44882526D+05 0.11514430D+01  1  2 15  2  7  2        2 0.218070680274D-04 0.100000000000D+01
0.327508833607D-05 0.000000000000D+00 0.000000000000D+00 0.200378444706D-06 0.000000000000D+00  7 -2 2 23 -13 13 23 21 2 0.42581567D-01 0.51920175D-01 0.66976148D+05 0.66976148D+05 0.66976148D+05 0.11362935D+01  1  2 12  2  7  2        2 0.257628999397D-03 0.100000000000D+01
-.382240871950D-05 0.000000000000D+00 0.000000000000D+00 0.200378444706D-06 0.000000000000D+00  7 -2 2 23 -13 13 23 21 2 0.42581567D-01 0.34200087D-01 0.44882526D+05 0.44882526D+05 0.44882526D+05 0.11514430D+01  1  2  4  2  7  2        2 -.486853152774D-03 0.100000000000D+01
-.436501152616D-05 0.000000000000D+00 -.107638465509D-05 0.200378444706D-06 0.000000000000D+00  7 -2 2 23 -13 13 23 21 2 0.42581567D-01 0.53862273D-01 0.44882526D+05 0.44882526D+05 0.44882526D+05 0.11514430D+01  1  2  5  2  7  2        2 -.339320070264D-03 0.100000000000D+01
0.448544948189D-05 0.000000000000D+00 0.974160783042D-06 0.200378444706D-06 0.000000000000D+00  7 -2 2 23 -13 13 23 21 2 0.42581567D-01 0.34200087D-01 0.44882526D+05 0.44882526D+05 0.44882526D+05 0.11514430D+01  1  2  6  2  7  2        2 0.571303432500D-03 0.100000000000D+01
0.160888809273D-06 0.000000000000D+00 0.000000000000D+00 0.200378444706D-06 0.000000000000D+00  7 -2 21 23 -13 13 23 -2 2 0.42581567D-01 0.51920175D-01 0.66976148D+05 0.66976148D+05 0.66976148D+05 0.11362935D+01  1  2 12  4  7  2        2 0.397416830765D-04 0.100000000000D+01
-.185104646569D-06 0.000000000000D+00 -.563307851110D-07 0.200378444706D-06 0.000000000000D+00  7 -2 21 23 -13 13 23 -2 2 0.42581567D-01 0.53862273D-01 0.44882526D+05 0.44882526D+05 0.44882526D+05 0.11514430D+01  1  2  5  4  7  2        2 -.441086547114D-04 0.100000000000D+01
  </mgrwgt>
  </event>
  <event>
  8     66 0.53686478E-06 0.21768873E+03 0.75467711E-02 0.96823668E-01
       -4 -1    0    0    0  501 0.00000000E+00 0.00000000E+00 0.54487438E+03 0.54487658E+03 0.15500000E+01 0.0000E+00 0.9000E+01
        4 -1    0    0  501    0 0.00000000E+00 0.00000000E+00 -.30857115E+03 0.30857504E+03 0.15500000E+01 0.0000E+00 0.9000E+01
       25  2    1    2    0    0 0.99721946E+02 0.63738362E+02 -.21225285E+03 0.38561020E+03 0.29939423E+03 0.0000E+00 0.0000E+00
       23  2    1    2    0    0 -.99721946E+02 -.63738362E+02 0.44855608E+03 0.46784143E+03 0.60547491E+02 0.0000E+00 0.0000E+00
       23  1    3    3    0    0 0.22267551E+02 0.13545616E+03 -.51253134E+02 0.17258723E+03 0.91188000E+02 0.0000E+00 0.9000E+01
      -13  1    4    4    0    0 -.39267582E+02 0.49534478E+01 0.10204630E+03 0.10945291E+03 0.10565837E+00 0.0000E+00 0.9000E+01
       13  1    4    4    0    0 -.60454364E+02 -.68691810E+02 0.34650978E+03 0.35838852E+03 0.10565837E+00 0.0000E+00 0.9000E+01
       23  1    3    3    0    0 0.77454395E+02 -.71717800E+02 -.16099972E+03 0.21302297E+03 0.91188000E+02 0.0000E+00 0.9000E+01
#aMCatNLO 1  0  0  2  2 0.31531045D+03 0.00000000D+00  -5  7  0 0.00000000D+00 0.00000000D+00 0.00000000D+00 0.00000000D+00 0.00000000D+00
  <mgrwgt>
 0.7463938923D-04    3    2    0
 0.410042822335727D+03 0.000000000000000D+00 0.000000000000000D+00 0.410042822335727D+03
 0.410042822335727D+03 0.000000000000000D+00 0.000000000000000D+00 -.410042822335727D+03
 0.194377418785348D+03 0.222675511116158D+02 0.135456162266491D+03 -.103068491117219D+03
 0.845014411989620D+02 -.392675170845716D+02 0.495367184841846D+01 0.746593383437912D+02
 0.273125570052807D+03 -.604544287945187D+02 -.686920337824723D+02 0.257340714910461D+03
 0.268081214634337D+03 0.774543947674744D+02 -.717178003324370D+02 -.228931562137033D+03
 0.000000000000000D+00 -.000000000000000D+00 0.000000000000000D+00 0.000000000000000D+00
 0.651953617411226D+03 0.000000000000000D+00 0.000000000000000D+00 0.651953617411226D+03
 0.556191237823863D+03 0.000000000000000D+00 0.000000000000000D+00 -.556191237823863D+03
 0.206457013478806D+03 0.952322881420448D+02 0.120900556262733D+03 -.103068491117219D+03
 0.753534711057937D+02 -.101687902774588D+02 -.851181562328356D+00 0.746593383437912D+02
 0.274990104184883D+03 0.393202233158406D+02 -.885959022042111D+02 0.257340714910461D+03
 0.321812606197883D+03 0.184834011008958D+03 -.931387695630116D+02 -.228931562137033D+03
 0.329531660267723D+03 -.309217732189385D+03 0.616852970668184D+02 0.957623795873634D+02
0.631825253519D-04 0.000000000000D+00 0.000000000000D+00 0.515966677890D-09 0.000000000000D+00  7 -4 4 23 -13 13 23 21 0 0.83827297D-01 0.47472954D-01 0.47388382D+05 0.47388382D+05 0.47388382D+05 0.11493503D+01  1  2  2  2  7  2        4 0.716383357755D-04 0.100000000000D+01
-.179901623213D-05 0.000000000000D+00 -.242637533692D-06 0.515966677890D-09 0.000000000000D+00  7 -4 4 23 -13 13 23 21 2 0.83827297D-01 0.47472954D-01 0.47388382D+05 0.47388382D+05 0.47388382D+05 0.11493503D+01  1  2  3  2  7  2        4 -.269456362752D-05 0.100000000000D+01
0.380265935520D-05 0.000000000000D+00 0.000000000000D+00 0.515966677890D-09 0.000000000000D+00  7 -4 4 23 -13 13 23 21 2 0.83827297D-01 0.47472954D-01 0.47388382D+05 0.47388382D+05 0.47388382D+05 0.11493503D+01  1  2 15  2  7  2        4 0.569561708416D-05 0.100000000000D+01
  </mgrwgt>
  </event>
  <event>
  8     66 0.53686478E-06 0.33303689E+03 0.75467711E-02 0.97902640E-01
       -2 -1    0    0    0  501 0.00000000E+00 0.00000000E+00 0.26499398E+03 0.26499417E+03 0.32000000E+00 0.0000E+00 0.9000E+01
        2 -1    0    0  501    0 0.00000000E+00 0.00000000E+00 -.53504541E+03 0.53504551E+03 0.32000000E+00 0.0000E+00 0.9000E+01
       25  2    1    2    0    0 0.12332958E+03 0.25130797E+03 -.18942769E+02 0.41272876E+03 0.30268849E+03 0.0000E+00 0.0000E+00
       23  2    1    2    0    0 -.12332958E+03 -.25130797E+03 -.25110866E+03 0.38731091E+03 0.92673073E+02 0.0000E+00 0.0000E+00
       23  1    3    3    0    0 0.15923639E+03 0.20873457E+03 -.80586787E+02 0.28937144E+03 0.91188000E+02 0.0000E+00 0.9000E+01
      -13  1    4    4    0    0 -.34643788E+02 -.45428280E+02 -.10558142E+03 0.12004736E+03 0.10565837E+00 0.0000E+00 0.9000E+01
       13  1    4    4    0    0 -.88685792E+02 -.20587969E+03 -.14552725E+03 0.26726356E+03 0.10565837E+00 0.0000E+00 0.9000E+01
       23  1    3    3    0    0 -.35906810E+02 0.42573408E+02 0.61644018E+02 0.12335733E+03 0.91188000E+02 0.0000E+00 0.9000E+01
#aMCatNLO 1  0  0  1  2 0.83354333D+02 0.00000000D+00  -5  7  0 0.00000000D+00 0.00000000D+00 0.00000000D+00 0.00000000D+00 0.00000000D+00
  <mgrwgt>
 0.3525213345D-03    3    2    0
 0.376542065430264D+03 0.000000000000000D+00 0.000000000000000D+00 0.376542065430264D+03
 0.376542065430264D+03 0.000000000000000D+00 0.000000000000000D+00 -.376542065430264D+03
 0.278516096144260D+03 0.159236386670925D+03 0.208734565670844D+03 0.181554047498339D+02
 0.896713839740154D+02 -.346437185915538D+02 -.454280732441197D+02 -.691162790324496D+02
 0.231742699034082D+03 -.886858635041202D+02 -.205879904533976D+03 -.587619015962767D+02
 0.153153951708171D+03 -.359068045752512D+02 0.425734121072517D+02 0.109722775878892D+03
 0.000000000000000D+00 0.000000000000000D+00 0.000000000000000D+00 -.000000000000000D+00
 0.382871032932737D+03 0.000000000000000D+00 0.000000000000000D+00 0.382871032932737D+03
 0.809909843008691D+03 0.000000000000000D+00 0.000000000000000D+00 -.809909843008691D+03
 0.254526869877714D+03 0.154394309147292D+03 0.179726054669453D+03 0.181554047498339D+02
 0.958098513163391D+02 -.363286006324101D+02 -.555220709093098D+02 -.691162790324496D+02
 0.257250678800020D+03 -.931278015746782D+02 -.232491211097813D+03 -.587619015962767D+02
 0.150095682167963D+03 -.386614760179679D+02 0.260703890843366D+02 0.109722775878892D+03
 0.435097793779391D+03 0.137235690777647D+02 0.822168382533336D+02 -.427038810075954D+03
0.878521602070D-05 0.000000000000D+00 0.000000000000D+00 0.146736144614D-07 0.000000000000D+00  7 -2 2 23 -13 13 23 21 0 0.40768326D-01 0.82314701D-01 0.11091357D+06 0.11091357D+06 0.11091357D+06 0.11180491D+01  1  2  2  1  7  1       -2 0.348715928568D-03 0.100000000000D+01
-.479122316361D-06 0.000000000000D+00 -.337375427200D-07 0.146736144614D-07 0.000000000000D+00  7 -2 2 23 -13 13 23 21 2 0.40768326D-01 0.82314701D-01 0.11091357D+06 0.11091357D+06 0.11091357D+06 0.11180491D+01  1  2  3  1  7  1       -2 -.237731925441D-04 0.100000000000D+01
0.555816049340D-06 0.000000000000D+00 0.000000000000D+00 0.146736144614D-07 0.000000000000D+00  7 -2 2 23 -13 13 23 21 2 0.40768326D-01 0.82314701D-01 0.11091357D+06 0.11091357D+06 0.11091357D+06 0.11180491D+01  1  2 15  1  7  1       -2 0.275785984264D-04 0.100000000000D+01
  </mgrwgt>
  </event>
  <event>
  8     66 0.53686478E-06 0.12669275E+03 0.75467711E-02 0.10488386E+00
       -2 -1    0    0    0  501 0.00000000E+00 0.00000000E+00 0.11949983E+04 0.11949983E+04 0.32000000E+00 0.0000E+00 0.9000E+01
        2 -1    0    0  501    0 0.00000000E+00 0.00000000E+00 -.64547331E+02 0.64548124E+02 0.32000000E+00 0.0000E+00 0.9000E+01
       25  2    1    2    0    0 0.73152275E+02 0.10883099E+03 0.10052802E+04 0.10571799E+04 0.29974257E+03 0.0000E+00 0.0000E+00
       23  2    1    2    0    0 -.73152275E+02 -.10883099E+03 0.12517076E+03 0.20236657E+03 0.89939255E+02 0.0000E+00 0.0000E+00
       23  1    3    3    0    0 0.47695742E+02 -.12989611E+02 0.76251085E+03 0.76953341E+03 0.91188000E+02 0.0000E+00 0.9000E+01
      -11  1    4    4    0    0 0.21009877E+02 -.26764462E+02 0.24206538E+02 0.41757728E+02 0.51099893E-03 0.0000E+00 0.9000E+01
       11  1    4    4    0    0 -.94162152E+02 -.82066523E+02 0.10096423E+03 0.16060884E+03 0.51099893E-03 0.0000E+00 0.9000E+01
       23  1    3    3    0    0 0.25456533E+02 0.12182060E+03 0.24276935E+03 0.28764648E+03 0.91188000E+02 0.0000E+00 0.9000E+01
#aMCatNLO 1  0  0  2  1 0.26342263D+02 0.00000000D+00  -5  7  0 0.00000000D+00 0.00000000D+00 0.00000000D+00 0.00000000D+00 0.00000000D+00
  <mgrwgt>
 0.3449182966D-03    9    2    0
 0.277730943452800D+03 0.000000000000000D+00 0.000000000000000D+00 0.277730943452800D+03
 0.277730943452800D+03 0.000000000000000D+00 0.000000000000000D+00 -.277730943452800D+03
 0.193140078743231D+03 0.476957418471897D+02 -.129896107241436D+02 0.162923985023148D+03
 0.454243487977646D+02 0.210098768941559D+02 -.267644624855074D+02 -.300935223005760D+02
 0.158713304233343D+03 -.941621516321207D+02 -.820665231586947D+02 -.979208247377377D+02
 0.158184155131261D+03 0.254565328907752D+02 0.121820596368346D+03 -.349096379848343D+02
 0.000000000000000D+00 -.000000000000000D+00 -.000000000000000D+00 -.000000000000000D+00
 0.279833935647576D+03 0.000000000000000D+00 0.000000000000000D+00 0.279833935647576D+03
 0.374912380440325D+03 0.000000000000000D+00 0.000000000000000D+00 -.374912380440325D+03
 0.193742244926410D+03 0.515254657949783D+02 -.465914197169773D+01 0.162923985023148D+03
 0.447383364940814D+02 0.219023916820736D+02 -.248230519156575D+02 -.300935223005760D+02
 0.153490273311993D+03 -.910716679259392D+02 -.753440600529260D+02 -.979208247377377D+02
 0.164115309999322D+03 0.286469551573248D+02 0.128760447219461D+03 -.349096379848343D+02
 0.986601513560957D+02 -.110031447084375D+02 -.239341932791801D+02 -.950784447927486D+02
0.230604890637D-04 0.000000000000D+00 0.000000000000D+00 0.146841979318D-06 0.000000000000D+00  7 -2 2 23 -11 11 23 21 0 0.18384596D+00 0.99304229D-02 0.43459810D+05 0.43459810D+05 0.43459810D+05 0.11526894D+01  1  2  2  2  7  2        2 0.323601425141D-03 0.100000000000D+01
-.115296189294D-05 0.000000000000D+00 -.885583499706D-07 0.146841979318D-06 0.000000000000D+00  7 -2 2 23 -11 11 23 21 2 0.18384596D+00 0.99304229D-02 0.43459810D+05 0.43459810D+05 0.43459810D+05 0.11526894D+01  1  2  3  2  7  2        2 -.214971774643D-04 0.100000000000D+01
0.143119810400D-05 0.000000000000D+00 0.000000000000D+00 0.146841979318D-06 0.000000000000D+00  7 -2 2 23 -11 11 23 21 2 0.18384596D+00 0.99304229D-02 0.43459810D+05 0.43459810D+05 0.43459810D+05 0.11526894D+01  1  2 15  2  7  2        2 0.266849406009D-04 0.100000000000D+01
0.268553774271D-03 0.000000000000D+00 0.000000000000D+00 0.146841979318D-06 0.000000000000D+00  7 -2 2 23 -11 11 23 21 2 0.18384596D+00 0.13433231D-01 0.49028156D+05 0.49028156D+05 0.49028156D+05 0.11480459D+01  1  2 12  2  7  2        2 0.340270377143D-02 0.100000000000D+01
-.260000825230D-03 0.000000000000D+00 0.000000000000D+00 0.146841979318D-06 0.000000000000D+00  7 -2 2 23 -11 11 23 21 2 0.18384596D+00 0.99304229D-02 0.43459810D+05 0.43459810D+05 0.43459810D+05 0.11526894D+01  1  2  4  2  7  2        2 -.484776115763D-02 0.100000000000D+01
-.280248286076D-03 0.000000000000D+00 -.128906137852D-04 0.146841979318D-06 0.000000000000D+00  7 -2 2 23 -11 11 23 21 2 0.18384596D+00 0.13475339D-01 0.43459810D+05 0.43459810D+05 0.43459810D+05 0.11526894D+01  1  2  5  2  7  2        2 -.357400929497D-02 0.100000000000D+01
0.271990287355D-03 0.000000000000D+00 0.123124905821D-04 0.146841979318D-06 0.000000000000D+00  7 -2 2 23 -11 11 23 21 2 0.18384596D+00 0.99304229D-02 0.43459810D+05 0.43459810D+05 0.43459810D+05 0.11526894D+01  1  2  6  2  7  2        2 0.507130678961D-02 0.100000000000D+01
0.104341677346D-04 0.000000000000D+00 0.000000000000D+00 0.146841979318D-06 0.000000000000D+00  7 -2 21 23 -11 11 23 -2 2 0.18384596D+00 0.13433231D-01 0.49028156D+05 0.49028156D+05 0.49028156D+05 0.11480459D+01  1  2 12  4  7  2        2 0.118615706458D-02 0.100000000000D+01
-.106729585472D-04 0.000000000000D+00 -.504581839138D-06 0.146841979318D-06 0.000000000000D+00  7 -2 21 23 -11 11 23 -2 2 0.18384596D+00 0.13475339D-01 0.43459810D+05 0.43459810D+05 0.43459810D+05 0.11526894D+01  1  2  5  4  7  2        2 -.122226806466D-02 0.100000000000D+01
  </mgrwgt>
  </event>
  <event>
  8     66 0.53686478E-06 0.19966522E+03 0.75467711E-02 0.76052840E-01
       -2 -1    0    0    0  501 0.00000000E+00 0.00000000E+00 0.22667671E+03 0.22667694E+03 0.32000000E+00 0.0000E+00 0.9000E+01
        2 -1    0    0  501    0 0.00000000E+00 0.00000000E+00 -.38010242E+03 0.38010256E+03 0.32000000E+00 0.0000E+00 0.9000E+01
       25  2    1    2    0    0 -.13626918E+03 0.29753704E+02 -.24986028E+03 0.41420049E+03 0.29946171E+03 0.0000E+00 0.0000E+00
       23  2    1    2    0    0 0.13626918E+03 -.29753704E+02 0.96434569E+02 0.19257901E+03 0.91282395E+02 0.0000E+00 0.0000E+00
       23  1    3    3    0    0 -.10116161E+03 0.20129840E+02 -.27955990E+03 0.31162135E+03 0.91188000E+02 0.0000E+00 0.9000E+01
      -11  1    4    4    0    0 0.14836546E+03 -.30017827E+02 0.98078844E+02 0.18036862E+03 0.51099893E-03 0.0000E+00 0.9000E+01
       11  1    4    4    0    0 -.12096283E+02 0.26412236E+00 -.16442754E+01 0.12210384E+02 0.51099893E-03 0.0000E+00 0.9000E+01
       23  1    3    3    0    0 -.35107573E+02 0.96238645E+01 0.29699617E+02 0.10257914E+03 0.91188000E+02 0.0000E+00 0.9000E+01
#aMCatNLO 1  0  0  2  1 0.38602087D+04 0.00000000D+00  -5  7  0 0.00000000D+00 0.00000000D+00 0.00000000D+00 0.00000000D+00 0.00000000D+00
  <mgrwgt>
 0.3722627190D-03    3    2    0
 0.293531049151848D+03 0.000000000000000D+00 0.000000000000000D+00 0.293531049151848D+03
 0.293531049151848D+03 0.000000000000000D+00 0.000000000000000D+00 -.293531049151848D+03
 0.249026077898683D+03 -.101161605296204D+03 0.201298396472954D+02 -.207508687286268D+03
 0.212058994195986D+03 0.148365461869272D+03 -.300178265381293D+02 0.148511403042518D+03
 0.121907656443624D+02 -.120962834266445D+02 0.264122359482152D+00 0.149162114401508D+01
 0.113786260564664D+03 -.351075731464239D+02 0.962386453135173D+01 0.575056630997353D+02
 0.000000000000000D+00 0.000000000000000D+00 0.000000000000000D+00 0.000000000000000D+00
 0.677989861836782D+04 0.000000000000000D+00 0.000000000000000D+00 0.677989861836782D+04
 0.272396428078852D+04 0.000000000000000D+00 0.000000000000000D+00 -.272396428078852D+04
 0.223104725137594D+04 -.209351383935575D+04 -.737154349953141D+03 -.207508687286268D+03
 0.568628705908281D+03 -.478795382548367D+03 -.268398863633272D+03 0.148511403042518D+03
 0.154813786466613D+03 -.146258402170824D+03 -.507303000279938D+02 0.149162114401508D+01
 0.950104069837244D+03 -.889777574855825D+03 -.315232387568981D+03 0.575056630997353D+02
 0.559926908556826D+04 0.360834519893076D+04 0.137151590118339D+04 0.405593433757930D+04
0.470903832548D-05 0.000000000000D+00 0.000000000000D+00 0.367105836341D-06 0.000000000000D+00  7 -2 2 23 -11 11 23 21 0 0.34873368D-01 0.58477324D-01 0.39866199D+05 0.39866199D+05 0.39866199D+05 0.11560494D+01  1  2  2  2  7  2        2 0.363957495479D-03 0.100000000000D+01
-.214381657509D-06 0.000000000000D+00 -.180839470881D-07 0.367105836341D-06 0.000000000000D+00  7 -2 2 23 -11 11 23 21 2 0.34873368D-01 0.58477324D-01 0.39866199D+05 0.39866199D+05 0.39866199D+05 0.11560494D+01  1  2  3  2  7  2        2 -.221441408757D-04 0.100000000000D+01
0.294786113135D-06 0.000000000000D+00 0.000000000000D+00 0.367105836341D-06 0.000000000000D+00  7 -2 2 23 -11 11 23 21 2 0.34873368D-01 0.58477324D-01 0.39866199D+05 0.39866199D+05 0.39866199D+05 0.11560494D+01  1  2 15  2  7  2        2 0.304493644339D-04 0.100000000000D+01
  </mgrwgt>
  </event>
  <event>
  8     66 0.53686478E-06 0.20012097E+03 0.75467711E-02 0.92351531E-01
       -2 -1    0    0    0  501 0.00000000E+00 0.00000000E+00 0.93765347E+02 0.93765893E+02 0.32000000E+00 0.0000E+00 0.9000E+01
        2 -1    0    0  501    0 0.00000000E+00 0.00000000E+00 -.73186148E+03 0.73186155E+03 0.32000000E+00 0.0000E+00 0.9000E+01
       25  2    1    2    0    0 -.14558384E+03 -.51940994E+02 -.49873350E+03 0.60220982E+03 0.30004840E+03 0.0000E+00 0.0000E+00
       23  2    1    2    0    0 0.14558384E+03 0.51940994E+02 -.13936263E+03 0.22341762E+03 0.81246338E+02 0.0000E+00 0.0000E+00
       23  1    3    3    0    0 -.93070153E+02 -.17183172E+02 -.46957234E+03 0.48761742E+03 0.91188000E+02 0.0000E+00 0.9000E+01
      -11  1    4    4    0    0 0.76029509E+02 0.97642966E+01 -.20432091E+02 0.79330310E+02 0.51099893E-03 0.0000E+00 0.9000E+01
       11  1    4    4    0    0 0.69554335E+02 0.42176697E+02 -.11893054E+03 0.14408731E+03 0.51099893E-03 0.0000E+00 0.9000E+01
       23  1    3    3    0    0 -.52513692E+02 -.34757821E+02 -.29161160E+02 0.11459240E+03 0.91188000E+02 0.0000E+00 0.9000E+01
#aMCatNLO 1  0  0  2  1 0.55166384D+03 0.00000000D+00  -5  7  0 0.00000000D+00 0.00000000D+00 0.00000000D+00 0.00000000D+00 0.00000000D+00
  <mgrwgt>
 0.1383950220D-02    5    2    0
 0.261960874940213D+03 0.000000000000000D+00 0.000000000000000D+00 0.261960874940213D+03
 0.261960874940213D+03 0.000000000000000D+00 0.000000000000000D+00 -.261960874940213D+03
 0.196514134690003D+03 -.930701526495212D+02 -.171831722726013D+02 -.146100099470896D+03
 0.100128775292997D+03 0.760295095207482D+02 0.976429662339868D+01 0.644200577084515D+02
 0.822132680413948D+02 0.695543354258448D+02 0.421766971229611D+02 -.119307202344751D+02
 0.145065571856030D+03 -.525136922970719D+02 -.347578214737584D+02 0.936107619969196D+02
 0.000000000000000D+00 0.000000000000000D+00 0.000000000000000D+00 -.000000000000000D+00
 0.472357748340006D+03 0.000000000000000D+00 0.000000000000000D+00 0.472357748340006D+03
 0.120780580275848D+04 0.000000000000000D+00 0.000000000000000D+00 -.120780580275848D+04
 0.374248097697861D+03 -.287908052812313D+03 -.165861693428243D+03 -.146100099470896D+03
 0.755215526950588D+02 0.160687428019690D+02 -.359910626555605D+02 0.644200577084515D+02
 0.342221945318046D+02 0.298074150009680D+02 0.118462873601576D+02 -.119307202344751D+02
 0.276814957489913D+03 -.196528681013901D+03 -.144653973756114D+03 0.936107619969196D+02
 0.919356748683845D+03 0.438560576023277D+03 0.334660442479760D+03 -.735448054418471D+03
0.837709109589D-05 0.000000000000D+00 0.000000000000D+00 0.453031951668D-08 0.000000000000D+00  7 -2 2 23 -11 11 23 21 0 0.14425485D-01 0.11259412D+00 0.40048402D+05 0.40048402D+05 0.40048402D+05 0.11558711D+01  1  2  2  2  7  2        2 0.135646624019D-02 0.100000000000D+01
-.424365198356D-06 0.000000000000D+00 -.321702355469D-07 0.453031951668D-08 0.000000000000D+00  7 -2 2 23 -11 11 23 21 2 0.14425485D-01 0.11259412D+00 0.40048402D+05 0.40048402D+05 0.40048402D+05 0.11558711D+01  1  2  3  2  7  2        2 -.918066886852D-04 0.100000000000D+01
0.512100110461D-06 0.000000000000D+00 0.000000000000D+00 0.453031951668D-08 0.000000000000D+00  7 -2 2 23 -11 11 23 21 2 0.14425485D-01 0.11259412D+00 0.40048402D+05 0.40048402D+05 0.40048402D+05 0.11558711D+01  1  2 15  2  7  2        2 0.110787160679D-03 0.100000000000D+01
0.312851719041D-05 0.000000000000D+00 -.358771016185D-05 0.453031951668D-08 0.000000000000D+00  7 -2 2 23 -11 11 23 21 2 0.14425485D-01 0.60163135D+00 0.40048402D+05 0.40048402D+05 0.40048402D+05 0.11558711D+01  1  2  5  2  7  2        2 0.847249774447D-05 0.100000000000D+01
0.493222478542D-06 0.000000000000D+00 -.735130441332D-06 0.453031951668D-08 0.000000000000D+00  7 -2 21 23 -11 11 23 -2 2 0.14425485D-01 0.60163135D+00 0.40048402D+05 0.40048402D+05 0.40048402D+05 0.11558711D+01  1  2  5  4  7  2        2 0.310104982242D-07 0.100000000000D+01
  </mgrwgt>
  </event>
  <event>
  8     66 0.53686478E-06 0.29003042E+03 0.75467711E-02 0.91209035E-01
       -2 -1    0    0    0  501 0.00000000E+00 0.00000000E+00 0.23204816E+03 0.23204838E+03 0.32000000E+00 0.0000E+00 0.9000E+01
        2 -1    0    0  501    0 0.00000000E+00 0.00000000E+00 -.58203874E+03 0.58203883E+03 0.32000000E+00 0.0000E+00 0.9000E+01
       25  2    1    2    0    0 0.29038427E+02 0.25126409E+03 -.24297207E+02 0.39168306E+03 0.29807447E+03 0.0000E+00 0.0000E+00
       23  2    1    2    0    0 -.29038427E+02 -.25126409E+03 -.32569337E+03 0.42240415E+03 0.91499836E+02 0.0000E+00 0.0000E+00
       23  1    3    3    0    0 0.30219838E+02 0.19978473E+03 -.11802533E+03 0.25114220E+03 0.91188000E+02 0.0000E+00 0.9000E+01
      -13  1    4    4    0    0 -.16103088E+02 -.20463261E+03 -.19533845E+03 0.28335655E+03 0.10565837E+00 0.0000E+00 0.9000E+01
       13  1    4    4    0    0 -.12935339E+02 -.46631482E+02 -.13035492E+03 0.13904760E+03 0.10565837E+00 0.0000E+00 0.9000E+01
       23  1    3    3    0    0 -.11814112E+01 0.51479361E+02 0.93728119E+02 0.14054086E+03 0.91188000E+02 0.0000E+00 0.9000E+01
#aMCatNLO 1  0  0  2  1 0.55452477D+03 0.00000000D+00  -5  7  0 0.00000000D+00 0.00000000D+00 0.00000000D+00 0.00000000D+00 0.00000000D+00
  <mgrwgt>
 0.2369642624D-03    5    2    0
 0.367506657793714D+03 0.000000000000000D+00 0.000000000000000D+00 0.367506657793714D+03
 0.367506657793714D+03 0.000000000000000D+00 0.000000000000000D+00 -.367506657793714D+03
 0.221960469600818D+03 0.302198379800667D+02 0.199784728300387D+03 -.111365367962636D+02
 0.220826546488659D+03 -.161030919865612D+02 -.204632817740198D+03 -.814276609407814D+02
 0.919354096893579D+02 -.129353348052125D+02 -.466312720479955D+02 -.781685431322151D+02
 0.200290889808593D+03 -.118141118829301D+01 0.514793614878067D+02 0.170732740869260D+03
 0.000000000000000D+00 0.000000000000000D+00 -.000000000000000D+00 -.000000000000000D+00
 0.487461095480415D+03 0.000000000000000D+00 0.000000000000000D+00 0.487461095480415D+03
 0.329742746072413D+04 0.000000000000000D+00 0.000000000000000D+00 -.329742746072413D+04
 0.299453326577193D+03 -.137063183275714D+03 0.249893386852594D+03 -.111365367962636D+02
 0.243960819684987D+03 -.165218891040908D+03 -.159966045204276D+03 -.814276609407814D+02
 0.114418326810786D+03 -.791389464898147D+02 -.268003642372483D+02 -.781685431322151D+02
 0.262896747837985D+03 -.149783975987700D+03 0.959923976801057D+02 0.170732740869260D+03
 0.286415933529359D+04 0.531204996794136D+03 -.159119375091175D+03 -.280996636524371D+04
0.507294983555D-05 0.000000000000D+00 0.000000000000D+00 0.549131692800D-07 0.000000000000D+00  7 -2 2 23 -13 13 23 21 0 0.35699740D-01 0.89544445D-01 0.84117644D+05 0.84117644D+05 0.84117644D+05 0.11279385D+01  1  2  2  2  7  2        2 0.234337151316D-03 0.100000000000D+01
-.262623076088D-06 0.000000000000D+00 -.194814631069D-07 0.549131692800D-07 0.000000000000D+00  7 -2 2 23 -13 13 23 21 2 0.35699740D-01 0.89544445D-01 0.84117644D+05 0.84117644D+05 0.84117644D+05 0.11279385D+01  1  2  3  2  7  2        2 -.154342074686D-04 0.100000000000D+01
0.311578579821D-06 0.000000000000D+00 0.000000000000D+00 0.549131692800D-07 0.000000000000D+00  7 -2 2 23 -13 13 23 21 2 0.35699740D-01 0.89544445D-01 0.84117644D+05 0.84117644D+05 0.84117644D+05 0.11279385D+01  1  2 15  2  7  2        2 0.183112943285D-04 0.100000000000D+01
-.146223937397D-04 0.000000000000D+00 -.338912145340D-05 0.549131692800D-07 0.000000000000D+00  7 -2 2 23 -13 13 23 21 2 0.35699740D-01 0.81465433D+00 0.84117644D+05 0.84117644D+05 0.84117644D+05 0.11279385D+01  1  2  5  2  7  2        2 -.249606063130D-06 0.100000000000D+01
-.436384517238D-05 0.000000000000D+00 -.899015456151D-06 0.549131692800D-07 0.000000000000D+00  7 -2 21 23 -13 13 23 -2 2 0.35699740D-01 0.81465433D+00 0.84117644D+05 0.84117644D+05 0.84117644D+05 0.11279385D+01  1  2  5  4  7  2        2 -.369745719082D-09 0.100000000000D+01
  </mgrwgt>
  </event>
  <event>
  8     66 0.53686478E-06 0.22380300E+03 0.75467711E-02 0.91235255E-01
       -2 -1    0    0    0  501 0.00000000E+00 0.00000000E+00 0.43096045E+03 0.43096057E+03 0.32000000E+00 0.0000E+00 0.9000E+01
        2 -1    0    0  501    0 0.00000000E+00 0.00000000E+00 -.10907608E+04 0.10907608E+04 0.32000000E+00 0.0000E+00 0.9000E+01
       25  2    1    2    0    0 0.51465931E+03 0.34994689E+03 -.55051761E+03 0.88346098E+03 0.30016101E+03 0.0000E+00 0.0000E+00
       23  2    1    2    0    0 -.51465931E+03 -.34994689E+03 -.10928272E+03 0.63826041E+03 0.89981165E+02 0.0000E+00 0.0000E+00
       23  1    3    3    0    0 0.14178295E+03 0.22492303E+03 -.28481158E+03 0.40015705E+03 0.91188000E+02 0.0000E+00 0.9000E+01
      -11  1    4    4    0    0 -.15209741E+03 -.96419083E+02 -.73158585E+02 0.19437706E+03 0.51099893E-03 0.0000E+00 0.9000E+01
       11  1    4    4    0    0 -.36256190E+03 -.25352781E+03 -.36124137E+02 0.44388336E+03 0.51099893E-03 0.0000E+00 0.9000E+01
       23  1    3    3    0    0 0.37287636E+03 0.12502386E+03 -.26570603E+03 0.48330393E+03 0.91188000E+02 0.0000E+00 0.9000E+01
#aMCatNLO 1  0  0  2  1 0.55162257D+02 0.00000000D+00  -5  7  0 0.00000000D+00 0.00000000D+00 0.00000000D+00 0.00000000D+00 0.00000000D+00
  <mgrwgt>
 0.3004062850D-03    9    2    0
 0.685620069083718D+03 0.000000000000000D+00 0.000000000000000D+00 0.685620069083718D+03
 0.685620069083718D+03 0.000000000000000D+00 0.000000000000000D+00 -.685620069083718D+03
 0.307027742339672D+03 0.141782951743656D+03 0.224923030292112D+03 -.123523310598711D+03
 0.180506432640469D+03 -.152097408872046D+03 -.964190830845397D+02 0.123414284478947D+02
 0.475213687741784D+03 -.362561900956798D+03 -.253527808628314D+03 0.173495150490912D+03
 0.408492275445511D+03 0.372876358085188D+03 0.125023861420742D+03 -.623132683400959D+02
 0.000000000000000D+00 0.000000000000000D+00 0.000000000000000D+00 -.000000000000000D+00
 0.701405149517610D+03 0.000000000000000D+00 0.000000000000000D+00 0.701405149517610D+03
 0.736121544145504D+03 0.000000000000000D+00 0.000000000000000D+00 -.736121544145504D+03
 0.297916328610922D+03 0.131127433982993D+03 0.219058155074814D+03 -.123523310598711D+03
 0.187883004367192D+03 -.158586240447348D+03 -.999905836300787D+02 0.123414284478947D+02
 0.493293429006826D+03 -.379621237975552D+03 -.262917392987526D+03 0.173495150490912D+03
 0.393256461459861D+03 0.358754312236784D+03 0.117250983689768D+03 -.623132683400959D+02
 0.651774702183133D+02 0.483257322031242D+02 0.265988378530225D+02 -.347163946278939D+02
0.268608940024D-04 0.000000000000D+00 0.000000000000D+00 0.170800375123D-05 0.000000000000D+00  7 -2 2 23 -11 11 23 21 0 0.66301620D-01 0.16780936D+00 0.42725193D+06 0.42725193D+06 0.42725193D+06 0.10733702D+01  1  2  2  2  7  2        2 0.156983233939D-03 0.100000000000D+01
-.148813340376D-05 0.000000000000D+00 -.103152905605D-06 0.170800375123D-05 0.000000000000D+00  7 -2 2 23 -11 11 23 21 2 0.66301620D-01 0.16780936D+00 0.42725193D+06 0.42725193D+06 0.42725193D+06 0.10733702D+01  1  2  3  2  7  2        2 -.100201389741D-04 0.100000000000D+01
0.162468202023D-05 0.000000000000D+00 0.000000000000D+00 0.170800375123D-05 0.000000000000D+00  7 -2 2 23 -11 11 23 21 2 0.66301620D-01 0.16780936D+00 0.42725193D+06 0.42725193D+06 0.42725193D+06 0.10733702D+01  1  2 15  2  7  2        2 0.109395700616D-04 0.100000000000D+01
0.904499875286D-04 0.000000000000D+00 0.000000000000D+00 0.170800375123D-05 0.000000000000D+00  7 -2 2 23 -11 11 23 21 2 0.66301620D-01 0.18200368D+00 0.46499183D+06 0.46499183D+06 0.46499183D+06 0.10707455D+01  1  2 12  2  7  2        2 0.532310145570D-03 0.100000000000D+01
-.896674417495D-04 0.000000000000D+00 0.000000000000D+00 0.170800375123D-05 0.000000000000D+00  7 -2 2 23 -11 11 23 21 2 0.66301620D-01 0.16780936D+00 0.42725193D+06 0.42725193D+06 0.42725193D+06 0.10733702D+01  1  2  4  2  7  2        2 -.603763228157D-03 0.100000000000D+01
-.246386244534D-03 0.000000000000D+00 -.395667919555D-04 0.170800375123D-05 0.000000000000D+00  7 -2 2 23 -11 11 23 21 2 0.66301620D-01 0.18248667D+00 0.42725193D+06 0.42725193D+06 0.42725193D+06 0.10733702D+01  1  2  5  2  7  2        2 -.145598499508D-02 0.100000000000D+01
0.248966841626D-03 0.000000000000D+00 0.394281095135D-04 0.170800375123D-05 0.000000000000D+00  7 -2 2 23 -11 11 23 21 2 0.66301620D-01 0.16780936D+00 0.42725193D+06 0.42725193D+06 0.42725193D+06 0.10733702D+01  1  2  6  2  7  2        2 0.167638354649D-02 0.100000000000D+01
0.124079703032D-05 0.000000000000D+00 0.000000000000D+00 0.170800375123D-05 0.000000000000D+00  7 -2 21 23 -11 11 23 -2 2 0.66301620D-01 0.18200368D+00 0.46499183D+06 0.46499183D+06 0.46499183D+06 0.10707455D+01  1  2 12  4  7  2        2 0.379245951627D-05 0.100000000000D+01
-.333714386294D-05 0.000000000000D+00 -.550956418291D-06 0.170800375123D-05 0.000000000000D+00  7 -2 21 23 -11 11 23 -2 2 0.66301620D-01 0.18248667D+00 0.42725193D+06 0.42725193D+06 0.42725193D+06 0.10733702D+01  1  2  5  4  7  2        2 -.102343083690D-04 0.100000000000D+01
  </mgrwgt>
  </event>
  <event>
  8     66 0.53686478E-06 0.11121409E+03 0.75467711E-02 0.10255292E+00
       -2 -1    0    0    0  501 0.00000000E+00 0.00000000E+00 0.36187704E+03 0.36187718E+03 0.32000000E+00 0.0000E+00 0.9000E+01
        2 -1    0    0  501    0 0.00000000E+00 0.00000000E+00 -.19111353E+03 0.19111380E+03 0.32000000E+00 0.0000E+00 0.9000E+01
       25  2    1    2    0    0 -.38711964E+02 -.15184935E+03 0.13597313E+03 0.36471635E+03 0.29995413E+03 0.0000E+00 0.0000E+00
       23  2    1    2    0    0 0.38711964E+02 0.15184935E+03 0.34790383E+02 0.18827463E+03 0.98387624E+02 0.0000E+00 0.0000E+00
       23  1    3    3    0    0 0.62561514E+02 0.26527642E+02 0.51989934E+02 0.12504345E+03 0.91188000E+02 0.0000E+00 0.9000E+01
      -13  1    4    4    0    0 0.38514421E+02 0.14613730E+03 -.19022860E+01 0.15113935E+03 0.10565837E+00 0.0000E+00 0.9000E+01
       13  1    4    4    0    0 0.19754335E+00 0.57120517E+01 0.36692669E+02 0.37135289E+02 0.10565837E+00 0.0000E+00 0.9000E+01
       23  1    3    3    0    0 -.10127348E+03 -.17837700E+03 0.83983193E+02 0.23967290E+03 0.91188000E+02 0.0000E+00 0.9000E+01
#aMCatNLO 1  0  0  1  2 0.28459132D+02 0.00000000D+00  -5  7  0 0.00000000D+00 0.00000000D+00 0.00000000D+00 0.00000000D+00 0.00000000D+00
  <mgrwgt>
 0.3737915000D-03    9    2    0
 0.262982340869149D+03 0.000000000000000D+00 0.000000000000000D+00 0.262982340869149D+03
 0.262982340869149D+03 0.000000000000000D+00 0.000000000000000D+00 -.262982340869149D+03
 0.114589274205624D+03 0.625615098795857D+02 0.265276268220354D+02 0.140638869360110D+02
 0.159523297729422D+03 0.385144684038254D+02 0.146137483157722D+03 -.510700916228593D+02
 0.271303678806067D+02 0.197506904246469D+00 0.571191453384850D+01 0.265215362435482D+02
 0.224721741922646D+03 -.101273485187658D+03 -.178377024513606D+03 0.104846684433001D+02
 0.000000000000000D+00 -.000000000000000D+00 -.000000000000000D+00 0.000000000000000D+00
 0.278386766196405D+03 0.000000000000000D+00 0.000000000000000D+00 0.278386766196405D+03
 0.276847994485102D+03 0.000000000000000D+00 0.000000000000000D+00 -.276847994485102D+03
 0.118433567215269D+03 0.683368649848537D+02 0.290437337067155D+02 0.140638869360110D+02
 0.164825368107835D+03 0.465532885971926D+02 0.149639697387768D+03 -.510700916228593D+02
 0.273032924589269D+02 0.154661807387862D+01 0.629967196871412D+01 0.265215362435482D+02
 0.216171830950886D+03 -.903461574997432D+02 -.173616395266473D+03 0.104846684433001D+02
 0.285007019485902D+02 -.260906141561817D+02 -.113667077967245D+02 0.153877171130277D+01
0.291045526565D-05 0.000000000000D+00 0.000000000000D+00 0.990229345845D-08 0.000000000000D+00  7 -2 2 23 -13 13 23 21 0 0.55673422D-01 0.29402113D-01 0.61266848D+05 0.61266848D+05 0.61266848D+05 0.11396124D+01  1  2  2  1  7  1       -2 0.197239970667D-03 0.100000000000D+01
-.160970238810D-06 0.000000000000D+00 -.111769145606D-07 0.990229345845D-08 0.000000000000D+00  7 -2 2 23 -13 13 23 21 2 0.55673422D-01 0.29402113D-01 0.61266848D+05 0.61266848D+05 0.61266848D+05 0.11396124D+01  1  2  3  1  7  1       -2 -.141675239914D-04 0.100000000000D+01
0.189313462720D-06 0.000000000000D+00 0.000000000000D+00 0.990229345845D-08 0.000000000000D+00  7 -2 2 23 -13 13 23 21 2 0.55673422D-01 0.29402113D-01 0.61266848D+05 0.61266848D+05 0.61266848D+05 0.11396124D+01  1  2 15  1  7  1       -2 0.166621050252D-04 0.100000000000D+01
0.488528458004D-05 0.000000000000D+00 0.000000000000D+00 0.990229345845D-08 0.000000000000D+00  7 -2 2 23 -13 13 23 21 2 0.60322105D-01 0.29402113D-01 0.68951609D+05 0.68951609D+05 0.68951609D+05 0.11352172D+01  1  2 12  1  7  1       -2 0.362664517982D-03 0.100000000000D+01
-.393341541307D-05 0.000000000000D+00 0.000000000000D+00 0.990229345845D-08 0.000000000000D+00  7 -2 2 23 -13 13 23 21 2 0.55673422D-01 0.29402113D-01 0.61266848D+05 0.61266848D+05 0.61266848D+05 0.11396124D+01  1  2  4  1  7  1       -2 -.346192921404D-03 0.100000000000D+01
-.175535101702D-04 0.000000000000D+00 -.366252790136D-05 0.990229345845D-08 0.000000000000D+00  7 -2 2 23 -13 13 23 21 2 0.61672034D-01 0.29402113D-01 0.61266848D+05 0.61266848D+05 0.61266848D+05 0.11396124D+01  1  2  5  1  7  1       -2 -.125529104181D-02 0.100000000000D+01
0.178538250658D-04 0.000000000000D+00 0.364343612165D-05 0.990229345845D-08 0.000000000000D+00  7 -2 2 23 -13 13 23 21 2 0.55673422D-01 0.29402113D-01 0.61266848D+05 0.61266848D+05 0.61266848D+05 0.11396124D+01  1  2  6  1  7  1       -2 0.157137429147D-02 0.100000000000D+01
0.653940681587D-07 0.000000000000D+00 0.000000000000D+00 0.990229345845D-08 0.000000000000D+00  7 21 2 23 -13 13 23 2 2 0.60322105D-01 0.29402113D-01 0.68951609D+05 0.68951609D+05 0.68951609D+05 0.11352172D+01  1  2 12  3  7  1       -2 0.511554109983D-04 0.100000000000D+01
-.278214302229D-06 0.000000000000D+00 -.606802469768D-07 0.990229345845D-08 0.000000000000D+00  7 21 2 23 -13 13 23 2 2 0.61672034D-01 0.29402113D-01 0.61266848D+05 0.61266848D+05 0.61266848D+05 0.11396124D+01  1  2  5  3  7  1       -2 -.209653308975D-03 0.100000000000D+01
  </mgrwgt>
  </event>
  <event>
  8     66 0.53686478E-06 0.34076792E+03 0.75467711E-02 0.92830964E-01
       -2 -1    0    0    0  501 0.00000000E+00 0.00000000E+00 0.21852831E+03 0.21852855E+03 0.32000000E+00 0.0000E+00 0.9000E+01
        2 -1    0    0  501    0 0.00000000E+00 0.00000000E+00 -.97739791E+03 0.97739797E+03 0.32000000E+00 0.0000E+00 0.9000E+01
       25  2    1    2    0    0 -.27763247E+03 -.45358397E+02 -.33932027E+02 0.41292653E+03 0.30036605E+03 0.0000E+00 0.0000E+00
       23  2    1    2    0    0 0.27763247E+03 0.45358397E+02 -.72493757E+03 0.78299998E+03 0.91745898E+02 0.0000E+00 0.0000E+00
       23  1    3    3    0    0 -.23602333E+03 0.37893063E+02 0.46164420E+02 0.25997942E+03 0.91188000E+02 0.0000E+00 0.9000E+01
      -13  1    4    4    0    0 -.66771940E+01 -.24029492E+01 -.25714570E+02 0.26676007E+02 0.10565837E+00 0.0000E+00 0.9000E+01
       13  1    4    4    0    0 0.28430967E+03 0.47761347E+02 -.69922300E+03 0.75632397E+03 0.10565837E+00 0.0000E+00 0.9000E+01
       23  1    3    3    0    0 -.41609146E+02 -.83251461E+02 -.80096447E+02 0.15294711E+03 0.91188000E+02 0.0000E+00 0.9000E+01
#aMCatNLO 1  0  0  1  1 0.40140287D+03 0.00000000D+00  -5  7  0 0.00000000D+00 0.00000000D+00 0.00000000D+00 0.00000000D+00 0.00000000D+00
  <mgrwgt>
 0.3257839353D-03    5    2    0
 0.462157211942752D+03 0.000000000000000D+00 0.000000000000000D+00 0.462157211942752D+03
 0.462157211942752D+03 0.000000000000000D+00 0.000000000000000D+00 -.462157211942752D+03
 0.374276381486400D+03 -.236023325727011D+03 0.378930632734111D+02 0.273175152352977D+03
 0.134024299203870D+02 -.667757988826895D+01 -.240301569638574D+01 -.113692818669252D+02
 0.404504441689735D+03 0.284310051781544D+03 0.477614130789609D+02 -.283743696358881D+03
 0.132131170788983D+03 -.416091461662638D+02 -.832514606559862D+02 0.219378258728296D+02
 0.000000000000000D+00 0.000000000000000D+00 -.000000000000000D+00 0.000000000000000D+00
 0.960263732802416D+03 0.000000000000000D+00 0.000000000000000D+00 0.960263732802416D+03
 0.592112144719892D+03 0.000000000000000D+00 0.000000000000000D+00 -.592112144719892D+03
 0.503824247151700D+03 -.391062352719737D+03 0.134049218931740D+03 0.273175152352977D+03
 0.165260303671741D+02 -.119618026880755D+02 0.874291701159586D+00 -.113692818669252D+02
 0.347007321384591D+03 0.151621782668994D+03 0.130055491584879D+03 -.283743696358881D+03
 0.140353379091715D+03 -.897195085851767D+02 -.534131187412845D+02 0.219378258728296D+02
 0.544664899527127D+03 0.341121881323995D+03 -.211565883476495D+03 0.368151588082523D+03
0.121890308536D-04 0.000000000000D+00 0.000000000000D+00 0.147382639885D-05 0.000000000000D+00  7 -2 2 23 -13 13 23 21 0 0.33619763D-01 0.15036893D+00 0.11612277D+06 0.11612277D+06 0.11612277D+06 0.11164334D+01  1  2  2  1  7  1       -2 0.327807913506D-03 0.100000000000D+01
-.600726220489D-06 0.000000000000D+00 -.468090879233D-07 0.147382639885D-05 0.000000000000D+00  7 -2 2 23 -13 13 23 21 2 0.33619763D-01 0.15036893D+00 0.11612277D+06 0.11612277D+06 0.11612277D+06 0.11164334D+01  1  2  3  1  7  1       -2 -.201368953108D-04 0.100000000000D+01
0.804609941521D-06 0.000000000000D+00 0.000000000000D+00 0.147382639885D-05 0.000000000000D+00  7 -2 2 23 -13 13 23 21 2 0.33619763D-01 0.15036893D+00 0.11612277D+06 0.11612277D+06 0.11612277D+06 0.11164334D+01  1  2 15  1  7  1       -2 0.269712651218D-04 0.100000000000D+01
-.195469993663D-05 0.000000000000D+00 -.367573004356D-05 0.147382639885D-05 0.000000000000D+00  7 -2 2 23 -13 13 23 21 2 0.85711603D-01 0.15036893D+00 0.11612277D+06 0.11612277D+06 0.11612277D+06 0.11164334D+01  1  2  5  1  7  1       -2 -.998104396841D-05 0.100000000000D+01
0.225370080738D-07 0.000000000000D+00 -.379875192402D-06 0.147382639885D-05 0.000000000000D+00  7 21 2 23 -13 13 23 2 2 0.85711603D-01 0.15036893D+00 0.11612277D+06 0.11612277D+06 0.11612277D+06 0.11164334D+01  1  2  5  3  7  1       -2 0.112269599011D-05 0.100000000000D+01
  </mgrwgt>
  </event>
  <event>
  8     66 0.53686478E-06 0.67791233E+03 0.75467711E-02 0.79544865E-01
       -2 -1    0    0    0  501 0.00000000E+00 0.00000000E+00 0.37005778E+03 0.37005792E+03 0.32000000E+00 0.0000E+00 0.9000E+01
        2 -1    0    0  501    0 0.00000000E+00 0.00000000E+00 -.15703090E+04 0.15703090E+04 0.32000000E+00 0.0000E+00 0.9000E+01
       25  2    1    2    0    0 -.20064629E+03 0.61559947E+03 -.19253770E+03 0.73918405E+03 0.30016772E+03 0.0000E+00 0.0000E+00
       23  2    1    2    0    0 0.20064629E+03 -.61559947E+03 -.10077135E+04 0.12011829E+04 0.90178564E+02 0.0000E+00 0.0000E+00
       23  1    3    3    0    0 -.21820137E+03 0.33029179E+03 -.57941920E+02 0.41033770E+03 0.91188000E+02 0.0000E+00 0.9000E+01
      -13  1    4    4    0    0 0.11152081E+03 -.25898051E+03 -.37118819E+03 0.46614213E+03 0.10565837E+00 0.0000E+00 0.9000E+01
       13  1    4    4    0    0 0.89125479E+02 -.35661896E+03 -.63652531E+03 0.73504075E+03 0.10565837E+00 0.0000E+00 0.9000E+01
       23  1    3    3    0    0 0.17555086E+02 0.28530767E+03 -.13459578E+03 0.32884636E+03 0.91188000E+02 0.0000E+00 0.9000E+01
#aMCatNLO 1  0  0  2  2 0.22681657D+04 0.00000000D+00  -5  7  0 0.00000000D+00 0.00000000D+00 0.00000000D+00 0.00000000D+00 0.00000000D+00
  <mgrwgt>
 0.3337576742D-03    3    2    0
 0.762302575863413D+03 0.000000000000000D+00 0.000000000000000D+00 0.762302575863413D+03
 0.762302575863413D+03 0.000000000000000D+00 0.000000000000000D+00 -.762302575863413D+03
 0.476622315169570D+03 -.218201373102541D+03 0.330291792983697D+03 0.249297156496783D+03
 0.301040179932212D+03 0.111520838549428D+03 -.258980375139524D+03 -.105439356008290D+03
 0.434380521843389D+03 0.891254481823861D+02 -.356619090183494D+03 -.231443117763136D+03
 0.312562134781654D+03 0.175550863707269D+02 0.285307672339321D+03 0.875853172746428D+02
 0.000000000000000D+00 -.000000000000000D+00 -.000000000000000D+00 0.000000000000000D+00
 0.431632948926113D+04 0.000000000000000D+00 0.000000000000000D+00 0.431632948926113D+04
 0.180247551238209D+04 0.000000000000000D+00 0.000000000000000D+00 -.180247551238209D+04
 0.101109290908247D+04 0.302988073195685D+03 0.927384911844395D+03 0.249297156496783D+03
 0.358472078235987D+03 0.342566957496278D+03 0.571425508078141D+01 -.105439356008290D+03
 0.466150305102088D+03 0.404607306147619D+03 0.480811801181915D+01 -.231443117763136D+03
 0.897231229878645D+03 0.441380509129020D+03 0.770857111846581D+03 0.875853172746428D+02
 0.338585847934403D+04 -.149154284596860D+04 -.170876439678358D+04 0.251385397687905D+04
0.776159533733D-04 0.000000000000D+00 0.000000000000D+00 0.212548499050D-05 0.000000000000D+00  7 -2 2 23 -13 13 23 21 0 0.56931979D-01 0.24158601D+00 0.45956513D+06 0.45956513D+06 0.45956513D+06 0.10711084D+01  1  2  2  2  7  2        2 0.331439973026D-03 0.100000000000D+01
-.423982928022D-05 0.000000000000D+00 -.298065697703D-06 0.212548499050D-05 0.000000000000D+00  7 -2 2 23 -13 13 23 21 2 0.56931979D-01 0.24158601D+00 0.45956513D+06 0.45956513D+06 0.45956513D+06 0.10711084D+01  1  2  3  2  7  2        2 -.207715586451D-04 0.100000000000D+01
0.471291160254D-05 0.000000000000D+00 0.000000000000D+00 0.212548499050D-05 0.000000000000D+00  7 -2 2 23 -13 13 23 21 2 0.56931979D-01 0.24158601D+00 0.45956513D+06 0.45956513D+06 0.45956513D+06 0.10711084D+01  1  2 15  2  7  2        2 0.230892597959D-04 0.100000000000D+01
  </mgrwgt>
  </event>
  <event>
  8     66 0.53686478E-06 0.15834168E+03 0.75467711E-02 0.10246387E+00
       -2 -1    0    0    0  501 0.00000000E+00 0.00000000E+00 0.70189979E+02 0.70190709E+02 0.32000000E+00 0.0000E+00 0.9000E+01
        2 -1    0    0  501    0 0.00000000E+00 0.00000000E+00 -.26608352E+04 0.26608352E+04 0.32000000E+00 0.0000E+00 0.9000E+01
       25  2    1    2    0    0 -.12492519E+03 0.12076138E+03 -.24834938E+04 0.25075334E+04 0.29965367E+03 0.0000E+00 0.0000E+00
       23  2    1    2    0    0 0.12492519E+03 -.12076138E+03 -.10715141E+03 0.22349259E+03 0.90982951E+02 0.0000E+00 0.0000E+00
       23  1    3    3    0    0 -.94373406E+02 0.10677713E+03 -.65625325E+03 0.67771032E+03 0.91188000E+02 0.0000E+00 0.9000E+01
      -13  1    4    4    0    0 0.13105029E+03 -.82631568E+02 -.99491431E+02 0.18412146E+03 0.10565837E+00 0.0000E+00 0.9000E+01
       13  1    4    4    0    0 -.61250991E+01 -.38129814E+02 -.76599801E+01 0.39371132E+02 0.10565837E+00 0.0000E+00 0.9000E+01
       23  1    3    3    0    0 -.30551788E+02 0.13984256E+02 -.18272406E+04 0.18298230E+04 0.91188000E+02 0.0000E+00 0.9000E+01
#aMCatNLO 1  0  0  2  1 0.65391488D+02 0.00000000D+00  -5  7  0 0.00000000D+00 0.00000000D+00 0.00000000D+00 0.00000000D+00 0.00000000D+00
  <mgrwgt>
 0.3610770132D-03    9    2    0
 0.432163154252325D+03 0.000000000000000D+00 0.000000000000000D+00 0.432163154252325D+03
 0.432163154252325D+03 0.000000000000000D+00 0.000000000000000D+00 -.432163154252325D+03
 0.174384490363241D+03 -.943734060173624D+02 0.106777126557595D+03 -.422729773736441D+02
 0.283566159209729D+03 0.131050478178457D+03 -.826316283510255D+02 0.237502742750927D+03
 0.101442105328760D+03 -.612528397559528D+01 -.381297544263159D+02 0.938035364852437D+02
 0.304933553602921D+03 -.305517881854992D+02 0.139842562197467D+02 -.289033301862527D+03
 0.000000000000000D+00 -.000000000000000D+00 -.000000000000000D+00 -.000000000000000D+00
 0.443764449386160D+03 0.000000000000000D+00 0.000000000000000D+00 0.443764449386160D+03
 0.536522496581253D+03 0.000000000000000D+00 0.000000000000000D+00 -.536522496581253D+03
 0.172627828814988D+03 -.829532961536350D+02 0.113211580585166D+03 -.422729773736441D+02
 0.289945800043417D+03 0.149924648404870D+03 -.719973190423074D+02 0.237502742750927D+03
 0.999122122936095D+02 0.501248575839250D+00 -.343961546997634D+02 0.938035364852437D+02
 0.304310567633603D+03 -.105016792590272D+02 0.252811268868980D+02 -.289033301862527D+03
 0.113490537181796D+03 -.569709215680475D+02 -.320992337299937D+02 -.927580471950933D+02
0.136251564478D-04 0.000000000000D+00 0.000000000000D+00 0.105372113429D-05 0.000000000000D+00  7 -2 2 23 -13 13 23 21 0 0.10798516D-01 0.40935932D+00 0.52879223D+05 0.52879223D+05 0.52879223D+05 0.11451628D+01  1  2  2  2  7  2        2 0.287580150058D-03 0.100000000000D+01
-.390600349008D-06 0.000000000000D+00 -.523241883456D-07 0.105372113429D-05 0.000000000000D+00  7 -2 2 23 -13 13 23 21 2 0.10798516D-01 0.40935932D+00 0.52879223D+05 0.52879223D+05 0.52879223D+05 0.11451628D+01  1  2  3  2  7  2        2 -.108114632419D-04 0.100000000000D+01
0.821210379346D-06 0.000000000000D+00 0.000000000000D+00 0.105372113429D-05 0.000000000000D+00  7 -2 2 23 -13 13 23 21 2 0.10798516D-01 0.40935932D+00 0.52879223D+05 0.52879223D+05 0.52879223D+05 0.11451628D+01  1  2 15  2  7  2        2 0.227303581594D-04 0.100000000000D+01
0.265042903959D-04 0.000000000000D+00 0.000000000000D+00 0.105372113429D-05 0.000000000000D+00  7 -2 2 23 -13 13 23 21 2 0.10798516D-01 0.51278733D+00 0.69877698D+05 0.69877698D+05 0.69877698D+05 0.11347242D+01  1  2 12  2  7  2        2 0.272747226039D-03 0.100000000000D+01
-.284058405926D-04 0.000000000000D+00 0.000000000000D+00 0.105372113429D-05 0.000000000000D+00  7 -2 2 23 -13 13 23 21 2 0.10798516D-01 0.40935932D+00 0.52879223D+05 0.52879223D+05 0.52879223D+05 0.11451628D+01  1  2  4  2  7  2        2 -.786247893021D-03 0.100000000000D+01
-.330489349592D-04 0.000000000000D+00 -.586406211800D-05 0.105372113429D-05 0.000000000000D+00  7 -2 2 23 -13 13 23 21 2 0.10798516D-01 0.51139994D+00 0.52879223D+05 0.52879223D+05 0.52879223D+05 0.11451628D+01  1  2  5  2  7  2        2 -.356485715526D-03 0.100000000000D+01
0.336592670383D-04 0.000000000000D+00 0.572176988377D-05 0.105372113429D-05 0.000000000000D+00  7 -2 2 23 -13 13 23 21 2 0.10798516D-01 0.40935932D+00 0.52879223D+05 0.52879223D+05 0.52879223D+05 0.11451628D+01  1  2  6  2  7  2        2 0.931657970242D-03 0.100000000000D+01
0.830105255434D-06 0.000000000000D+00 0.000000000000D+00 0.105372113429D-05 0.000000000000D+00  7 -2 21 23 -13 13 23 -2 2 0.10798516D-01 0.51278733D+00 0.69877698D+05 0.69877698D+05 0.69877698D+05 0.11347242D+01  1  2 12  4  7  2        2 0.408568330606D-06 0.100000000000D+01
-.944705993309D-06 0.000000000000D+00 -.181998508620D-06 0.105372113429D-05 0.000000000000D+00  7 -2 21 23 -13 13 23 -2 2 0.10798516D-01 0.51139994D+00 0.52879223D+05 0.52879223D+05 0.52879223D+05 0.11451628D+01  1  2  5  4  7  2        2 -.502187803918D-06 0.100000000000D+01
  </mgrwgt>
  </event>
  <event>
  8     66 0.53686478E-06 0.14457124E+03 0.75467711E-02 0.94232833E-01
       -2 -1    0    0    0  501 0.00000000E+00 0.00000000E+00 0.43934648E+02 0.43935813E+02 0.32000000E+00 0.0000E+00 0.9000E+01
        2 -1    0    0  501    0 0.00000000E+00 0.00000000E+00 -.16323126E+04 0.16323126E+04 0.32000000E+00 0.0000E+00 0.9000E+01
       25  2    1    2    0    0 -.49852689E+01 0.79575203E+01 -.15457815E+04 0.15748230E+04 0.30089670E+03 0.0000E+00 0.0000E+00
       23  2    1    2    0    0 0.49852689E+01 -.79575203E+01 -.42596455E+02 0.10142546E+03 0.91566864E+02 0.0000E+00 0.0000E+00
       23  1    3    3    0    0 -.10435138E+03 0.54848795E+01 -.11103237E+04 0.11189519E+04 0.91188000E+02 0.0000E+00 0.9000E+01
      -13  1    4    4    0    0 0.53640269E+01 -.11137825E+02 -.71390821E+02 0.72453326E+02 0.10565837E+00 0.0000E+00 0.9000E+01
       13  1    4    4    0    0 -.37875798E+00 0.31803048E+01 0.28794366E+02 0.28972132E+02 0.10565837E+00 0.0000E+00 0.9000E+01
       23  1    3    3    0    0 0.99366112E+02 0.24726408E+01 -.43545777E+03 0.45587110E+03 0.91188000E+02 0.0000E+00 0.9000E+01
#aMCatNLO 1  0  0  2  2 0.45370277D+03 0.00000000D+00  -5  7  0 0.00000000D+00 0.00000000D+00 0.00000000D+00 0.00000000D+00 0.00000000D+00
  <mgrwgt>
 0.4280960927D-03    3    2    0
 0.267798583891881D+03 0.000000000000000D+00 0.000000000000000D+00 0.267798583891881D+03
 0.267798583891881D+03 0.000000000000000D+00 0.000000000000000D+00 -.267798583891881D+03
 0.209163969961645D+03 -.104351376759236D+03 0.548487964433843D+01 -.156572734694950D+03
 0.150375203506544D+02 0.536403442373015D+01 -.111378439443637D+02 -.856169289734121D+01
 0.176066922402990D+03 -.378765344928006D+00 0.318032333557213D+01 0.176037789252067D+03
 0.135328755068472D+03 0.993661076804340D+02 0.247264096445315D+01 -.109033616597765D+02
 0.000000000000000D+00 0.000000000000000D+00 0.000000000000000D+00 0.000000000000000D+00
 0.170037402346907D+04 0.000000000000000D+00 0.000000000000000D+00 0.170037402346907D+04
 0.389103122684954D+03 0.000000000000000D+00 0.000000000000000D+00 -.389103122684954D+03
 0.362398279530715D+03 -.313849090194726D+03 0.994483237626142D+00 -.156572734694950D+03
 0.153669729335372D+02 -.578028419923723D+01 -.113767124622067D+02 -.856169289734121D+01
 0.231009706424040D+03 -.149586700277710D+03 -.178155075109330D-01 0.176037789252067D+03
 0.931584651249840D+02 0.156174867344662D+02 0.677564061722733D+00 -.109033616597765D+02
 0.138754372214075D+04 0.453598587937207D+03 0.972248067036875D+01 0.131127090078411D+04
0.263416813738D-05 0.000000000000D+00 0.000000000000D+00 0.131244736444D-06 0.000000000000D+00  7 -2 2 23 -13 13 23 21 0 0.67592686D-02 0.25112511D+00 0.20900843D+05 0.20900843D+05 0.20900843D+05 0.11821850D+01  1  2  2  2  7  2        2 0.410536388858D-03 0.100000000000D+01
-.787240759644D-07 0.000000000000D+00 -.101158992399D-07 0.131244736444D-06 0.000000000000D+00  7 -2 2 23 -13 13 23 21 2 0.67592686D-02 0.25112511D+00 0.20900843D+05 0.20900843D+05 0.20900843D+05 0.11821850D+01  1  2  3  2  7  2        2 -.171469391816D-04 0.100000000000D+01
0.159343214271D-06 0.000000000000D+00 0.000000000000D+00 0.131244736444D-06 0.000000000000D+00  7 -2 2 23 -13 13 23 21 2 0.67592686D-02 0.25112511D+00 0.20900843D+05 0.20900843D+05 0.20900843D+05 0.11821850D+01  1  2 15  2  7  2        2 0.347066430522D-04 0.100000000000D+01
  </mgrwgt>
  </event>
  <event>
  8     66 0.53686478E-06 0.15690583E+03 0.75467711E-02 0.98309705E-01
       -2 -1    0    0    0  501 0.00000000E+00 0.00000000E+00 0.73942201E+02 0.73942893E+02 0.32000000E+00 0.0000E+00 0.9000E+01
        2 -1    0    0  501    0 0.00000000E+00 0.00000000E+00 -.13021392E+04 0.13021392E+04 0.32000000E+00 0.0000E+00 0.9000E+01
       25  2    1    2    0    0 0.40888137E+02 -.18776629E+03 -.10139858E+04 0.10747850E+04 0.30011258E+03 0.0000E+00 0.0000E+00
       23  2    1    2    0    0 -.40888137E+02 0.18776629E+03 -.21421118E+03 0.30129712E+03 0.89249668E+02 0.0000E+00 0.0000E+00
       23  1    3    3    0    0 0.97813833E+02 -.19378853E+03 -.81754038E+03 0.85076969E+03 0.91188000E+02 0.0000E+00 0.9000E+01
      -11  1    4    4    0    0 -.17126393E+02 0.11717703E+01 -.45461321E+02 0.48594424E+02 0.51099893E-03 0.0000E+00 0.9000E+01
       11  1    4    4    0    0 -.23761744E+02 0.18659452E+03 -.16874986E+03 0.25270270E+03 0.51099893E-03 0.0000E+00 0.9000E+01
       23  1    3    3    0    0 -.56925696E+02 0.60222377E+01 -.19644541E+03 0.22401530E+03 0.91188000E+02 0.0000E+00 0.9000E+01
#aMCatNLO 1  0  0  1  2 0.16411905D+03 0.00000000D+00  -5  7  0 0.00000000D+00 0.00000000D+00 0.00000000D+00 0.00000000D+00 0.00000000D+00
  <mgrwgt>
 0.2015718400D-03    7    2    0
 0.310295890231638D+03 0.000000000000000D+00 0.000000000000000D+00 0.310295890231638D+03
 0.310295890231638D+03 0.000000000000000D+00 0.000000000000000D+00 -.310295890231638D+03
 0.268499086562093D+03 0.978138325687410D+02 -.193788531942899D+03 -.129054125026317D+03
 0.177805469228140D+02 -.171263933224887D+02 0.117177024873715D+01 -.463265098210296D+01
 0.226367143941606D+03 -.237617435972173D+02 0.186594524026548D+03 0.125936281510953D+03
 0.107945003036764D+03 -.569256956490350D+02 0.602223766761433D+01 0.775049449746719D+01
 0.000000000000000D+00 -.000000000000000D+00 0.000000000000000D+00 0.000000000000000D+00
 0.626519390098027D+03 0.000000000000000D+00 0.000000000000000D+00 0.626519390098027D+03
 0.343000815065081D+03 0.000000000000000D+00 0.000000000000000D+00 -.343000815065081D+03
 0.334309446669430D+03 0.144444012926622D+03 -.256765485865538D+03 -.129054125026317D+03
 0.154475899401488D+02 -.145560348596280D+02 -.229965845340138D+01 -.463265098210296D+01
 0.190751547457826D+03 0.850442175769260D+01 0.143017064252195D+03 0.125936281510953D+03
 0.101417596109509D+03 -.407304773994685D+02 -.158504101678049D+02 0.775049449746719D+01
 0.327594024986195D+03 -.976619224252185D+02 0.131898490234549D+03 0.283518575032947D+03
0.277061662771D-05 0.000000000000D+00 0.000000000000D+00 0.148555967377D-06 0.000000000000D+00  7 -2 2 23 -11 11 23 21 0 0.11375779D-01 0.20032916D+00 0.75181369D+05 0.75181369D+05 0.75181369D+05 0.11320327D+01  1  2  2  1  7  1       -2 0.292600858833D-03 0.100000000000D+01
-.151059604211D-06 0.000000000000D+00 -.106398973705D-07 0.148555967377D-06 0.000000000000D+00  7 -2 2 23 -11 11 23 21 2 0.11375779D-01 0.20032916D+00 0.75181369D+05 0.75181369D+05 0.75181369D+05 0.11320327D+01  1  2  3  1  7  1       -2 -.204439788403D-04 0.100000000000D+01
0.179050996749D-06 0.000000000000D+00 0.000000000000D+00 0.148555967377D-06 0.000000000000D+00  7 -2 2 23 -11 11 23 21 2 0.11375779D-01 0.20032916D+00 0.75181369D+05 0.75181369D+05 0.75181369D+05 0.11320327D+01  1  2 15  1  7  1       -2 0.242322545991D-04 0.100000000000D+01
0.139554056930D-05 0.000000000000D+00 0.000000000000D+00 0.148555967377D-06 0.000000000000D+00  7 -2 2 23 -11 11 23 21 2 0.22993203D-01 0.20032916D+00 0.13382497D+06 0.13382497D+06 0.13382497D+06 0.11114838D+01  1  2 12  1  7  1       -2 0.579113065198D-04 0.100000000000D+01
-.301248730217D-05 0.000000000000D+00 -.858374178637D-06 0.148555967377D-06 0.000000000000D+00  7 -2 2 23 -11 11 23 21 2 0.25206425D-01 0.20032916D+00 0.75181369D+05 0.75181369D+05 0.75181369D+05 0.11320327D+01  1  2  5  1  7  1       -2 -.112438786694D-03 0.100000000000D+01
0.106221373393D-06 0.000000000000D+00 0.000000000000D+00 0.148555967377D-06 0.000000000000D+00  7 21 2 23 -11 11 23 2 2 0.22993203D-01 0.20032916D+00 0.13382497D+06 0.13382497D+06 0.13382497D+06 0.11114838D+01  1  2 12  3  7  1       -2 0.546752013976D-04 0.100000000000D+01
-.205778750214D-06 0.000000000000D+00 -.740626661484D-07 0.148555967377D-06 0.000000000000D+00  7 21 2 23 -11 11 23 2 2 0.25206425D-01 0.20032916D+00 0.75181369D+05 0.75181369D+05 0.75181369D+05 0.11320327D+01  1  2  5  3  7  1       -2 -.949650158286D-04 0.100000000000D+01
  </mgrwgt>
  </event>
  <event>
  8     66 0.53686478E-06 0.40718731E+03 0.75467711E-02 0.94805221E-01
       -2 -1    0    0    0  501 0.00000000E+00 0.00000000E+00 0.60197079E+02 0.60197929E+02 0.32000000E+00 0.0000E+00 0.9000E+01
        2 -1    0    0  501    0 0.00000000E+00 0.00000000E+00 -.31274291E+04 0.31274291E+04 0.32000000E+00 0.0000E+00 0.9000E+01
       25  2    1    2    0    0 -.22676263E+02 0.35732346E+03 -.12773227E+04 0.13600132E+04 0.29981351E+03 0.0000E+00 0.0000E+00
       23  2    1    2    0    0 0.22676263E+02 -.35732346E+03 -.17899092E+04 0.18276139E+04 0.90570547E+02 0.0000E+00 0.0000E+00
       23  1    3    3    0    0 0.13370963E+02 0.34474904E+03 -.11068044E+04 0.11629110E+04 0.91188000E+02 0.0000E+00 0.9000E+01
      -11  1    4    4    0    0 0.23000815E+02 -.19704527E+03 -.12014139E+04 0.12176827E+04 0.51099893E-03 0.0000E+00 0.9000E+01
       11  1    4    4    0    0 -.32455149E+00 -.16027818E+03 -.58849537E+03 0.60993114E+03 0.51099893E-03 0.0000E+00 0.9000E+01
       23  1    3    3    0    0 -.36047226E+02 0.12574415E+02 -.17051835E+03 0.19710220E+03 0.91188000E+02 0.0000E+00 0.9000E+01
#aMCatNLO 1  0  0  2  1 0.15527695D+03 0.00000000D+00  -5  7  0 0.00000000D+00 0.00000000D+00 0.00000000D+00 0.00000000D+00 0.00000000D+00
  <mgrwgt>
 0.2579912482D-03    4    2    0
 0.433893392429530D+03 0.000000000000000D+00 0.000000000000000D+00 0.433893392429530D+03
 0.433893392429530D+03 0.000000000000000D+00 0.000000000000000D+00 -.433893392429530D+03
 0.359651189631349D+03 0.133709626231550D+02 0.344749041409170D+03 0.447553646531098D+02
 0.226441825656823D+03 0.230008147698137D+02 -.197045273916732D+03 -.109178857631868D+03
 0.160386367728160D+03 -.324551494546455D+00 -.160278182981242D+03 -.588095907071158D+01
 0.121307401842728D+03 -.360472258984223D+02 0.125744154888032D+02 0.703044520494700D+02
 0.000000000000000D+00 -.000000000000000D+00 0.000000000000000D+00 0.000000000000000D+00
 0.575039907964864D+03 0.000000000000000D+00 0.000000000000000D+00 0.575039907964864D+03
 0.485682356198735D+03 0.000000000000000D+00 0.000000000000000D+00 -.485682356198735D+03
 0.352591981560741D+03 0.746703078171911D+02 0.329282791202612D+03 0.447553646531098D+02
 0.242654473259127D+03 0.633736777463242D+02 -.207231627431166D+03 -.109178857631868D+03
 0.169893527725396D+03 0.281010510818486D+02 -.167450159783393D+03 -.588095907071158D+01
 0.116429546442340D+03 -.155863498272458D+02 0.741199445868461D+01 0.703044520494700D+02
 0.179152735175995D+03 -.150558686818118D+03 0.379870015532624D+02 0.893575517661281D+02
0.250372796346D-04 0.000000000000D+00 0.000000000000D+00 0.886990841472D-06 0.000000000000D+00  7 -2 2 23 -11 11 23 21 0 0.92611557D-02 0.48114300D+00 0.16580150D+06 0.16580150D+06 0.16580150D+06 0.11041356D+01  1  2  2  2  7  2        2 0.331540859570D-03 0.100000000000D+01
-.138413512656D-05 0.000000000000D+00 -.961497462639D-07 0.886990841472D-06 0.000000000000D+00  7 -2 2 23 -11 11 23 21 2 0.92611557D-02 0.48114300D+00 0.16580150D+06 0.16580150D+06 0.16580150D+06 0.11041356D+01  1  2  3  2  7  2        2 -.223446345213D-04 0.100000000000D+01
0.157418634942D-05 0.000000000000D+00 0.000000000000D+00 0.886990841472D-06 0.000000000000D+00  7 -2 2 23 -11 11 23 21 2 0.92611557D-02 0.48114300D+00 0.16580150D+06 0.16580150D+06 0.16580150D+06 0.11041356D+01  1  2 15  2  7  2        2 0.254127057186D-04 0.100000000000D+01
-.474607117112D-05 0.000000000000D+00 0.000000000000D+00 0.886990841472D-06 0.000000000000D+00  7 -2 2 23 -11 11 23 21 2 0.92611557D-02 0.48114300D+00 0.16580150D+06 0.16580150D+06 0.16580150D+06 0.11041356D+01  1  2  4  2  7  2        2 -.766176825482D-04 0.100000000000D+01
  </mgrwgt>
  </event>
  <event>
  8     66 0.53686478E-06 0.38362796E+03 0.75467711E-02 0.89732422E-01
       -2 -1    0    0    0  501 0.00000000E+00 0.00000000E+00 0.82708399E+03 0.82708405E+03 0.32000000E+00 0.0000E+00 0.9000E+01
        2 -1    0    0  501    0 0.00000000E+00 0.00000000E+00 -.58454551E+03 0.58454560E+03 0.32000000E+00 0.0000E+00 0.9000E+01
       25  2    1    2    0    0 -.33165263E+03 0.10099256E+03 -.44262520E+03 0.63829913E+03 0.30218497E+03 0.0000E+00 0.0000E+00
       23  2    1    2    0    0 0.33165263E+03 -.10099256E+03 0.68516368E+03 0.77333052E+03 0.91639869E+02 0.0000E+00 0.0000E+00
       23  1    3    3    0    0 -.19506739E+03 0.11847193E+03 -.11487784E+03 0.27129146E+03 0.91188000E+02 0.0000E+00 0.9000E+01
      -13  1    4    4    0    0 0.31826672E+03 -.11361034E+03 0.66561128E+03 0.74648469E+03 0.10565837E+00 0.0000E+00 0.9000E+01
       13  1    4    4    0    0 0.13385905E+02 0.12617779E+02 0.19552398E+02 0.26845824E+02 0.10565837E+00 0.0000E+00 0.9000E+01
       23  1    3    3    0    0 -.13658524E+03 -.17479369E+02 -.32774736E+03 0.36700768E+03 0.91188000E+02 0.0000E+00 0.9000E+01
#aMCatNLO 1  0  0  2  1 0.62012596D+03 0.00000000D+00  -5  7  0 0.00000000D+00 0.00000000D+00 0.00000000D+00 0.00000000D+00 0.00000000D+00
  <mgrwgt>
 0.4183029922D-03    3    2    0
 0.695318876150294D+03 0.000000000000000D+00 0.000000000000000D+00 0.695318876150294D+03
 0.695318876150294D+03 0.000000000000000D+00 0.000000000000000D+00 -.695318876150294D+03
 0.295422268100105D+03 -.195067390442907D+03 0.118471925142348D+03 -.163927365879743D+03
 0.641665827050068D+03 0.318267126910172D+03 -.113610502847169D+03 0.545466518839613D+03
 0.238401479924563D+02 0.133855001233528D+02 0.126179468063348D+02 0.151647110471135D+02
 0.429709509157958D+03 -.136585236590618D+03 -.174793691015136D+02 -.396703864006983D+03
 0.000000000000000D+00 -.000000000000000D+00 0.000000000000000D+00 0.000000000000000D+00
 0.109914709798053D+04 0.000000000000000D+00 0.000000000000000D+00 0.109914709798053D+04
 0.104589973530973D+04 0.000000000000000D+00 0.000000000000000D+00 -.104589973530973D+04
 0.224546022858500D+03 -.896079505273114D+02 0.848757854490546D+02 -.163927365879743D+03
 0.853180060385161D+03 0.621450249401001D+03 -.210195337206264D+03 0.545466518839613D+03
 0.300825251045707D+02 0.243220418364645D+02 0.913390039522832D+01 0.151647110471135D+02
 0.414830406362941D+03 0.347034900988499D+02 -.720466984401805D+02 -.396703864006983D+03
 0.622407818579087D+03 -.590867830809004D+03 0.188232349802161D+03 0.532473626708042D+02
0.137250349120D-03 0.000000000000D+00 0.000000000000D+00 0.375799336584D-06 0.000000000000D+00  7 -2 2 23 -13 13 23 21 0 0.12724370D+00 0.89930090D-01 0.14717041D+06 0.14717041D+06 0.14717041D+06 0.11082052D+01  1  2  2  2  7  2        2 0.405076231930D-03 0.100000000000D+01
-.434622326126D-05 0.000000000000D+00 -.527077479466D-06 0.375799336584D-06 0.000000000000D+00  7 -2 2 23 -13 13 23 21 2 0.12724370D+00 0.89930090D-01 0.14717041D+06 0.14717041D+06 0.14717041D+06 0.11082052D+01  1  2  3  2  7  2        2 -.157534499650D-04 0.100000000000D+01
0.799535747586D-05 0.000000000000D+00 0.000000000000D+00 0.375799336584D-06 0.000000000000D+00  7 -2 2 23 -13 13 23 21 2 0.12724370D+00 0.89930090D-01 0.14717041D+06 0.14717041D+06 0.14717041D+06 0.11082052D+01  1  2 15  2  7  2        2 0.289802102599D-04 0.100000000000D+01
  </mgrwgt>
  </event>
  <event>
  9     66 0.53686478E-06 0.24879813E+03 0.75467711E-02 0.95544331E-01
       -2 -1    0    0    0  501 0.00000000E+00 0.00000000E+00 0.79188100E+03 0.79188106E+03 0.32000000E+00 0.0000E+00 0.9000E+01
       21 -1    0    0  501  502 0.00000000E+00 0.00000000E+00 -.52440687E+03 0.52440740E+03 0.75000000E+00 0.0000E+00 0.9000E+01
       25  2    1    2    0    0 -.72459078E+02 -.11279677E+03 0.46176407E+03 0.56712222E+03 0.30071271E+03 0.0000E+00 0.0000E+00
       23  2    1    2    0    0 -.22577817E+03 0.20913913E+03 -.27828878E+03 0.42469250E+03 0.90576578E+02 0.0000E+00 0.0000E+00
       23  1    3    3    0    0 0.72340360E+01 -.14255005E+03 0.13253541E+03 0.21506682E+03 0.91188000E+02 0.0000E+00 0.9000E+01
      -13  1    4    4    0    0 -.22751564E+03 0.21270344E+03 -.25922555E+03 0.40522095E+03 0.10565837E+00 0.0000E+00 0.9000E+01
       13  1    4    4    0    0 0.17374769E+01 -.35643160E+01 -.19063229E+02 0.19471544E+02 0.10565837E+00 0.0000E+00 0.9000E+01
       23  1    3    3    0    0 -.79693114E+02 0.29753283E+02 0.32922865E+03 0.35205541E+03 0.91188000E+02 0.0000E+00 0.9000E+01
       -2  1    1    2    0  502 0.29823724E+03 -.96342355E+02 0.83998844E+02 0.32447375E+03 0.32000000E+00 0.0000E+00 0.9000E+01
#aMCatNLO 2  0  0  2  2 0.31341235D+03 0.00000000D+00  -5  7  0 0.00000000D+00 0.00000000D+00 0.00000000D+00 0.00000000D+00 0.00000000D+00
  <mgrwgt>
 0.6838718017D-05    1    2    0
 0.461466670159995D+03 0.000000000000000D+00 0.000000000000000D+00 0.461466670159995D+03
 0.461466670159995D+03 0.000000000000000D+00 0.000000000000000D+00 -.461466670159995D+03
 0.221988436650487D+03 0.725956454581545D+02 -.163664423615153D+03 0.943792528353622D+02
 0.391274255826820D+03 -.935488196285481D+02 0.169427084335552D+03 -.340056796303928D+03
 0.256474765994426D+02 0.944645096214187D+01 -.605481115220084D+01 -.230628897159482D+02
 0.284023171243239D+03 0.115067232082517D+02 0.292150431801616D+00 0.268740433184514D+03
 0.000000000000000D+00 0.000000000000000D+00 -.000000000000000D+00 0.000000000000000D+00
 0.656726273857151D+03 0.000000000000000D+00 0.000000000000000D+00 0.656726273857151D+03
 0.632330605154158D+03 0.000000000000000D+00 0.000000000000000D+00 -.632330605154158D+03
 0.193895703747492D+03 0.723403596644050D+01 -.142550054176104D+03 0.943792528353622D+02
 0.461134486052820D+03 -.227515955910167D+03 0.212703736029695D+03 -.340056796303928D+03
 0.234013512026305D+02 0.173778881946545D+01 -.356461022803432D+01 -.230628897159482D+02
 0.296264952326534D+03 -.796931135759817D+02 0.297532830694144D+02 0.268740433184514D+03
 0.314360385681832D+03 0.298237244700243D+03 -.963423546949706D+02 0.243956687029938D+02
0.863177633032D-06 0.000000000000D+00 0.000000000000D+00 0.605145684379D-06 0.280289800483D-11  7 -2 21 23 -13 13 23 -2 2 0.12182788D+00 0.80678015D-01 0.21294430D+06 0.21294430D+06 0.21294430D+06 0.10957397D+01  1  2  1  4  7  2        2 0.683871801737D-05 0.100000000000D+01
  </mgrwgt>
  </event>
  <event>
  9     66 0.53686478E-06 0.28824550E+03 0.75467711E-02 0.96018414E-01
       -2 -1    0    0    0  501 0.00000000E+00 0.00000000E+00 0.10489473E+04 0.10489473E+04 0.32000000E+00 0.0000E+00 0.9000E+01
        2 -1    0    0  502    0 0.00000000E+00 0.00000000E+00 -.47888871E+03 0.47888882E+03 0.32000000E+00 0.0000E+00 0.9000E+01
       25  2    1    2    0    0 -.59829179E+02 -.52270641E+02 -.10506171E+03 0.32735833E+03 0.29968944E+03 0.0000E+00 0.0000E+00
       23  2    1    2    0    0 0.12011408E+03 0.29676907E+03 0.83720453E+03 0.90100225E+03 0.91620779E+02 0.0000E+00 0.0000E+00
       23  1    3    3    0    0 -.12843404E+03 0.30428747E+02 -.17345817E+02 0.16136090E+03 0.91188000E+02 0.0000E+00 0.9000E+01
      -11  1    4    4    0    0 0.13416078E+03 0.28299534E+03 0.79373883E+03 0.85329175E+03 0.51099893E-03 0.0000E+00 0.9000E+01
       11  1    4    4    0    0 -.14046701E+02 0.13773724E+02 0.43465698E+02 0.47710504E+02 0.51099893E-03 0.0000E+00 0.9000E+01
       23  1    3    3    0    0 0.68604866E+02 -.82699388E+02 -.87715894E+02 0.16599743E+03 0.91188000E+02 0.0000E+00 0.9000E+01
       21  1    1    2  502  501 -.60284897E+02 -.24449843E+03 -.16208425E+03 0.29947557E+03 0.75000000E+00 0.0000E+00 0.9000E+01
#aMCatNLO 2  0  0  2  1 0.25182087D+03 0.00000000D+00  -5  7  0 0.00000000D+00 0.00000000D+00 0.00000000D+00 0.00000000D+00 0.00000000D+00
  <mgrwgt>
 0.1227797274D-03    2    2    0
 0.476818326694366D+03 0.000000000000000D+00 0.000000000000000D+00 0.476818326694366D+03
 0.476818326694366D+03 0.000000000000000D+00 0.000000000000000D+00 -.476818326694366D+03
 0.221480414354722D+03 -.141961548728113D+03 -.244349693452137D+02 -.141379537255409D+03
 0.408688131283341D+03 0.106746668743022D+03 0.171811504267216D+03 0.355122435739525D+03
 0.254412975195478D+02 -.156811140429498D+02 0.714500850914546D+01 0.187166005261209D+02
 0.298026810231121D+03 0.508959940280410D+02 -.154521543431148D+03 -.232459499010237D+03
 0.000000000000000D+00 -.000000000000000D+00 -.000000000000000D+00 -.000000000000000D+00
 0.527722762197295D+03 0.000000000000000D+00 0.000000000000000D+00 0.527722762197295D+03
 0.951879763600534D+03 0.000000000000000D+00 0.000000000000000D+00 -.951879763600534D+03
 0.213833199917598D+03 -.128434044803991D+03 0.304287466671273D+02 -.141379537255409D+03
 0.473494903458784D+03 0.134160776809034D+03 0.282995344841335D+03 0.355122435739525D+03
 0.271539392701135D+02 -.140467009468843D+02 0.137737240839004D+02 0.187166005261209D+02
 0.271842760232762D+03 0.686048655127390D+02 -.826993875119750D+02 -.232459499010237D+03
 0.493277722918572D+03 -.602848965708980D+02 -.244498428080388D+03 -.424157001403238D+03
-.126955629553D-05 0.000000000000D+00 0.000000000000D+00 0.205325019033D-05 0.000000000000D+00  7 -2 2 23 -11 11 23 21 2 0.14580997D+00 0.73810283D-01 0.19626452D+06 0.19626452D+06 0.19626452D+06 0.10984548D+01  1  2 13  2  7  2        2 -.389703818636D-05 0.100000000000D+01
0.545611463382D-04 0.000000000000D+00 0.000000000000D+00 0.205325019033D-05 0.274543687258D-09  7 -2 2 23 -11 11 23 21 2 0.16137643D+00 0.73675161D-01 0.19626452D+06 0.19626452D+06 0.19626452D+06 0.10984548D+01  1  2  1  2  7  2        2 0.126676765618D-03 0.100000000000D+01
  </mgrwgt>
  </event>
  <event>
  9     66 -.53686478E-06 0.26065660E+03 0.75467711E-02 0.10224938E+00
       -2 -1    0    0    0  502 0.00000000E+00 0.00000000E+00 0.83945639E+02 0.83946248E+02 0.32000000E+00 0.0000E+00 0.9000E+01
        2 -1    0    0  501    0 0.00000000E+00 0.00000000E+00 -.11636608E+04 0.11636609E+04 0.32000000E+00 0.0000E+00 0.9000E+01
       25  2    1    2    0    0 -.18906664E+03 -.73142470E+02 -.51965829E+03 0.63380566E+03 0.30094662E+03 0.0000E+00 0.0000E+00
       23  2    1    2    0    0 0.19800072E+03 0.85863090E+02 -.53231121E+03 0.58198923E+03 0.93698885E+02 0.0000E+00 0.0000E+00
       23  1    3    3    0    0 -.17532103E+03 -.72561275E+02 -.49566129E+03 0.53851460E+03 0.91188000E+02 0.0000E+00 0.9000E+01
      -13  1    4    4    0    0 0.91604078E+02 0.19682458E+02 -.12746557E+03 0.15819668E+03 0.10565837E+00 0.0000E+00 0.9000E+01
       13  1    4    4    0    0 0.10639665E+03 0.66180633E+02 -.40484564E+03 0.42379255E+03 0.10565837E+00 0.0000E+00 0.9000E+01
       23  1    3    3    0    0 -.13745608E+02 -.58119441E+00 -.23996993E+02 0.95291062E+02 0.91188000E+02 0.0000E+00 0.9000E+01
       21  1    1    2  501  502 -.89340815E+01 -.12720620E+02 -.27745687E+02 0.31812224E+02 0.75000000E+00 0.0000E+00 0.9000E+01
#aMCatNLO 2  0  0  1  2 0.15544517D+02 0.00000000D+00  -5  7  0 0.00000000D+00 0.00000000D+00 0.00000000D+00 0.00000000D+00 0.00000000D+00
  <mgrwgt>
 -.9091803194D-04    3    2    0
 0.304662009048027D+03 0.000000000000000D+00 0.000000000000000D+00 0.304662009048027D+03
 0.304662009048027D+03 0.000000000000000D+00 0.000000000000000D+00 -.304662009048027D+03
 0.222856952398532D+03 -.178557629228231D+03 -.771696370119161D+02 -.592620456633434D+02
 0.938351485629657D+02 0.902158150778463D+02 0.177057796170049D+02 0.187789026257589D+02
 0.143712003944516D+03 0.104268654172445D+03 0.631507551706346D+02 -.761128764151920D+02
 0.148919913190040D+03 -.159268400220599D+02 -.368689777572347D+01 0.116596019452777D+03
 0.000000000000000D+00 -.000000000000000D+00 -.000000000000000D+00 -.000000000000000D+00
 0.312317000347530D+03 0.000000000000000D+00 0.000000000000000D+00 0.312317000347530D+03
 0.312755977916409D+03 0.000000000000000D+00 0.000000000000000D+00 -.312755977916409D+03
 0.218700356927091D+03 -.175321036538307D+03 -.725612766354515D+02 -.592620456633434D+02
 0.955580847991777D+02 0.916040578759494D+02 0.196824024783264D+02 0.187789026257589D+02
 0.146605951633070D+03 0.106396670067394D+03 0.661806897562568D+02 -.761128764151920D+02
 0.148657871224471D+03 -.137456099498166D+02 -.581195205186557D+00 0.116596019452777D+03
 0.155507136801287D+02 -.893408145522040D+01 -.127206203939451D+02 -.438977568878643D+00
-.200801056946D-05 0.000000000000D+00 0.000000000000D+00 0.287941572247D-07 0.000000000000D+00  7 -2 2 23 -13 13 23 21 2 0.13077470D-01 0.17438668D+00 0.72166777D+05 0.72166777D+05 0.72166777D+05 0.11335359D+01  1  2 13  1  7  1       -2 -.272692747219D-03 0.100000000000D+01
-.152550051645D-05 0.000000000000D+00 0.000000000000D+00 0.287941572247D-07 0.000000000000D+00  7 -2 2 23 -13 13 23 21 2 0.12597855D-01 0.17438668D+00 0.67941865D+05 0.67941865D+05 0.67941865D+05 0.11357630D+01  1  2  8  1  7  1       -2 -.220607289471D-03 0.100000000000D+01
0.302281656682D-05 0.000000000000D+00 0.000000000000D+00 0.287941572247D-07 0.816986892042D-09  7 -2 2 23 -13 13 23 21 2 0.12914390D-01 0.17901961D+00 0.72166777D+05 0.72166777D+05 0.72166777D+05 0.11335359D+01  1  2  1  1  7  1       -2 0.402382004752D-03 0.100000000000D+01
  </mgrwgt>
  </event>
  <event>
  8     66 0.53686478E-06 0.28530821E+03 0.75467711E-02 0.91913135E-01
       -2 -1    0    0    0  501 0.00000000E+00 0.00000000E+00 0.37765095E+02 0.37766451E+02 0.32000000E+00 0.0000E+00 0.9000E+01
        2 -1    0    0  501    0 0.00000000E+00 0.00000000E+00 -.27745941E+04 0.27745941E+04 0.32000000E+00 0.0000E+00 0.9000E+01
       25  2    1    2    0    0 -.12501534E+03 0.17675446E+03 -.21215219E+04 0.21536002E+04 0.30044645E+03 0.0000E+00 0.0000E+00
       23  2    1    2    0    0 0.12501534E+03 -.17675446E+03 -.61530715E+03 0.65876033E+03 0.92148265E+02 0.0000E+00 0.0000E+00
       23  1    3    3    0    0 -.75155362E+02 -.23309695E+02 -.11486676E+04 0.11549650E+04 0.91188000E+02 0.0000E+00 0.9000E+01
      -13  1    4    4    0    0 0.62996573E+02 -.40159741E+02 -.12113763E+03 0.14232255E+03 0.10565837E+00 0.0000E+00 0.9000E+01
       13  1    4    4    0    0 0.62018766E+02 -.13659471E+03 -.49416953E+03 0.51643777E+03 0.10565837E+00 0.0000E+00 0.9000E+01
       23  1    3    3    0    0 -.49859977E+02 0.20006415E+03 -.97285429E+03 0.99863527E+03 0.91188000E+02 0.0000E+00 0.9000E+01
#aMCatNLO 1  0  0  2  2 0.52910467D+03 0.00000000D+00  -5  7  0 0.00000000D+00 0.00000000D+00 0.00000000D+00 0.00000000D+00 0.00000000D+00
  <mgrwgt>
 0.3434533994D-03    3    2    0
 0.323704715958143D+03 0.000000000000000D+00 0.000000000000000D+00 0.323704715958143D+03
 0.323704715958143D+03 0.000000000000000D+00 0.000000000000000D+00 -.323704715958143D+03
 0.161368130319974D+03 -.751553619162136D+02 -.233096946287271D+02 -.107390650666259D+03
 0.106160518732441D+03 0.629965739724563D+02 -.401596161784682D+02 0.754234223147678D+02
 0.154387282258956D+03 0.620187652268246D+02 -.136594840486672D+03 0.364822591880931D+02
 0.225493500604915D+03 -.498599772830672D+02 0.200064151293867D+03 -.451503083660186D+01
 0.000000000000000D+00 0.000000000000000D+00 -.000000000000000D+00 0.000000000000000D+00
 0.193758163428926D+04 0.000000000000000D+00 0.000000000000000D+00 0.193758163428926D+04
 0.464117362582234D+03 0.000000000000000D+00 0.000000000000000D+00 -.464117362582234D+03
 0.261818743761668D+03 -.219790617416623D+03 0.198276545772671D+02 -.107390650666259D+03
 0.783864271714931D+02 -.772033760495390D-01 -.213479125602178D+02 0.754234223147678D+02
 0.118910701854652D+03 -.313880159872652D+02 -.108736342740051D+03 0.364822591880931D+02
 0.377000578387413D+03 -.255778190700357D+03 0.261479093655766D+03 -.451503083660186D+01
 0.156558254569627D+04 0.507034027480295D+03 -.151222492932764D+03 0.147346427170703D+04
0.743380041038D-05 0.000000000000D+00 0.000000000000D+00 0.182867941096D-06 0.000000000000D+00  7 -2 2 23 -13 13 23 21 0 0.58101204D-02 0.42686074D+00 0.81400775D+05 0.81400775D+05 0.81400775D+05 0.11291306D+01  1  2  2  2  7  2        2 0.338762557533D-03 0.100000000000D+01
-.404983879361D-06 0.000000000000D+00 -.285477509405D-07 0.182867941096D-06 0.000000000000D+00  7 -2 2 23 -13 13 23 21 2 0.58101204D-02 0.42686074D+00 0.81400775D+05 0.81400775D+05 0.81400775D+05 0.11291306D+01  1  2  3  2  7  2        2 -.235293872430D-04 0.100000000000D+01
0.485721865183D-06 0.000000000000D+00 0.000000000000D+00 0.182867941096D-06 0.000000000000D+00  7 -2 2 23 -13 13 23 21 2 0.58101204D-02 0.42686074D+00 0.81400775D+05 0.81400775D+05 0.81400775D+05 0.11291306D+01  1  2 15  2  7  2        2 0.282202291023D-04 0.100000000000D+01
  </mgrwgt>
  </event>
  <event>
  8     66 0.53686478E-06 0.28030657E+03 0.75467711E-02 0.93784786E-01
       -2 -1    0    0    0  501 0.00000000E+00 0.00000000E+00 0.22008835E+03 0.22008858E+03 0.32000000E+00 0.0000E+00 0.9000E+01
        2 -1    0    0  501    0 0.00000000E+00 0.00000000E+00 -.46868033E+03 0.46868044E+03 0.32000000E+00 0.0000E+00 0.9000E+01
       25  2    1    2    0    0 0.17175277E+03 -.14693727E+03 -.23979508E+03 0.44515074E+03 0.29927901E+03 0.0000E+00 0.0000E+00
       23  2    1    2    0    0 -.17175277E+03 0.14693727E+03 -.87969009E+01 0.24361828E+03 0.90459418E+02 0.0000E+00 0.0000E+00
       23  1    3    3    0    0 0.39746307E+02 -.12101667E+03 -.14371422E+01 0.15665925E+03 0.91188000E+02 0.0000E+00 0.9000E+01
      -11  1    4    4    0    0 0.81991058E+01 0.18855547E+02 0.80881133E+01 0.22094673E+02 0.51099893E-03 0.0000E+00 0.9000E+01
       11  1    4    4    0    0 -.17995188E+03 0.12808172E+03 -.16885014E+02 0.22152361E+03 0.51099893E-03 0.0000E+00 0.9000E+01
       23  1    3    3    0    0 0.13200647E+03 -.25920593E+02 -.23835793E+03 0.28849149E+03 0.91188000E+02 0.0000E+00 0.9000E+01
#aMCatNLO 1  0  0  1  2 0.39110951D+03 0.00000000D+00  -5  7  0 0.00000000D+00 0.00000000D+00 0.00000000D+00 0.00000000D+00 0.00000000D+00
  <mgrwgt>
 0.2843126350D-03    3    2    0
 0.321171602987544D+03 0.000000000000000D+00 0.000000000000000D+00 0.321171602987544D+03
 0.321171602987544D+03 0.000000000000000D+00 0.000000000000000D+00 -.321171602987544D+03
 0.167425724799559D+03 0.397463074104878D+02 -.121016673005603D+03 0.590873749843692D+02
 0.268217459395543D+02 0.819910583164909D+01 0.188555470851664D+02 0.172235032129497D+02
 0.230999749414195D+03 -.179951878255246D+03 0.128081718572264D+03 0.676260239065233D+02
 0.217095985821779D+03 0.132006465013109D+03 -.259205926518269D+02 -.143936902103842D+03
 0.000000000000000D+00 -.000000000000000D+00 0.000000000000000D+00 -.000000000000000D+00
 0.496377611535653D+03 0.000000000000000D+00 0.000000000000000D+00 0.496377611535653D+03
 0.693762448454166D+03 0.000000000000000D+00 0.000000000000000D+00 -.693762448454166D+03
 0.270494362583383D+03 0.109121596850744D+03 -.222380547853429D+03 0.590873749843692D+02
 0.247478620447083D+02 0.163687618563572D+02 0.691890512633976D+01 0.172235032129497D+02
 0.144209625756062D+03 -.120511218296727D+03 0.412332792285098D+02 0.676260239065233D+02
 0.312592989962154D+03 0.215919779490024D+03 -.148525900324514D+03 -.143936902103842D+03
 0.438095219643512D+03 -.220898919900398D+03 0.322754263823093D+03 -.197384836918513D+03
0.434403077550D-05 0.000000000000D+00 0.000000000000D+00 0.126703202492D-06 0.000000000000D+00  7 -2 2 23 -11 11 23 21 0 0.33859773D-01 0.72104692D-01 0.78571773D+05 0.78571773D+05 0.78571773D+05 0.11304193D+01  1  2  2  1  7  1       -2 0.281474324141D-03 0.100000000000D+01
-.235900475429D-06 0.000000000000D+00 -.166822219875D-07 0.126703202492D-06 0.000000000000D+00  7 -2 2 23 -11 11 23 21 2 0.33859773D-01 0.72104692D-01 0.78571773D+05 0.78571773D+05 0.78571773D+05 0.11304193D+01  1  2  3  1  7  1       -2 -.195323207822D-04 0.100000000000D+01
0.270180010389D-06 0.000000000000D+00 0.000000000000D+00 0.126703202492D-06 0.000000000000D+00  7 -2 2 23 -11 11 23 21 2 0.33859773D-01 0.72104692D-01 0.78571773D+05 0.78571773D+05 0.78571773D+05 0.11304193D+01  1  2 15  1  7  1       -2 0.223706316075D-04 0.100000000000D+01
  </mgrwgt>
  </event>
  <event>
  9     66 0.53686478E-06 0.33434672E+03 0.75467711E-02 0.96090704E-01
       21 -1    0    0  502  501 0.00000000E+00 0.00000000E+00 0.28781112E+03 0.28781210E+03 0.75000000E+00 0.0000E+00 0.9000E+01
        2 -1    0    0  501    0 0.00000000E+00 0.00000000E+00 -.10184768E+04 0.10184768E+04 0.32000000E+00 0.0000E+00 0.9000E+01
       25  2    1    2    0    0 -.18124775E+03 0.28292622E+03 -.71148519E+03 0.84190549E+03 0.29949238E+03 0.0000E+00 0.0000E+00
       23  2    1    2    0    0 0.22716530E+03 -.95472836E+02 0.32046320E+02 0.26470501E+03 0.91228501E+02 0.0000E+00 0.0000E+00
       23  1    3    3    0    0 -.10210310E+02 0.11911649E+02 -.29132693E+03 0.30566774E+03 0.91188000E+02 0.0000E+00 0.9000E+01
      -11  1    4    4    0    0 0.22590606E+03 -.10720820E+03 0.25883951E+02 0.25139038E+03 0.51099893E-03 0.0000E+00 0.9000E+01
       11  1    4    4    0    0 0.12592438E+01 0.11735367E+02 0.61623688E+01 0.13314628E+02 0.51099893E-03 0.0000E+00 0.9000E+01
       23  1    3    3    0    0 -.17103744E+03 0.27101457E+03 -.42015826E+03 0.53623774E+03 0.91188000E+02 0.0000E+00 0.9000E+01
        2  1    1    2  502    0 -.45917552E+02 -.18745338E+03 -.51226796E+02 0.19967844E+03 0.32000000E+00 0.0000E+00 0.9000E+01
#aMCatNLO 2  0  0  1  2 0.19299532D+03 0.00000000D+00  -5  7  0 0.00000000D+00 0.00000000D+00 0.00000000D+00 0.00000000D+00 0.00000000D+00
  <mgrwgt>
 0.5138473182D-04    2    2    0
 0.425940847822275D+03 0.000000000000000D+00 0.000000000000000D+00 0.425940847822275D+03
 0.425940847822275D+03 0.000000000000000D+00 0.000000000000000D+00 -.425940847822275D+03
 0.162642593012829D+03 -.188140374550317D+02 -.232121297091913D+02 -.131318661076563D+03
 0.358619380106200D+03 0.207350009556104D+03 -.182961238041493D+03 0.228339700225701D+03
 0.195607024184205D+02 0.162166945605829D+00 0.725667051749518D+01 0.181641271186994D+02
 0.311059020107099D+03 -.188698139046678D+03 0.198916697233189D+03 -.115185166267837D+03
 0.000000000000000D+00 -.000000000000000D+00 -.000000000000000D+00 0.000000000000000D+00
 0.588509908197308D+03 0.000000000000000D+00 0.000000000000000D+00 0.588509908197308D+03
 0.498087595684029D+03 0.000000000000000D+00 0.000000000000000D+00 -.498087595684029D+03
 0.160642397531502D+03 -.102103096720692D+02 0.119116485059032D+02 -.131318661076563D+03
 0.338623927125470D+03 0.225906056973626D+03 -.107208202789440D+03 0.228339700225701D+03
 0.216619491694546D+02 0.125924377604207D+01 0.117353667581488D+02 0.181641271186994D+02
 0.352541597692086D+03 -.171037439542700D+03 0.271014572497157D+03 -.115185166267837D+03
 0.213127632362825D+03 -.459175515348992D+02 -.187453384971769D+03 0.904223125132788D+02
-.125026456714D-06 0.000000000000D+00 0.000000000000D+00 0.991246448166D-06 0.000000000000D+00  7 21 2 23 -11 11 23 2 2 0.46167254D-01 0.13399280D+00 0.19385250D+06 0.19385250D+06 0.19385250D+06 0.10988682D+01  1  2 13  3  7  1       -2 -.278486708910D-04 0.100000000000D+01
0.403866573270D-06 0.000000000000D+00 0.000000000000D+00 0.991246448166D-06 0.857302700067D-11  7 21 2 23 -11 11 23 2 2 0.44278703D-01 0.15668878D+00 0.19385250D+06 0.19385250D+06 0.19385250D+06 0.10988682D+01  1  2  1  3  7  1       -2 0.792334027159D-04 0.100000000000D+01
  </mgrwgt>
  </event>
  <event>
  8     66 0.53686478E-06 0.29349873E+03 0.75467711E-02 0.87645749E-01
       -2 -1    0    0    0  501 0.00000000E+00 0.00000000E+00 0.19105255E+03 0.19105282E+03 0.32000000E+00 0.0000E+00 0.9000E+01
        2 -1    0    0  501    0 0.00000000E+00 0.00000000E+00 -.80442647E+03 0.80442653E+03 0.32000000E+00 0.0000E+00 0.9000E+01
       25  2    1    2    0    0 -.19375891E+02 -.21063997E+03 -.66558121E+03 0.75961066E+03 0.29877313E+03 0.0000E+00 0.0000E+00
       23  2    1    2    0    0 0.19375891E+02 0.21063997E+03 0.52207294E+02 0.23586869E+03 0.90353842E+02 0.0000E+00 0.0000E+00
       23  1    3    3    0    0 0.85259150E+02 -.18612148E+03 -.43578116E+03 0.49003143E+03 0.91188000E+02 0.0000E+00 0.9000E+01
      -11  1    4    4    0    0 0.44638188E+02 0.13150474E+03 0.21666037E+01 0.13889118E+03 0.51099893E-03 0.0000E+00 0.9000E+01
       11  1    4    4    0    0 -.25262296E+02 0.79135229E+02 0.50040690E+02 0.96977516E+02 0.51099893E-03 0.0000E+00 0.9000E+01
       23  1    3    3    0    0 -.10463504E+03 -.24518494E+02 -.22980005E+03 0.26957923E+03 0.91188000E+02 0.0000E+00 0.9000E+01
#aMCatNLO 1  0  0  1  2 0.88852335D+03 0.00000000D+00  -5  7  0 0.00000000D+00 0.00000000D+00 0.00000000D+00 0.00000000D+00 0.00000000D+00
  <mgrwgt>
 0.2861170080D-03    3    2    0
 0.392030476357004D+03 0.000000000000000D+00 0.000000000000000D+00 0.392030476357004D+03
 0.392030476357004D+03 0.000000000000000D+00 0.000000000000000D+00 -.392030476357004D+03
 0.281252837829479D+03 0.852591502704066D+02 -.186121475970661D+03 -.169934048738932D+03
 0.178037481374906D+03 0.446381876360453D+02 0.131504741835656D+03 0.111405923781578D+03
 0.162274078946728D+03 -.252622963209832D+02 0.791352285040689D+02 0.139399815969063D+03
 0.162496554562895D+03 -.104635041585469D+03 -.245184943690631D+02 -.808716910117082D+02
 0.000000000000000D+00 0.000000000000000D+00 0.000000000000000D+00 -.000000000000000D+00
 0.850552866625237D+03 0.000000000000000D+00 0.000000000000000D+00 0.850552866625237D+03
 0.135733749934518D+04 0.000000000000000D+00 0.000000000000000D+00 -.135733749934518D+04
 0.378691203289657D+03 -.204810738174767D+03 -.253508888823389D+03 -.169934048738932D+03
 0.186083145087268D+03 -.115406335713780D+03 0.943240940007423D+02 0.111405923781578D+03
 0.252847157392291D+03 -.207723479714477D+03 0.367468676823336D+02 0.139399815969063D+03
 0.367378633369216D+03 -.337534843806103D+03 -.786244727926968D+02 -.808716910117082D+02
 0.102289022683199D+04 0.865475397409127D+03 0.201062399933010D+03 -.506784632719947D+03
0.637421614403D-05 0.000000000000D+00 0.000000000000D+00 0.859164313033D-07 0.000000000000D+00  7 -2 2 23 -11 11 23 21 0 0.29392726D-01 0.12375794D+00 0.86141507D+05 0.86141507D+05 0.86141507D+05 0.11270777D+01  1  2  2  1  7  1       -2 0.282701223738D-03 0.100000000000D+01
-.318046014906D-06 0.000000000000D+00 -.244786683627D-07 0.859164313033D-07 0.000000000000D+00  7 -2 2 23 -11 11 23 21 2 0.29392726D-01 0.12375794D+00 0.86141507D+05 0.86141507D+05 0.86141507D+05 0.11270777D+01  1  2  3  1  7  1       -2 -.179183731056D-04 0.100000000000D+01
0.378675211440D-06 0.000000000000D+00 0.000000000000D+00 0.859164313033D-07 0.000000000000D+00  7 -2 2 23 -11 11 23 21 2 0.29392726D-01 0.12375794D+00 0.86141507D+05 0.86141507D+05 0.86141507D+05 0.11270777D+01  1  2 15  1  7  1       -2 0.213341573433D-04 0.100000000000D+01
  </mgrwgt>
  </event>
  <event>
  8     66 0.53686478E-06 0.17933738E+03 0.75467711E-02 0.91180248E-01
       -2 -1    0    0    0  501 0.00000000E+00 0.00000000E+00 0.31528752E+03 0.31528768E+03 0.32000000E+00 0.0000E+00 0.9000E+01
        2 -1    0    0  501    0 0.00000000E+00 0.00000000E+00 -.79076073E+03 0.79076080E+03 0.32000000E+00 0.0000E+00 0.9000E+01
       25  2    1    2    0    0 -.40884310E+01 0.25076300E+02 -.74733435E+03 0.80598271E+03 0.30075566E+03 0.0000E+00 0.0000E+00
       23  2    1    2    0    0 0.40884310E+01 -.25076300E+02 0.27186114E+03 0.30006576E+03 0.12444054E+03 0.0000E+00 0.0000E+00
       23  1    3    3    0    0 0.75540755E+02 0.29841022E+02 -.61316244E+03 0.62520423E+03 0.91188000E+02 0.0000E+00 0.9000E+01
      -13  1    4    4    0    0 0.60115188E+01 0.44950309E+02 0.17336420E+03 0.17919773E+03 0.10565837E+00 0.0000E+00 0.9000E+01
       13  1    4    4    0    0 -.19230878E+01 -.70026608E+02 0.98496943E+02 0.12086804E+03 0.10565837E+00 0.0000E+00 0.9000E+01
       23  1    3    3    0    0 -.79629186E+02 -.47647225E+01 -.13417191E+03 0.18077849E+03 0.91188000E+02 0.0000E+00 0.9000E+01
#aMCatNLO 1  0  0  1  2 0.62952419D+03 0.00000000D+00  -5  7  0 0.00000000D+00 0.00000000D+00 0.00000000D+00 0.00000000D+00 0.00000000D+00
  <mgrwgt>
 0.2908374438D-03    5    2    0
 0.499316649368105D+03 0.000000000000000D+00 0.000000000000000D+00 0.499316649368105D+03
 0.499316649368105D+03 0.000000000000000D+00 0.000000000000000D+00 -.499316649368105D+03
 0.400511264901233D+03 0.755407547936340D+02 0.298410230159046D+02 -.381440860002383D+03
 0.281015531890937D+03 0.601152002773942D+01 0.449503119187436D+02 0.277332039709281D+03
 0.180765536412537D+03 -.192308879390268D+01 -.700266128401150D+02 0.166639594269020D+03
 0.136340965531505D+03 -.796291860274707D+02 -.476472209453316D+01 -.625307739759173D+02
 0.000000000000000D+00 -.000000000000000D+00 0.000000000000000D+00 0.000000000000000D+00
 0.399837528433721D+04 0.000000000000000D+00 0.000000000000000D+00 0.399837528433721D+04
 0.619317918338284D+03 0.000000000000000D+00 0.000000000000000D+00 -.619317918338284D+03
 0.479826281391666D+03 0.197713319071878D+03 -.193210565840428D+03 -.381440860002383D+03
 0.309159756491924D+03 0.879155904141646D+02 -.104582712467045D+03 0.277332039709281D+03
 0.251819033494108D+03 0.581106634812870D+02 -.179630793689522D+03 0.166639594269020D+03
 0.139690234195203D+03 -.413217894687058D+02 -.747028928930294D+02 -.625307739759173D+02
 0.343719789710259D+04 -.302417783498624D+03 0.552126964890025D+03 0.337905736599893D+04
0.145775275331D-04 0.000000000000D+00 0.000000000000D+00 0.130520049354D-08 0.000000000000D+00  7 -2 2 23 -13 13 23 21 0 0.48505790D-01 0.12165551D+00 0.32161894D+05 0.32161894D+05 0.32161894D+05 0.11645424D+01  1  2  2  1  7  1       -2 0.269284973853D-03 0.100000000000D+01
0.222586652226D-06 0.000000000000D+00 -.559815440783D-07 0.130520049354D-08 0.000000000000D+00  7 -2 2 23 -13 13 23 21 2 0.48505790D-01 0.12165551D+00 0.32161894D+05 0.32161894D+05 0.32161894D+05 0.11645424D+01  1  2  3  1  7  1       -2 0.557619501270D-05 0.100000000000D+01
0.829432059009D-06 0.000000000000D+00 0.000000000000D+00 0.130520049354D-08 0.000000000000D+00  7 -2 2 23 -13 13 23 21 2 0.48505790D-01 0.12165551D+00 0.32161894D+05 0.32161894D+05 0.32161894D+05 0.11645424D+01  1  2 15  1  7  1       -2 0.207787612804D-04 0.100000000000D+01
-.362544848760D-04 0.000000000000D+00 -.862572123541D-05 0.130520049354D-08 0.000000000000D+00  7 -2 2 23 -13 13 23 21 2 0.40622399D+00 0.12165551D+00 0.32161894D+05 0.32161894D+05 0.32161894D+05 0.11645424D+01  1  2  5  1  7  1       -2 -.143449004882D-05 0.100000000000D+01
-.104264509906D-04 0.000000000000D+00 -.221777473887D-05 0.130520049354D-08 0.000000000000D+00  7 21 2 23 -13 13 23 2 2 0.40622399D+00 0.12165551D+00 0.32161894D+05 0.32161894D+05 0.32161894D+05 0.11645424D+01  1  2  5  3  7  1       -2 -.336799631613D-05 0.100000000000D+01
  </mgrwgt>
  </event>
  <event>
  9     66 0.53686478E-06 0.36747041E+03 0.75467711E-02 0.97899884E-01
       21 -1    0    0  502  501 0.00000000E+00 0.00000000E+00 0.98444187E+03 0.98444216E+03 0.75000000E+00 0.0000E+00 0.9000E+01
        2 -1    0    0  501    0 0.00000000E+00 0.00000000E+00 -.31067879E+03 0.31067895E+03 0.32000000E+00 0.0000E+00 0.9000E+01
       25  2    1    2    0    0 -.31535312E+03 -.25131082E+02 0.82253293E+03 0.93116018E+03 0.30069870E+03 0.0000E+00 0.0000E+00
       23  2    1    2    0    0 0.29361497E+03 0.18635035E+02 -.14360660E+03 0.34069061E+03 0.94287982E+02 0.0000E+00 0.0000E+00
       23  1    3    3    0    0 -.30783225E+02 -.81553114E+02 0.17451919E+03 0.21533861E+03 0.91188000E+02 0.0000E+00 0.9000E+01
      -13  1    4    4    0    0 0.18714434E+02 0.21842910E+02 0.33507086E+01 0.28958266E+02 0.10565837E+00 0.0000E+00 0.9000E+01
       13  1    4    4    0    0 0.27490054E+03 -.32078741E+01 -.14695731E+03 0.31173235E+03 0.10565837E+00 0.0000E+00 0.9000E+01
       23  1    3    3    0    0 -.28456990E+03 0.56422031E+02 0.64801374E+03 0.71582158E+03 0.91188000E+02 0.0000E+00 0.9000E+01
        2  1    1    2  502    0 0.21738155E+02 0.64960470E+01 -.51632423E+01 0.23270313E+02 0.32000000E+00 0.0000E+00 0.9000E+01
#aMCatNLO 2  0  0  1  2 0.22688014D+02 0.00000000D+00  -5  7  0 0.00000000D+00 0.00000000D+00 0.00000000D+00 0.00000000D+00 0.00000000D+00
  <mgrwgt>
 0.2551109893D-04    1    2    0
 0.537621790020416D+03 0.000000000000000D+00 0.000000000000000D+00 0.537621790020416D+03
 0.537621790020416D+03 0.000000000000000D+00 0.000000000000000D+00 -.537621790020416D+03
 0.143403752907352D+03 -.278734149718835D+02 -.806835705891515D+02 0.704458599117324D+02
 0.326473303312779D+02 0.193688386763229D+02 0.220385934763407D+02 -.143177045532709D+02
 0.467062359247743D+03 0.284285371356823D+03 -.403516058563181D+00 -.370579157850750D+03
 0.432130137554461D+03 -.275780795061263D+03 0.590484931713740D+02 0.314451002492288D+03
 0.000000000000000D+00 0.000000000000000D+00 0.000000000000000D+00 -.000000000000000D+00
 0.542731935843441D+03 0.000000000000000D+00 0.000000000000000D+00 0.542731935843441D+03
 0.563527866238285D+03 0.000000000000000D+00 0.000000000000000D+00 -.563527866238285D+03
 0.144486635481413D+03 -.307832251439952D+02 -.815531137343605D+02 0.704458599117324D+02
 0.321298728127290D+02 0.187141125297353D+02 0.218429406333440D+02 -.143177045532709D+02
 0.461421373806600D+03 0.274900857249901D+03 -.320790515273879D+01 -.370579157850750D+03
 0.437445033812056D+03 -.284569899460403D+03 0.564220312955972D+02 0.314451002492288D+03
 0.307768861689278D+02 0.217381548247621D+02 0.649604695815806D+01 -.207959303948445D+02
0.634855726395D-06 0.000000000000D+00 0.000000000000D+00 0.192440111149D-06 0.446206455266D-11  7 21 2 23 -13 13 23 2 2 0.15145240D+00 0.47796699D-01 0.14311993D+06 0.14311993D+06 0.14311993D+06 0.11091646D+01  1  2  1  3  7  1       -2 0.255110989349D-04 0.100000000000D+01
  </mgrwgt>
  </event>
  <event>
  9     66 -.53686478E-06 0.36693798E+03 0.75467711E-02 0.96953626E-01
       -2 -1    0    0    0  502 0.00000000E+00 0.00000000E+00 0.45948273E+03 0.45948284E+03 0.32000000E+00 0.0000E+00 0.9000E+01
        2 -1    0    0  501    0 0.00000000E+00 0.00000000E+00 -.40747935E+03 0.40747948E+03 0.32000000E+00 0.0000E+00 0.9000E+01
       25  2    1    2    0    0 0.27136688E+03 -.16573962E+02 -.58384580E+02 0.40917006E+03 0.30016113E+03 0.0000E+00 0.0000E+00
       23  2    1    2    0    0 -.34893259E+03 0.41413655E+02 0.87099214E+02 0.37307875E+03 0.90180004E+02 0.0000E+00 0.0000E+00
       23  1    3    3    0    0 0.27084090E+03 -.41096547E+01 -.10687773E+03 0.30513895E+03 0.91188000E+02 0.0000E+00 0.9000E+01
      -11  1    4    4    0    0 -.15098297E+03 0.55292604E+02 0.64946650E+02 0.17341049E+03 0.51099893E-03 0.0000E+00 0.9000E+01
       11  1    4    4    0    0 -.19794962E+03 -.13878949E+02 0.22152564E+02 0.19966826E+03 0.51099893E-03 0.0000E+00 0.9000E+01
       23  1    3    3    0    0 0.52598253E+00 -.12464308E+02 0.48493146E+02 0.10403111E+03 0.91188000E+02 0.0000E+00 0.9000E+01
       21  1    1    2  501  502 0.77565716E+02 -.24839693E+02 0.23288744E+02 0.84713510E+02 0.75000000E+00 0.0000E+00 0.9000E+01
#aMCatNLO 2  0  0  1  2 0.81445999D+02 0.00000000D+00  -5  7  0 0.00000000D+00 0.00000000D+00 0.00000000D+00 0.00000000D+00 0.00000000D+00
  <mgrwgt>
 -.5775181299D-05    2    2    0
 0.388733591981731D+03 0.000000000000000D+00 0.000000000000000D+00 0.388733591981731D+03
 0.388733591981731D+03 0.000000000000000D+00 0.000000000000000D+00 -.388733591981731D+03
 0.338115348077661D+03 0.303046718050612D+03 -.144232672350432D+02 -.118158339962516D+03
 0.155248579073485D+03 -.134745874346119D+03 0.500928255499561D+02 0.586206403876463D+02
 0.180772646916753D+03 -.179057425941845D+03 -.199289970932846D+02 0.148331777858127D+02
 0.103330609895563D+03 0.107565822373521D+02 -.157405612216283D+02 0.447045217890570D+02
 0.000000000000000D+00 0.000000000000000D+00 -.000000000000000D+00 0.000000000000000D+00
 0.442913026123507D+03 0.000000000000000D+00 0.000000000000000D+00 0.442913026123507D+03
 0.422720398321520D+03 0.000000000000000D+00 0.000000000000000D+00 -.422720398321520D+03
 0.309270633382457D+03 0.270840895664129D+03 -.410965472281133D+01 -.118158339962516D+03
 0.171141782334671D+03 -.150982972938311D+03 0.552926040618397D+02 0.586206403876463D+02
 0.198989198235303D+03 -.197949621454861D+03 -.138789486986705D+02 0.148331777858127D+02
 0.102319994306065D+03 0.525982529813488D+00 -.124643076335320D+02 0.447045217890570D+02
 0.839118161865315D+02 0.775657161992289D+02 -.248396930068259D+02 0.201926278019869D+02
-.359432861259D-05 0.000000000000D+00 0.000000000000D+00 0.243994813760D-06 0.000000000000D+00  7 -2 2 23 -11 11 23 21 2 0.73091006D-01 0.57648705D-01 0.16749266D+06 0.16749266D+06 0.16749266D+06 0.11037913D+01  1  2 13  1  7  1       -2 -.790902577215D-04 0.100000000000D+01
0.339812543835D-05 0.000000000000D+00 0.000000000000D+00 0.243994813760D-06 0.243695331286D-09  7 -2 2 23 -11 11 23 21 2 0.70689394D-01 0.62688905D-01 0.16749266D+06 0.16749266D+06 0.16749266D+06 0.11037913D+01  1  2  1  1  7  1       -2 0.733150764225D-04 0.100000000000D+01
  </mgrwgt>
  </event>
  <event>
  8     66 0.53686478E-06 0.11776289E+03 0.75467711E-02 0.10527439E+00
       -2 -1    0    0    0  501 0.00000000E+00 0.00000000E+00 0.13939878E+03 0.13939915E+03 0.32000000E+00 0.0000E+00 0.9000E+01
        2 -1    0    0  501    0 0.00000000E+00 0.00000000E+00 -.38924391E+03 0.38924404E+03 0.32000000E+00 0.0000E+00 0.9000E+01
       25  2    1    2    0    0 -.81906101E+02 0.77373261E+02 -.18459881E+03 0.37014944E+03 0.30039750E+03 0.0000E+00 0.0000E+00
       23  2    1    2    0    0 0.81906101E+02 -.77373261E+02 -.65246316E+02 0.15849375E+03 0.90376751E+02 0.0000E+00 0.0000E+00
       23  1    3    3    0    0 -.10217586E+03 -.21349397E+02 -.18874903E+03 0.23417333E+03 0.91188000E+02 0.0000E+00 0.9000E+01
      -13  1    4    4    0    0 0.50583645E+02 -.93285205E+02 -.62728949E+02 0.12327111E+03 0.10565837E+00 0.0000E+00 0.9000E+01
       13  1    4    4    0    0 0.31322456E+02 0.15911944E+02 -.25173668E+01 0.35222642E+02 0.10565837E+00 0.0000E+00 0.9000E+01
       23  1    3    3    0    0 0.20269760E+02 0.98722657E+02 0.41502171E+01 0.13597611E+03 0.91188000E+02 0.0000E+00 0.9000E+01
#aMCatNLO 1  0  0  2  1 0.15184452D+02 0.00000000D+00  -5  7  0 0.00000000D+00 0.00000000D+00 0.00000000D+00 0.00000000D+00 0.00000000D+00
  <mgrwgt>
 0.1438411097D-03    9    2    0
 0.232938318268503D+03 0.000000000000000D+00 0.000000000000000D+00 0.232938318268503D+03
 0.232938318268503D+03 0.000000000000000D+00 0.000000000000000D+00 -.232938318268503D+03
 0.164498726123159D+03 -.102175861418391D+03 -.213493892687408D+02 -.885938850790706D+02
 0.106238334567857D+03 0.505836774151711D+02 -.932853586348805D+02 -.507121043454703D+01
 0.386179811777521D+02 0.313224312443432D+02 0.159120904240999D+02 0.160330642587085D+02
 0.156521594668238D+03 0.202697527588768D+02 0.987226574795214D+02 0.776320312549091D+02
 0.000000000000000D+00 -.000000000000000D+00 0.000000000000000D+00 -.000000000000000D+00
 0.235377403750561D+03 0.000000000000000D+00 0.000000000000000D+00 0.235377403750561D+03
 0.257957119697463D+03 0.000000000000000D+00 0.000000000000000D+00 -.257957119697463D+03
 0.164154269309065D+03 -.100424318465906D+03 -.264093274364888D+02 -.885938850790706D+02
 0.109707263310416D+03 0.517345508145947D+02 -.966100548587029D+02 -.507121043454703D+01
 0.384823451781388D+02 0.317333343401308D+02 0.147250545854004D+02 0.160330642587085D+02
 0.153780148664248D+03 0.219234934496106D+02 0.939452550020486D+02 0.776320312549091D+02
 0.272104969861563D+02 -.496706013843005D+01 0.143490727077427D+02 -.225797159469014D+02
0.611045314900D-06 0.000000000000D+00 0.000000000000D+00 0.523518724192D-07 0.000000000000D+00  7 -2 2 23 -13 13 23 21 0 0.21446005D-01 0.59883717D-01 0.43215347D+05 0.43215347D+05 0.43215347D+05 0.11529081D+01  1  2  2  2  7  2        2 0.105927826378D-03 0.100000000000D+01
-.334124551664D-07 0.000000000000D+00 -.234657490114D-08 0.523518724192D-07 0.000000000000D+00  7 -2 2 23 -13 13 23 21 2 0.21446005D-01 0.59883717D-01 0.43215347D+05 0.43215347D+05 0.43215347D+05 0.11529081D+01  1  2  3  2  7  2        2 -.769900103460D-05 0.100000000000D+01
0.397223470610D-07 0.000000000000D+00 0.000000000000D+00 0.523518724192D-07 0.000000000000D+00  7 -2 2 23 -13 13 23 21 2 0.21446005D-01 0.59883717D-01 0.43215347D+05 0.43215347D+05 0.43215347D+05 0.11529081D+01  1  2 15  2  7  2        2 0.915294579810D-05 0.100000000000D+01
0.449372668882D-05 0.000000000000D+00 0.000000000000D+00 0.523518724192D-07 0.000000000000D+00  7 -2 2 23 -13 13 23 21 2 0.21446005D-01 0.66608311D-01 0.46375350D+05 0.46375350D+05 0.46375350D+05 0.11501813D+01  1  2 12  2  7  2        2 0.919315043396D-03 0.100000000000D+01
-.457185178594D-05 0.000000000000D+00 0.000000000000D+00 0.523518724192D-07 0.000000000000D+00  7 -2 2 23 -13 13 23 21 2 0.21446005D-01 0.59883717D-01 0.43215347D+05 0.43215347D+05 0.43215347D+05 0.11529081D+01  1  2  4  2  7  2        2 -.105346019784D-02 0.100000000000D+01
-.711078991888D-05 0.000000000000D+00 -.797201521740D-06 0.523518724192D-07 0.000000000000D+00  7 -2 2 23 -13 13 23 21 2 0.21446005D-01 0.66747289D-01 0.43215347D+05 0.43215347D+05 0.43215347D+05 0.11529081D+01  1  2  5  2  7  2        2 -.145742893279D-02 0.100000000000D+01
0.715977207680D-05 0.000000000000D+00 0.792531226010D-06 0.523518724192D-07 0.000000000000D+00  7 -2 2 23 -13 13 23 21 2 0.21446005D-01 0.59883717D-01 0.43215347D+05 0.43215347D+05 0.43215347D+05 0.11529081D+01  1  2  6  2  7  2        2 0.164977677792D-02 0.100000000000D+01
0.770039925562D-07 0.000000000000D+00 0.000000000000D+00 0.523518724192D-07 0.000000000000D+00  7 -2 21 23 -13 13 23 -2 2 0.21446005D-01 0.66608311D-01 0.46375350D+05 0.46375350D+05 0.46375350D+05 0.11501813D+01  1  2 12  4  7  2        2 0.379615229732D-04 0.100000000000D+01
-.120826206697D-06 0.000000000000D+00 -.138892032620D-07 0.523518724192D-07 0.000000000000D+00  7 -2 21 23 -13 13 23 -2 2 0.21446005D-01 0.66747289D-01 0.43215347D+05 0.43215347D+05 0.43215347D+05 0.11529081D+01  1  2  5  4  7  2        2 -.597048751019D-04 0.100000000000D+01
  </mgrwgt>
  </event>
  <event>
  8     66 0.53686478E-06 0.20501831E+03 0.75467711E-02 0.92325160E-01
       -2 -1    0    0    0  501 0.00000000E+00 0.00000000E+00 0.47231365E+02 0.47232449E+02 0.32000000E+00 0.0000E+00 0.9000E+01
        2 -1    0    0  501    0 0.00000000E+00 0.00000000E+00 -.15670832E+04 0.15670832E+04 0.32000000E+00 0.0000E+00 0.9000E+01
       25  2    1    2    0    0 0.28429610E+02 -.62363924E+02 -.14480090E+04 0.14803953E+04 0.30023730E+03 0.0000E+00 0.0000E+00
       23  2    1    2    0    0 -.28429610E+02 0.62363924E+02 -.71842815E+02 0.13392044E+03 0.89865420E+02 0.0000E+00 0.0000E+00
       23  1    3    3    0    0 -.56977593E+02 -.12557181E+03 -.87910340E+03 0.89451259E+03 0.91188000E+02 0.0000E+00 0.9000E+01
      -13  1    4    4    0    0 0.42461934E+01 -.17712551E+02 0.42732512E+01 0.18709262E+02 0.10565837E+00 0.0000E+00 0.9000E+01
       13  1    4    4    0    0 -.32675803E+02 0.80076475E+02 -.76116066E+02 0.11521118E+03 0.10565837E+00 0.0000E+00 0.9000E+01
       23  1    3    3    0    0 0.85407203E+02 0.63207882E+02 -.56890563E+03 0.58588266E+03 0.91188000E+02 0.0000E+00 0.9000E+01
#aMCatNLO 1  0  0  1  1 0.55745306D+03 0.00000000D+00  -5  7  0 0.00000000D+00 0.00000000D+00 0.00000000D+00 0.00000000D+00 0.00000000D+00
  <mgrwgt>
 0.3311277466D-03    5    2    0
 0.272059516262712D+03 0.000000000000000D+00 0.000000000000000D+00 0.272059516262712D+03
 0.272059516262712D+03 0.000000000000000D+00 0.000000000000000D+00 -.272059516262712D+03
 0.198336706549353D+03 -.569775922726323D+02 -.125571805278499D+03 -.109578617981597D+03
 0.674435462048189D+02 0.424624411950998D+01 -.177126857475632D+02 0.649373705901859D+02
 0.129203574869587D+03 -.326758542611358D+02 0.800766102529429D+02 0.959874408336019D+02
 0.149135204901666D+03 0.854072024142581D+02 0.632078807731192D+02 -.513461934421912D+02
 0.000000000000000D+00 -.000000000000000D+00 -.000000000000000D+00 0.000000000000000D+00
 0.749359984494737D+03 0.000000000000000D+00 0.000000000000000D+00 0.749359984494737D+03
 0.605374218694447D+03 0.000000000000000D+00 0.000000000000000D+00 -.605374218694447D+03
 0.145557744860739D+03 0.281876875949527D+02 -.835383111133841D+01 -.109578617981597D+03
 0.844314523642134D+02 0.418580075689773D+02 0.340545922236448D+02 0.649373705901859D+02
 0.231667102355978D+03 0.566935789934603D+02 0.203081007524444D+03 0.959874408336019D+02
 0.317329857676073D+03 0.200927029617023D+03 0.222204600350653D+03 -.513461934421912D+02
 0.575748045932181D+03 -.327666303774414D+03 -.450986368987403D+03 0.143985765800289D+03
0.178926475950D-05 0.000000000000D+00 0.000000000000D+00 0.131488732194D-06 0.000000000000D+00  7 -2 2 23 -13 13 23 21 0 0.72664497D-02 0.24108981D+00 0.42032507D+05 0.42032507D+05 0.42032507D+05 0.11539858D+01  1  2  2  1  7  1       -2 0.270240458406D-03 0.100000000000D+01
-.897293836716D-07 0.000000000000D+00 -.687124780072D-08 0.131488732194D-06 0.000000000000D+00  7 -2 2 23 -13 13 23 21 2 0.72664497D-02 0.24108981D+00 0.42032507D+05 0.42032507D+05 0.42032507D+05 0.11539858D+01  1  2  3  1  7  1       -2 -.180472646524D-04 0.100000000000D+01
0.107786367647D-06 0.000000000000D+00 0.000000000000D+00 0.131488732194D-06 0.000000000000D+00  7 -2 2 23 -13 13 23 21 2 0.72664497D-02 0.24108981D+00 0.42032507D+05 0.42032507D+05 0.42032507D+05 0.11539858D+01  1  2 15  1  7  1       -2 0.216790645745D-04 0.100000000000D+01
0.264681946369D-05 0.000000000000D+00 -.102480315090D-05 0.131488732194D-06 0.000000000000D+00  7 -2 2 23 -13 13 23 21 2 0.55574719D-01 0.24108981D+00 0.42032507D+05 0.42032507D+05 0.42032507D+05 0.11539858D+01  1  2  5  1  7  1       -2 0.177691868417D-04 0.100000000000D+01
0.541580409979D-06 0.000000000000D+00 -.253781028049D-06 0.131488732194D-06 0.000000000000D+00  7 21 2 23 -13 13 23 2 2 0.55574719D-01 0.24108981D+00 0.42032507D+05 0.42032507D+05 0.42032507D+05 0.11539858D+01  1  2  5  3  7  1       -2 0.394863014245D-04 0.100000000000D+01
  </mgrwgt>
  </event>
  <event>
  8     66 0.53686478E-06 0.16650084E+03 0.75467711E-02 0.98798414E-01
       -2 -1    0    0    0  501 0.00000000E+00 0.00000000E+00 0.26801213E+03 0.26801232E+03 0.32000000E+00 0.0000E+00 0.9000E+01
        2 -1    0    0  501    0 0.00000000E+00 0.00000000E+00 -.73709750E+03 0.73709757E+03 0.32000000E+00 0.0000E+00 0.9000E+01
       25  2    1    2    0    0 0.11231520E+03 0.25773230E+03 -.56423578E+03 0.69798161E+03 0.29962589E+03 0.0000E+00 0.0000E+00
       23  2    1    2    0    0 -.11231520E+03 -.25773230E+03 0.95150413E+02 0.30712828E+03 0.78952734E+02 0.0000E+00 0.0000E+00
       23  1    3    3    0    0 0.17372874E+03 0.16934144E+03 -.28558666E+03 0.38565942E+03 0.91188000E+02 0.0000E+00 0.9000E+01
      -13  1    4    4    0    0 -.22595433E+02 -.60169527E+01 -.24529925E+00 0.23384367E+02 0.10565837E+00 0.0000E+00 0.9000E+01
       13  1    4    4    0    0 -.89719770E+02 -.25171535E+03 0.95395712E+02 0.28374391E+03 0.10565837E+00 0.0000E+00 0.9000E+01
       23  1    3    3    0    0 -.61413540E+02 0.88390863E+02 -.27864912E+03 0.31232219E+03 0.91188000E+02 0.0000E+00 0.9000E+01
#aMCatNLO 1  0  0  2  1 0.12771435D+02 0.00000000D+00  -5  7  0 0.00000000D+00 0.00000000D+00 0.00000000D+00 0.00000000D+00 0.00000000D+00
  <mgrwgt>
 0.2699916724D-02    9    2    0
 0.444467323869111D+03 0.000000000000000D+00 0.000000000000000D+00 0.444467323869111D+03
 0.444467323869111D+03 0.000000000000000D+00 0.000000000000000D+00 -.444467323869111D+03
 0.285359083328926D+03 0.173728742660212D+03 0.169341436964542D+03 -.119399986577934D+03
 0.263104196749030D+02 -.225953125356998D+02 -.601651281844322D+01 0.120619902333352D+02
 0.371166869753376D+03 -.897198904095424D+02 -.251715786893059D+03 0.257593379371885D+03
 0.206098274981016D+03 -.614135397149694D+02 0.883908627469597D+02 -.150255383027286D+03
 0.000000000000000D+00 0.000000000000000D+00 -.000000000000000D+00 -.000000000000000D+00
 0.448704150161889D+03 0.000000000000000D+00 0.000000000000000D+00 0.448704150161889D+03
 0.454243045999851D+03 0.000000000000000D+00 0.000000000000000D+00 -.454243045999851D+03
 0.287611117648539D+03 0.173395067395416D+03 0.173443643467179D+03 -.119399986577934D+03
 0.262532981090823D+02 -.226259235734471D+02 -.564018046376167D+01 0.120619902333352D+02
 0.367705151404508D+03 -.901501803563651D+02 -.246425798679642D+03 0.257593379371885D+03
 0.207456820240893D+03 -.616543779045823D+02 0.913517294690398D+02 -.150255383027286D+03
 0.139208087587179D+02 0.103541443897817D+01 -.127293937928152D+02 -.553889583796169D+01
0.411005194581D-04 0.000000000000D+00 0.000000000000D+00 0.872223680200D-08 0.000000000000D+00  7 -2 2 23 -13 13 23 21 0 0.41232656D-01 0.11339963D+00 0.11932022D+06 0.11932022D+06 0.11932022D+06 0.11154806D+01  1  2  2  2  7  2        2 0.109619343147D-02 0.100000000000D+01
-.210692925482D-05 0.000000000000D+00 -.157836816735D-06 0.872223680200D-08 0.000000000000D+00  7 -2 2 23 -13 13 23 21 2 0.41232656D-01 0.11339963D+00 0.11932022D+06 0.11932022D+06 0.11932022D+06 0.11154806D+01  1  2  3  2  7  2        2 -.699220076172D-04 0.100000000000D+01
0.252481613321D-05 0.000000000000D+00 0.000000000000D+00 0.872223680200D-08 0.000000000000D+00  7 -2 2 23 -13 13 23 21 2 0.41232656D-01 0.11339963D+00 0.11932022D+06 0.11932022D+06 0.11932022D+06 0.11154806D+01  1  2 15  2  7  2        2 0.837902898236D-04 0.100000000000D+01
0.586517079223D-04 0.000000000000D+00 0.000000000000D+00 0.872223680200D-08 0.000000000000D+00  7 -2 2 23 -13 13 23 21 2 0.41232656D-01 0.11642565D+00 0.12361831D+06 0.12361831D+06 0.12361831D+06 0.11142430D+01  1  2 12  2  7  2        2 0.187888807723D-02 0.100000000000D+01
-.557566345526D-04 0.000000000000D+00 0.000000000000D+00 0.872223680200D-08 0.000000000000D+00  7 -2 2 23 -13 13 23 21 2 0.41232656D-01 0.11339963D+00 0.11932022D+06 0.11932022D+06 0.11932022D+06 0.11154806D+01  1  2  4  2  7  2        2 -.185037813538D-02 0.100000000000D+01
-.139477310707D-02 0.000000000000D+00 -.184314282274D-03 0.872223680200D-08 0.000000000000D+00  7 -2 2 23 -13 13 23 21 2 0.41232656D-01 0.11667336D+00 0.11932022D+06 0.11932022D+06 0.11932022D+06 0.11154806D+01  1  2  5  2  7  2        2 -.446935615825D-01 0.100000000000D+01
0.139952648930D-02 0.000000000000D+00 0.184239662619D-03 0.872223680200D-08 0.000000000000D+00  7 -2 2 23 -13 13 23 21 2 0.41232656D-01 0.11339963D+00 0.11932022D+06 0.11932022D+06 0.11932022D+06 0.11154806D+01  1  2  6  2  7  2        2 0.464456514719D-01 0.100000000000D+01
0.168962550872D-05 0.000000000000D+00 0.000000000000D+00 0.872223680200D-08 0.000000000000D+00  7 -2 21 23 -13 13 23 -2 2 0.41232656D-01 0.11642565D+00 0.12361831D+06 0.12361831D+06 0.12361831D+06 0.11142430D+01  1  2 12  4  7  2        2 0.598737710352D-04 0.100000000000D+01
-.708109890345D-05 0.000000000000D+00 -.942879504337D-06 0.872223680200D-08 0.000000000000D+00  7 -2 21 23 -13 13 23 -2 2 0.41232656D-01 0.11667336D+00 0.11932022D+06 0.11932022D+06 0.11932022D+06 0.11154806D+01  1  2  5  4  7  2        2 -.250618592129D-03 0.100000000000D+01
  </mgrwgt>
  </event>
  <event>
  9     66 0.53686478E-06 0.26621891E+03 0.75467711E-02 0.10175836E+00
       -2 -1    0    0    0  502 0.00000000E+00 0.00000000E+00 0.23937130E+03 0.23937151E+03 0.32000000E+00 0.0000E+00 0.9000E+01
        2 -1    0    0  501    0 0.00000000E+00 0.00000000E+00 -.39986260E+03 0.39986273E+03 0.32000000E+00 0.0000E+00 0.9000E+01
       25  2    1    2    0    0 0.14729132E+03 0.16498942E+03 -.72885146E+02 0.38066163E+03 0.30112255E+03 0.0000E+00 0.0000E+00
       23  2    1    2    0    0 -.12962182E+03 -.14861881E+03 -.70982016E+02 0.22929578E+03 0.92998620E+02 0.0000E+00 0.0000E+00
       23  1    3    3    0    0 0.29843950E+01 0.32206708E+01 -.10959221E+03 0.14263584E+03 0.91188000E+02 0.0000E+00 0.9000E+01
      -11  1    4    4    0    0 0.72691063E+01 -.80003196E+01 0.12066501E+02 0.16200169E+02 0.51099893E-03 0.0000E+00 0.9000E+01
       11  1    4    4    0    0 -.13689092E+03 -.14061849E+03 -.83048517E+02 0.21309561E+03 0.51099893E-03 0.0000E+00 0.9000E+01
       23  1    3    3    0    0 0.14430692E+03 0.16176875E+03 0.36707064E+02 0.23802579E+03 0.91188000E+02 0.0000E+00 0.9000E+01
       21  1    1    2  501  502 -.17669500E+02 -.16370614E+02 -.16624142E+02 0.29276831E+02 0.75000000E+00 0.0000E+00 0.9000E+01
#aMCatNLO 2  0  0  1  2 0.24087512D+02 0.00000000D+00  -5  7  0 0.00000000D+00 0.00000000D+00 0.00000000D+00 0.00000000D+00 0.00000000D+00
  <mgrwgt>
 0.2169843071D-03    2    2    0
 0.296129224368881D+03 0.000000000000000D+00 0.000000000000000D+00 0.296129224368881D+03
 0.296129224368881D+03 0.000000000000000D+00 0.000000000000000D+00 -.296129224368881D+03
 0.120098937336038D+03 -.598342258868186D+00 -.986992234671291D-01 -.781545625683500D+02
 0.196196691255446D+02 0.668431812203056D+01 -.854211989238289D+01 0.163488071608756D+02
 0.207261031324051D+03 -.142950507346916D+03 -.146232630539946D+03 -.337387806557433D+02
 0.245278810952127D+03 0.136864531483753D+03 0.154873449655796D+03 0.955445360632177D+02
 0.000000000000000D+00 -.000000000000000D+00 -.000000000000000D+00 -.000000000000000D+00
 0.304414198468054D+03 0.000000000000000D+00 0.000000000000000D+00 0.304414198468054D+03
 0.314414973651875D+03 0.000000000000000D+00 0.000000000000000D+00 -.314414973651875D+03
 0.120177644876489D+03 0.298439498854074D+01 0.322067079374178D+01 -.781545625683500D+02
 0.195991967834831D+02 0.726910624578174D+01 -.800031957872513D+01 0.163488071608756D+02
 0.199125559730940D+03 -.136890922333623D+03 -.140618485984858D+03 -.337387806557433D+02
 0.253845671837804D+03 0.144306920829893D+03 0.161768748514186D+03 0.955445360632177D+02
 0.260810988912129D+02 -.176694997305920D+02 -.163706137443446D+02 -.100007751838201D+02
-.958802078172D-07 0.000000000000D+00 0.000000000000D+00 0.292830681434D-07 0.000000000000D+00  7 -2 2 23 -11 11 23 21 2 0.35823480D-01 0.57938607D-01 0.70872506D+05 0.70872506D+05 0.70872506D+05 0.11342026D+01  1  2  8  1  7  1       -2 -.917124202020D-05 0.100000000000D+01
0.266941157754D-05 0.000000000000D+00 0.000000000000D+00 0.292830681434D-07 0.345654494435D-09  7 -2 2 23 -11 11 23 21 2 0.36825734D-01 0.61516271D-01 0.77733764D+05 0.77733764D+05 0.77733764D+05 0.11308109D+01  1  2  1  1  7  1       -2 0.226155549138D-03 0.100000000000D+01
  </mgrwgt>
  </event>
  <event>
  8     66 0.53686478E-06 0.56543074E+03 0.75467711E-02 0.91241875E-01
       -2 -1    0    0    0  501 0.00000000E+00 0.00000000E+00 0.40530131E+03 0.40530143E+03 0.32000000E+00 0.0000E+00 0.9000E+01
        2 -1    0    0  501    0 0.00000000E+00 0.00000000E+00 -.13818940E+04 0.13818940E+04 0.32000000E+00 0.0000E+00 0.9000E+01
       25  2    1    2    0    0 -.56650122E+03 -.31723198E+03 -.86472182E+03 0.11219391E+04 0.29907150E+03 0.0000E+00 0.0000E+00
       23  2    1    2    0    0 0.56650122E+03 0.31723198E+03 -.11187088E+03 0.66525637E+03 0.92147655E+02 0.0000E+00 0.0000E+00
       23  1    3    3    0    0 -.35004904E+03 -.30195646E+03 -.49300052E+03 0.68196540E+03 0.91188000E+02 0.0000E+00 0.9000E+01
      -11  1    4    4    0    0 0.39079480E+03 0.19067961E+03 -.38101894E+02 0.43649861E+03 0.51099893E-03 0.0000E+00 0.9000E+01
       11  1    4    4    0    0 0.17570642E+03 0.12655237E+03 -.73768984E+02 0.22875776E+03 0.51099893E-03 0.0000E+00 0.9000E+01
       23  1    3    3    0    0 -.21645217E+03 -.15275516E+02 -.37172130E+03 0.43997370E+03 0.91188000E+02 0.0000E+00 0.9000E+01
#aMCatNLO 1  0  0  2  2 0.50169359D+01 0.00000000D+00  -5  7  0 0.00000000D+00 0.00000000D+00 0.00000000D+00 0.00000000D+00 0.00000000D+00
  <mgrwgt>
 0.3560423369D-03   10    2    0
 0.748387326705863D+03 0.000000000000000D+00 0.000000000000000D+00 0.748387326705863D+03
 0.748387326705863D+03 0.000000000000000D+00 0.000000000000000D+00 -.748387326705863D+03
 0.492622426237733D+03 -.350049042887809D+03 -.301956462364987D+03 -.143699568188990D+03
 0.496332773840625D+03 0.390794797400265D+03 0.190679606138187D+03 0.239305111763624D+03
 0.225012214208025D+03 0.175706420290971D+03 0.126552372003821D+03 0.611739123445384D+02
 0.282807239125343D+03 -.216452174803427D+03 -.152755157770216D+02 -.156779455919172D+03
 0.000000000000000D+00 -.000000000000000D+00 0.000000000000000D+00 -.000000000000000D+00
 0.750732160311389D+03 0.000000000000000D+00 0.000000000000000D+00 0.750732160311389D+03
 0.751079872051455D+03 0.000000000000000D+00 0.000000000000000D+00 -.751079872051455D+03
 0.492063897827875D+03 -.348591702136027D+03 -.302730717810014D+03 -.143699568188990D+03
 0.497192459467813D+03 0.392265219782538D+03 0.189898400689445D+03 0.239305111763624D+03
 0.225334556489112D+03 0.176372935794771D+03 0.126198265898312D+03 0.611739123445384D+02
 0.282192147564371D+03 -.215615972846691D+03 -.157197728372554D+02 -.156779455919172D+03
 0.502897101367347D+01 -.443048059459104D+01 0.235382405951255D+01 -.347711740066495D+00
0.242506904652D-04 0.000000000000D+00 0.000000000000D+00 0.640937025941D-06 0.000000000000D+00  7 -2 2 23 -11 11 23 21 0 0.62354060D-01 0.21259909D+00 0.46099991D+06 0.46099991D+06 0.46099991D+06 0.10710120D+01  1  2  2  2  7  2        2 0.109085483212D-03 0.100000000000D+01
-.133173841387D-05 0.000000000000D+00 -.931290367400D-07 0.640937025941D-06 0.000000000000D+00  7 -2 2 23 -11 11 23 21 2 0.62354060D-01 0.21259909D+00 0.46099991D+06 0.46099991D+06 0.46099991D+06 0.10710120D+01  1  2  3  2  7  2        2 -.687148251536D-05 0.100000000000D+01
0.151765750354D-05 0.000000000000D+00 0.000000000000D+00 0.640937025941D-06 0.000000000000D+00  7 -2 2 23 -11 11 23 21 2 0.62354060D-01 0.21259909D+00 0.46099991D+06 0.46099991D+06 0.46099991D+06 0.10710120D+01  1  2 15  2  7  2        2 0.783078485327D-05 0.100000000000D+01
-.322515255713D-03 0.000000000000D+00 0.000000000000D+00 0.640937025941D-06 0.000000000000D+00  7 -2 2 23 -11 11 23 21 2 0.62354060D-01 0.21259909D+00 0.46099991D+06 0.46099991D+06 0.46099991D+06 0.10710120D+01  1  2  4  2  7  2        2 -.166410904535D-02 0.100000000000D+01
-.514988149733D-02 0.000000000000D+00 -.487415850908D-03 0.640937025941D-06 0.000000000000D+00  7 -2 2 23 -11 11 23 21 2 0.62354060D-01 0.21378728D+00 0.46099991D+06 0.46099991D+06 0.46099991D+06 0.10710120D+01  1  2  5  2  7  2        2 -.263077519610D-01 0.100000000000D+01
0.515252557243D-02 0.000000000000D+00 0.487408280949D-03 0.640937025941D-06 0.000000000000D+00  7 -2 2 23 -11 11 23 21 2 0.62354060D-01 0.21259909D+00 0.46099991D+06 0.46099991D+06 0.46099991D+06 0.10710120D+01  1  2  6  2  7  2        2 0.265859188352D-01 0.100000000000D+01
0.322517871083D-03 0.000000000000D+00 0.000000000000D+00 0.640937025941D-06 0.155720062061D-06  7 -2 2 23 -11 11 23 21 2 0.62549426D-01 0.21336398D+00 0.46440750D+06 0.46440750D+06 0.46440750D+06 0.10707844D+01  1  2 11  2  7  2        2 0.164134493891D-02 0.100000000000D+01
0.262756068947D-06 0.000000000000D+00 0.000000000000D+00 0.640937025941D-06 0.000000000000D+00  7 -2 21 23 -11 11 23 -2 2 0.62354060D-01 0.21369591D+00 0.46440750D+06 0.46440750D+06 0.46440750D+06 0.10707844D+01  1  2 12  4  7  2        2 0.528551743548D-06 0.100000000000D+01
-.533127249716D-05 0.000000000000D+00 -.505117410271D-06 0.640937025941D-06 0.000000000000D+00  7 -2 21 23 -11 11 23 -2 2 0.62354060D-01 0.21378728D+00 0.46099991D+06 0.46099991D+06 0.46099991D+06 0.10710120D+01  1  2  5  4  7  2        2 -.107193665664D-04 0.100000000000D+01
0.390942106871D-06 0.000000000000D+00 0.000000000000D+00 0.640937025941D-06 0.104114882356D-09  7 -2 21 23 -11 11 23 -2 2 0.62549426D-01 0.21336398D+00 0.46440750D+06 0.46440750D+06 0.46440750D+06 0.10707844D+01  1  2 11  4  7  2        2 0.785598324812D-06 0.100000000000D+01
  </mgrwgt>
  </event>
  <event>
  8     66 0.53686478E-06 0.18289281E+03 0.75467711E-02 0.94366483E-01
       -2 -1    0    0    0  501 0.00000000E+00 0.00000000E+00 0.32264346E+03 0.32264362E+03 0.32000000E+00 0.0000E+00 0.9000E+01
        2 -1    0    0  501    0 0.00000000E+00 0.00000000E+00 -.69033614E+03 0.69033621E+03 0.32000000E+00 0.0000E+00 0.9000E+01
       25  2    1    2    0    0 0.39635475E+02 0.27075698E+03 0.13959567E+03 0.42950729E+03 0.30018203E+03 0.0000E+00 0.0000E+00
       23  2    1    2    0    0 -.39635475E+02 -.27075698E+03 -.50728834E+03 0.58347254E+03 0.90655571E+02 0.0000E+00 0.0000E+00
       23  1    3    3    0    0 -.39026082E+02 -.10853132E+02 0.38992909E+02 0.10712854E+03 0.91188000E+02 0.0000E+00 0.9000E+01
      -13  1    4    4    0    0 -.42347627E+02 -.27650543E+03 -.50372868E+03 0.57618674E+03 0.10565837E+00 0.0000E+00 0.9000E+01
       13  1    4    4    0    0 0.27121521E+01 0.57484509E+01 -.35596656E+01 0.72857971E+01 0.10565837E+00 0.0000E+00 0.9000E+01
       23  1    3    3    0    0 0.78661557E+02 0.28161011E+03 0.10060276E+03 0.32237875E+03 0.91188000E+02 0.0000E+00 0.9000E+01
#aMCatNLO 1  0  0  1  2 0.28447340D+03 0.00000000D+00  -5  7  0 0.00000000D+00 0.00000000D+00 0.00000000D+00 0.00000000D+00 0.00000000D+00
  <mgrwgt>
 0.2708166173D-03    7    2    0
 0.471945503429445D+03 0.000000000000000D+00 0.000000000000000D+00 0.471945503429445D+03
 0.471945503429445D+03 0.000000000000000D+00 0.000000000000000D+00 -.471945503429445D+03
 0.130159578983344D+03 -.390260822197988D+02 -.108531316735323D+02 0.835789393123160D+02
 0.422134265984774D+03 -.423476884875121D+02 -.276505810355364D+03 -.316146403803668D+03
 0.643185439529593D+01 0.271221327383443D+01 0.574883427306109D+01 -.981608180692536D+00
 0.385165307495477D+03 0.786615574334764D+02 0.281610107755835D+03 0.233549072672045D+03
 0.000000000000000D+00 -.000000000000000D+00 -.000000000000000D+00 0.000000000000000D+00
 0.952220554493152D+03 0.000000000000000D+00 0.000000000000000D+00 0.952220554493152D+03
 0.536961024388499D+03 0.000000000000000D+00 0.000000000000000D+00 -.536961024388499D+03
 0.123765564620968D+03 -.233658706663375D+01 -.343000091183589D+01 0.835789393123160D+02
 0.411854257362883D+03 0.781548243823459D+02 -.252125373764134D+03 -.316146403803668D+03
 0.786238354205504D+01 0.477757933438441D+01 0.616670544501995D+01 -.981608180692536D+00
 0.442345034081704D+03 0.198228041616709D+03 0.305801164163213D+03 0.233549072672045D+03
 0.503354339274042D+03 -.278823858266805D+03 -.564124949322625D+02 0.415259530104653D+03
0.167407474229D-04 0.000000000000D+00 0.000000000000D+00 0.163649701309D-05 0.000000000000D+00  7 -2 2 23 -13 13 23 21 0 0.49637473D-01 0.10620558D+00 0.11976653D+06 0.11976653D+06 0.11976653D+06 0.11153498D+01  1  2  2  1  7  1       -2 0.338682487748D-03 0.100000000000D+01
-.821222223016D-06 0.000000000000D+00 -.642888780440D-07 0.163649701309D-05 0.000000000000D+00  7 -2 2 23 -13 13 23 21 2 0.49637473D-01 0.10620558D+00 0.11976653D+06 0.11976653D+06 0.11976653D+06 0.11153498D+01  1  2  3  1  7  1       -2 -.206681121851D-04 0.100000000000D+01
0.998127701870D-06 0.000000000000D+00 0.000000000000D+00 0.163649701309D-05 0.000000000000D+00  7 -2 2 23 -13 13 23 21 2 0.49637473D-01 0.10620558D+00 0.11976653D+06 0.11976653D+06 0.11976653D+06 0.11153498D+01  1  2 15  1  7  1       -2 0.251203812307D-04 0.100000000000D+01
0.955905134279D-06 0.000000000000D+00 0.000000000000D+00 0.163649701309D-05 0.000000000000D+00  7 -2 2 23 -13 13 23 21 2 0.10035634D+00 0.10620558D+00 0.26172550D+06 0.26172550D+06 0.26172550D+06 0.10889647D+01  1  2 12  1  7  1       -2 0.487041478904D-05 0.100000000000D+01
-.115692531347D-04 0.000000000000D+00 -.499527738044D-05 0.163649701309D-05 0.000000000000D+00  7 -2 2 23 -13 13 23 21 2 0.10877917D+00 0.10620558D+00 0.11976653D+06 0.11976653D+06 0.11976653D+06 0.11153498D+01  1  2  5  1  7  1       -2 -.523149361495D-04 0.100000000000D+01
0.727858589585D-07 0.000000000000D+00 0.000000000000D+00 0.163649701309D-05 0.000000000000D+00  7 21 2 23 -13 13 23 2 2 0.10035634D+00 0.10620558D+00 0.26172550D+06 0.26172550D+06 0.26172550D+06 0.10889647D+01  1  2 12  3  7  1       -2 0.342831985009D-05 0.100000000000D+01
-.669233175506D-06 0.000000000000D+00 -.424682823976D-06 0.163649701309D-05 0.000000000000D+00  7 21 2 23 -13 13 23 2 2 0.10877917D+00 0.10620558D+00 0.11976653D+06 0.11976653D+06 0.11976653D+06 0.11153498D+01  1  2  5  3  7  1       -2 -.283019379568D-04 0.100000000000D+01
  </mgrwgt>
  </event>
  <event>
  8     66 0.53686478E-06 0.42804247E+02 0.75467711E-02 0.10660001E+00
       -2 -1    0    0    0  501 0.00000000E+00 0.00000000E+00 0.14396617E+03 0.14396653E+03 0.32000000E+00 0.0000E+00 0.9000E+01
        2 -1    0    0  501    0 0.00000000E+00 0.00000000E+00 -.34571174E+03 0.34571189E+03 0.32000000E+00 0.0000E+00 0.9000E+01
       25  2    1    2    0    0 0.51190841E+02 0.38453482E+02 -.65341125E+02 0.31335069E+03 0.29969988E+03 0.0000E+00 0.0000E+00
       23  2    1    2    0    0 -.51190841E+02 -.38453482E+02 -.13640445E+03 0.17632773E+03 0.91575778E+02 0.0000E+00 0.0000E+00
       23  1    3    3    0    0 0.18333534E+02 -.75073010E+02 -.10477995E+03 0.15895334E+03 0.91188000E+02 0.0000E+00 0.9000E+01
      -11  1    4    4    0    0 0.18732667E+02 -.93775283E+01 -.74379576E+00 0.20961968E+02 0.51099893E-03 0.0000E+00 0.9000E+01
       11  1    4    4    0    0 -.69923509E+02 -.29075954E+02 -.13566065E+03 0.15536576E+03 0.51099893E-03 0.0000E+00 0.9000E+01
       23  1    3    3    0    0 0.32857307E+02 0.11352649E+03 0.39438829E+02 0.15439734E+03 0.91188000E+02 0.0000E+00 0.9000E+01
#aMCatNLO 1  0  0  2  1 0.24995342D+02 0.00000000D+00  -5  7  0 0.00000000D+00 0.00000000D+00 0.00000000D+00 0.00000000D+00 0.00000000D+00
  <mgrwgt>
 0.2616114649D-03    9    2    0
 0.223093969769941D+03 0.000000000000000D+00 0.000000000000000D+00 0.223093969769941D+03
 0.223093969769941D+03 0.000000000000000D+00 0.000000000000000D+00 -.223093969769941D+03
 0.127070063838992D+03 0.183335342527213D+02 -.750730096371216D+02 -.431216248055951D+02
 0.226688459080461D+02 0.187326671432043D+02 -.937752826060856D+01 0.866173886850312D+01
 0.109169973986005D+03 -.699235085593313D+02 -.290759537579992D+02 -.786344395536770D+02
 0.187279055806838D+03 0.328573071634056D+02 0.113526491655729D+03 0.113094325490769D+03
 0.000000000000000D+00 0.000000000000000D+00 -.000000000000000D+00 -.000000000000000D+00
 0.227899833581723D+03 0.000000000000000D+00 0.000000000000000D+00 0.227899833581723D+03
 0.258495143131034D+03 0.000000000000000D+00 0.000000000000000D+00 -.258495143131034D+03
 0.124878424330133D+03 0.116988693401391D+02 -.726844649802457D+02 -.431216248055951D+02
 0.215390813880395D+02 0.175685213044230D+02 -.895842430288311D+01 0.866173886850312D+01
 0.112474947012261D+03 -.757601769635970D+02 -.269746956967929D+02 -.786344395536770D+02
 0.187995054963299D+03 0.229750570518042D+02 0.117084198942078D+03 0.113094325490769D+03
 0.395074690190237D+02 0.235177292672307D+02 -.846661396215650D+01 -.305953095493112D+02
0.104707540390D-05 0.000000000000D+00 0.000000000000D+00 0.168512717521D-06 0.000000000000D+00  7 -2 2 23 -11 11 23 21 0 0.22148680D-01 0.53186461D-01 0.33394189D+05 0.33394189D+05 0.33394189D+05 0.11630414D+01  1  2  2  2  7  2        2 0.194900136632D-03 0.100000000000D+01
-.553552014001D-07 0.000000000000D+00 -.402104525224D-08 0.168512717521D-06 0.000000000000D+00  7 -2 2 23 -11 11 23 21 2 0.22148680D-01 0.53186461D-01 0.33394189D+05 0.33394189D+05 0.33394189D+05 0.11630414D+01  1  2  3  2  7  2        2 -.139374398631D-04 0.100000000000D+01
0.640753300544D-07 0.000000000000D+00 0.000000000000D+00 0.168512717521D-06 0.000000000000D+00  7 -2 2 23 -11 11 23 21 2 0.22148680D-01 0.53186461D-01 0.33394189D+05 0.33394189D+05 0.33394189D+05 0.11630414D+01  1  2 15  2  7  2        2 0.161330107515D-04 0.100000000000D+01
0.398130779874D-05 0.000000000000D+00 0.000000000000D+00 0.168512717521D-06 0.000000000000D+00  7 -2 2 23 -11 11 23 21 2 0.22148680D-01 0.62139191D-01 0.38515014D+05 0.38515014D+05 0.38515014D+05 0.11574002D+01  1  2 12  2  7  2        2 0.841407971710D-03 0.100000000000D+01
-.404839381210D-05 0.000000000000D+00 0.000000000000D+00 0.168512717521D-06 0.000000000000D+00  7 -2 2 23 -11 11 23 21 2 0.22148680D-01 0.53186461D-01 0.33394189D+05 0.33394189D+05 0.33394189D+05 0.11630414D+01  1  2  4  2  7  2        2 -.101931243805D-02 0.100000000000D+01
-.619541426606D-05 0.000000000000D+00 -.952994343803D-06 0.168512717521D-06 0.000000000000D+00  7 -2 2 23 -11 11 23 21 2 0.22148680D-01 0.62537034D-01 0.33394189D+05 0.33394189D+05 0.33394189D+05 0.11630414D+01  1  2  5  2  7  2        2 -.131131511956D-02 0.100000000000D+01
0.627958446164D-05 0.000000000000D+00 0.940631239789D-06 0.168512717521D-06 0.000000000000D+00  7 -2 2 23 -11 11 23 21 2 0.22148680D-01 0.53186461D-01 0.33394189D+05 0.33394189D+05 0.33394189D+05 0.11630414D+01  1  2  6  2  7  2        2 0.158108594288D-02 0.100000000000D+01
0.935302506084D-07 0.000000000000D+00 0.000000000000D+00 0.168512717521D-06 0.000000000000D+00  7 -2 21 23 -11 11 23 -2 2 0.22148680D-01 0.62139191D-01 0.38515014D+05 0.38515014D+05 0.38515014D+05 0.11574002D+01  1  2 12  4  7  2        2 0.520247031514D-04 0.100000000000D+01
-.142723194917D-06 0.000000000000D+00 -.231209384715D-07 0.168512717521D-06 0.000000000000D+00  7 -2 21 23 -11 11 23 -2 2 0.22148680D-01 0.62537034D-01 0.33394189D+05 0.33394189D+05 0.33394189D+05 0.11630414D+01  1  2  5  4  7  2        2 -.793753027741D-04 0.100000000000D+01
  </mgrwgt>
  </event>
  <event>
  8     66 0.53686478E-06 0.18491840E+03 0.75467711E-02 0.94150495E-01
       -2 -1    0    0    0  501 0.00000000E+00 0.00000000E+00 0.16151588E+03 0.16151619E+03 0.32000000E+00 0.0000E+00 0.9000E+01
        2 -1    0    0  501    0 0.00000000E+00 0.00000000E+00 -.12884240E+04 0.12884241E+04 0.32000000E+00 0.0000E+00 0.9000E+01
       25  2    1    2    0    0 -.26874034E+03 0.23916349E+03 -.90137853E+03 0.10157235E+04 0.29965067E+03 0.0000E+00 0.0000E+00
       23  2    1    2    0    0 0.26874034E+03 -.23916349E+03 -.22552961E+03 0.43421671E+03 0.90884528E+02 0.0000E+00 0.0000E+00
       23  1    3    3    0    0 -.17244010E+03 0.13084404E+03 -.25347208E+03 0.34557068E+03 0.91188000E+02 0.0000E+00 0.9000E+01
      -13  1    4    4    0    0 0.50660921E+02 -.34196010E+02 -.82061580E+02 0.10232307E+03 0.10565837E+00 0.0000E+00 0.9000E+01
       13  1    4    4    0    0 0.21807942E+03 -.20496748E+03 -.14346803E+03 0.33189364E+03 0.10565837E+00 0.0000E+00 0.9000E+01
       23  1    3    3    0    0 -.96300244E+02 0.10831945E+03 -.64790645E+03 0.67015286E+03 0.91188000E+02 0.0000E+00 0.9000E+01
#aMCatNLO 1  0  0  2  1 0.23746695D+03 0.00000000D+00  -5  7  0 0.00000000D+00 0.00000000D+00 0.00000000D+00 0.00000000D+00 0.00000000D+00
  <mgrwgt>
 0.1885911953D-03    7    2    0
 0.456181097497231D+03 0.000000000000000D+00 0.000000000000000D+00 0.456181097497231D+03
 0.456181097497231D+03 0.000000000000000D+00 0.000000000000000D+00 -.456181097497231D+03
 0.236109183914467D+03 -.172440098693570D+03 0.130844040356064D+03 0.240113483713116D+02
 0.612543083060870D+02 0.506606948060429D+02 -.341957795247039D+02 -.402901359193214D+01
 0.350245781212974D+03 0.218079648121972D+03 -.204967707012991D+03 0.181938487996135D+03
 0.264752921560933D+03 -.963002442344450D+02 0.108319446181632D+03 -.201920822775514D+03
 0.000000000000000D+00 -.000000000000000D+00 -.000000000000000D+00 -.000000000000000D+00
 0.495398996965696D+03 0.000000000000000D+00 0.000000000000000D+00 0.495398996965696D+03
 0.105830961080710D+04 0.000000000000000D+00 0.000000000000000D+00 -.105830961080710D+04
 0.245788180683600D+03 -.136753289567397D+03 0.181158967102490D+03 0.240113483713116D+02
 0.636637301070238D+02 0.599114741643879D+02 -.211530811955581D+02 -.402901359193214D+01
 0.351238307956522D+03 0.270027906473870D+03 -.131725719915209D+03 0.181938487996135D+03
 0.282069201806789D+03 -.558054455984972D+02 0.165413170077632D+03 -.201920822775514D+03
 0.610949187218864D+03 -.137380645472364D+03 -.193693336069355D+03 -.562910613841408D+03
0.692116098583D-05 0.000000000000D+00 0.000000000000D+00 0.102568246184D-05 0.000000000000D+00  7 -2 2 23 -13 13 23 21 0 0.24848624D-01 0.19821911D+00 0.14689091D+06 0.14689091D+06 0.14689091D+06 0.11082704D+01  1  2  2  2  7  2        2 0.206926656131D-03 0.100000000000D+01
-.370327500191D-06 0.000000000000D+00 -.265790805691D-07 0.102568246184D-05 0.000000000000D+00  7 -2 2 23 -13 13 23 21 2 0.24848624D-01 0.19821911D+00 0.14689091D+06 0.14689091D+06 0.14689091D+06 0.11082704D+01  1  2  3  2  7  2        2 -.135992499241D-04 0.100000000000D+01
0.446289036248D-06 0.000000000000D+00 0.000000000000D+00 0.102568246184D-05 0.000000000000D+00  7 -2 2 23 -13 13 23 21 2 0.24848624D-01 0.19821911D+00 0.14689091D+06 0.14689091D+06 0.14689091D+06 0.11082704D+01  1  2 15  2  7  2        2 0.163887265710D-04 0.100000000000D+01
0.410869932031D-05 0.000000000000D+00 0.000000000000D+00 0.102568246184D-05 0.000000000000D+00  7 -2 2 23 -13 13 23 21 2 0.24848624D-01 0.45682185D+00 0.27196963D+06 0.27196963D+06 0.27196963D+06 0.10877178D+01  1  2 12  2  7  2        2 0.159502430378D-04 0.100000000000D+01
-.977617317312D-05 0.000000000000D+00 -.190147708598D-05 0.102568246184D-05 0.000000000000D+00  7 -2 2 23 -13 13 23 21 2 0.24848624D-01 0.46756990D+00 0.14689091D+06 0.14689091D+06 0.14689091D+06 0.11082704D+01  1  2  5  2  7  2        2 -.369762845703D-04 0.100000000000D+01
0.373419247059D-06 0.000000000000D+00 0.000000000000D+00 0.102568246184D-05 0.000000000000D+00  7 -2 21 23 -13 13 23 -2 2 0.24848624D-01 0.45682185D+00 0.27196963D+06 0.27196963D+06 0.27196963D+06 0.10877178D+01  1  2 12  4  7  2        2 0.101086460784D-06 0.100000000000D+01
-.795837544524D-06 0.000000000000D+00 -.178123633015D-06 0.102568246184D-05 0.000000000000D+00  7 -2 21 23 -13 13 23 -2 2 0.24848624D-01 0.46756990D+00 0.14689091D+06 0.14689091D+06 0.14689091D+06 0.11082704D+01  1  2  5  4  7  2        2 -.199982442026D-06 0.100000000000D+01
  </mgrwgt>
  </event>
  <event>
  8     66 0.53686478E-06 0.45220833E+03 0.75467711E-02 0.94602175E-01
       -2 -1    0    0    0  501 0.00000000E+00 0.00000000E+00 0.11262221E+03 0.11262266E+03 0.32000000E+00 0.0000E+00 0.9000E+01
        2 -1    0    0  501    0 0.00000000E+00 0.00000000E+00 -.34008125E+04 0.34008125E+04 0.32000000E+00 0.0000E+00 0.9000E+01
       25  2    1    2    0    0 0.61675501E+02 -.41777190E+03 -.28558110E+04 0.29024207E+04 0.30008740E+03 0.0000E+00 0.0000E+00
       23  2    1    2    0    0 -.61675501E+02 0.41777190E+03 -.43237931E+03 0.61101445E+03 0.89719347E+02 0.0000E+00 0.0000E+00
       23  1    3    3    0    0 0.17006202E+01 -.93664058E+02 -.35448295E+03 0.37782173E+03 0.91188000E+02 0.0000E+00 0.9000E+01
      -13  1    4    4    0    0 -.38368118E+02 0.40135163E+03 -.40567282E+03 0.57194903E+03 0.10565837E+00 0.0000E+00 0.9000E+01
       13  1    4    4    0    0 -.23307383E+02 0.16420274E+02 -.26706487E+02 0.39065421E+02 0.10565837E+00 0.0000E+00 0.9000E+01
       23  1    3    3    0    0 0.59974881E+02 -.32410785E+03 -.25013281E+04 0.25245990E+04 0.91188000E+02 0.0000E+00 0.9000E+01
#aMCatNLO 1  0  0  1  2 0.94816453D+02 0.00000000D+00  -5  7  0 0.00000000D+00 0.00000000D+00 0.00000000D+00 0.00000000D+00 0.00000000D+00
  <mgrwgt>
 0.2431436334D-03    4    2    0
 0.618876263940713D+03 0.000000000000000D+00 0.000000000000000D+00 0.618876263940713D+03
 0.618876263940713D+03 0.000000000000000D+00 0.000000000000000D+00 -.618876263940713D+03
 0.130756967414114D+03 0.170062018957935D+01 -.936640579665756D+02 -.250705395642670D+01
 0.545809647624762D+03 -.383681388990814D+02 0.401352162954019D+03 0.367902838599838D+03
 0.399408964688885D+02 -.233073622007319D+02 0.164197404828500D+02 0.279720253192047D+02
 0.521245016373660D+03 0.599748809102340D+02 -.324107845470293D+03 -.393367809962616D+03
 0.000000000000000D+00 0.000000000000000D+00 -.000000000000000D+00 -.000000000000000D+00
 0.648877294892561D+03 0.000000000000000D+00 0.000000000000000D+00 0.648877294892561D+03
 0.700423744424308D+03 0.000000000000000D+00 0.000000000000000D+00 -.700423744424308D+03
 0.127611345520578D+03 -.699050663220168D+01 -.889620798939471D+02 -.250705395642670D+01
 0.564623429825308D+03 -.757214605723109D+02 0.421560647198801D+03 0.367902838599838D+03
 0.422267741395396D+02 -.260713607646297D+02 0.179150886588373D+02 0.279720253192047D+02
 0.506917312942177D+03 0.253890251759804D+02 -.305396585282719D+03 -.393367809962616D+03
 0.107922176889267D+03 0.833943027931618D+02 -.451170706809721D+02 -.515464495317465D+02
0.104141554730D-03 0.000000000000D+00 0.000000000000D+00 0.169742588111D-05 0.000000000000D+00  7 -2 2 23 -13 13 23 21 0 0.17326529D-01 0.52320196D+00 0.20449237D+06 0.20449237D+06 0.20449237D+06 0.10970852D+01  1  2  2  1  7  1       -2 0.331656525606D-03 0.100000000000D+01
-.509311798348D-05 0.000000000000D+00 -.399930991266D-06 0.169742588111D-05 0.000000000000D+00  7 -2 2 23 -13 13 23 21 2 0.17326529D-01 0.52320196D+00 0.20449237D+06 0.20449237D+06 0.20449237D+06 0.10970852D+01  1  2  3  1  7  1       -2 -.195222091451D-04 0.100000000000D+01
0.633335008659D-05 0.000000000000D+00 0.000000000000D+00 0.169742588111D-05 0.000000000000D+00  7 -2 2 23 -13 13 23 21 2 0.17326529D-01 0.52320196D+00 0.20449237D+06 0.20449237D+06 0.20449237D+06 0.10970852D+01  1  2 15  1  7  1       -2 0.242760889067D-04 0.100000000000D+01
-.243322192725D-04 0.000000000000D+00 0.000000000000D+00 0.169742588111D-05 0.000000000000D+00  7 -2 2 23 -13 13 23 21 2 0.17326529D-01 0.52320196D+00 0.20449237D+06 0.20449237D+06 0.20449237D+06 0.10970852D+01  1  2  4  1  7  1       -2 -.932667719741D-04 0.100000000000D+01
  </mgrwgt>
  </event>
  <event>
  8     66 0.53686478E-06 0.38002613E+03 0.75467711E-02 0.86240752E-01
       -2 -1    0    0    0  501 0.00000000E+00 0.00000000E+00 0.30072893E+03 0.30072910E+03 0.32000000E+00 0.0000E+00 0.9000E+01
        2 -1    0    0  501    0 0.00000000E+00 0.00000000E+00 -.10983253E+04 0.10983254E+04 0.32000000E+00 0.0000E+00 0.9000E+01
       25  2    1    2    0    0 0.30285355E+03 -.14962786E+03 0.75870970E+02 0.45813277E+03 0.30003411E+03 0.0000E+00 0.0000E+00
       23  2    1    2    0    0 -.30285355E+03 0.14962786E+03 -.87346738E+03 0.94092172E+03 0.90992628E+02 0.0000E+00 0.0000E+00
       23  1    3    3    0    0 0.11536182E+03 0.20604170E+02 -.55632236E+02 0.15856569E+03 0.91188000E+02 0.0000E+00 0.9000E+01
      -13  1    4    4    0    0 -.29341055E+03 0.13060054E+03 -.75352766E+03 0.81911550E+03 0.10565837E+00 0.0000E+00 0.9000E+01
       13  1    4    4    0    0 -.94429947E+01 0.19027313E+02 -.11993972E+03 0.12180622E+03 0.10565837E+00 0.0000E+00 0.9000E+01
       23  1    3    3    0    0 0.18749173E+03 -.17023203E+03 0.13150321E+03 0.29956708E+03 0.91188000E+02 0.0000E+00 0.9000E+01
#aMCatNLO 1  0  0  1  2 0.99424242D+03 0.00000000D+00  -5  7  0 0.00000000D+00 0.00000000D+00 0.00000000D+00 0.00000000D+00 0.00000000D+00
  <mgrwgt>
 0.3562022721D-03    5    2    0
 0.574715894076537D+03 0.000000000000000D+00 0.000000000000000D+00 0.574715894076537D+03
 0.574715894076537D+03 0.000000000000000D+00 0.000000000000000D+00 -.574715894076537D+03
 0.154398001741850D+03 0.115361820907013D+03 0.206041698404171D+02 0.423156006702240D+02
 0.474127217131932D+03 -.293410934684833D+03 0.130600693513419D+03 -.348783744297891D+03
 0.650316273077390D+02 -.944261179604766D+01 0.190271627491489D+02 -.614647599074397D+02
 0.455874941971554D+03 0.187491725573868D+03 -.170232026102985D+03 0.367932903535107D+03
 0.000000000000000D+00 0.000000000000000D+00 0.000000000000000D+00 0.000000000000000D+00
 0.259547807365484D+04 0.000000000000000D+00 0.000000000000000D+00 0.259547807365484D+04
 0.894518830185153D+03 0.000000000000000D+00 0.000000000000000D+00 -.894518830185153D+03
 0.162259412578438D+03 0.862681718150436D+02 -.937019642158475D+02 0.423156006702240D+02
 0.580012871898190D+03 -.390262549259690D+03 -.249919935032116D+03 -.348783744297891D+03
 0.720494650542942D+02 -.220372614646352D+02 -.304559979522926D+02 -.614647599074397D+02
 0.705451730040465D+03 0.807920901044530D+02 -.589444576483545D+03 0.367932903535107D+03
 0.197022342426861D+04 0.245239548804829D+03 0.963522473683801D+03 0.170095924346969D+04
0.278682149957D-04 0.000000000000D+00 0.000000000000D+00 0.277922170959D-05 0.000000000000D+00  7 -2 2 23 -13 13 23 21 0 0.46266006D-01 0.16897315D+00 0.14441986D+06 0.14441986D+06 0.14441986D+06 0.11088535D+01  1  2  2  1  7  1       -2 0.347830403632D-03 0.100000000000D+01
-.122616110606D-05 0.000000000000D+00 -.107021283453D-06 0.277922170959D-05 0.000000000000D+00  7 -2 2 23 -13 13 23 21 2 0.46266006D-01 0.16897315D+00 0.14441986D+06 0.14441986D+06 0.14441986D+06 0.11088535D+01  1  2  3  1  7  1       -2 -.188171687333D-04 0.100000000000D+01
0.158139830526D-05 0.000000000000D+00 0.000000000000D+00 0.277922170959D-05 0.000000000000D+00  7 -2 2 23 -13 13 23 21 2 0.46266006D-01 0.16897315D+00 0.14441986D+06 0.14441986D+06 0.14441986D+06 0.11088535D+01  1  2 15  1  7  1       -2 0.242687837656D-04 0.100000000000D+01
0.859536972587D-05 0.000000000000D+00 -.122842490076D-04 0.277922170959D-05 0.000000000000D+00  7 -2 2 23 -13 13 23 21 2 0.26591958D+00 0.16897315D+00 0.14441986D+06 0.14441986D+06 0.14441986D+06 0.11088535D+01  1  2  5  1  7  1       -2 0.144479391625D-05 0.100000000000D+01
0.116012990222D-05 0.000000000000D+00 -.263175212010D-05 0.277922170959D-05 0.000000000000D+00  7 21 2 23 -13 13 23 2 2 0.26591958D+00 0.16897315D+00 0.14441986D+06 0.14441986D+06 0.14441986D+06 0.11088535D+01  1  2  5  3  7  1       -2 0.147545956896D-05 0.100000000000D+01
  </mgrwgt>
  </event>
  <event>
  8     66 0.53686478E-06 0.16922349E+03 0.75467711E-02 0.93260848E-01
       -2 -1    0    0    0  501 0.00000000E+00 0.00000000E+00 0.12335795E+04 0.12335796E+04 0.32000000E+00 0.0000E+00 0.9000E+01
        2 -1    0    0  501    0 0.00000000E+00 0.00000000E+00 -.47848754E+02 0.47849824E+02 0.32000000E+00 0.0000E+00 0.9000E+01
       25  2    1    2    0    0 -.43576078E+02 0.27847245E+02 0.48256275E+03 0.57029621E+03 0.29949394E+03 0.0000E+00 0.0000E+00
       23  2    1    2    0    0 0.43576078E+02 -.27847245E+02 0.70316802E+03 0.71113318E+03 0.92686499E+02 0.0000E+00 0.0000E+00
       23  1    3    3    0    0 -.96640096E+02 0.11187427E+02 0.83824802E+02 0.15750021E+03 0.91188000E+02 0.0000E+00 0.9000E+01
      -11  1    4    4    0    0 0.10999351E+02 0.29974108E+02 0.11905736E+03 0.12326430E+03 0.51099893E-03 0.0000E+00 0.9000E+01
       11  1    4    4    0    0 0.32576727E+02 -.57821353E+02 0.58411067E+03 0.58786888E+03 0.51099893E-03 0.0000E+00 0.9000E+01
       23  1    3    3    0    0 0.53064018E+02 0.16659818E+02 0.39873795E+03 0.41279601E+03 0.91188000E+02 0.0000E+00 0.9000E+01
#aMCatNLO 1  0  0  2  1 0.52066167D+03 0.00000000D+00  -5  7  0 0.00000000D+00 0.00000000D+00 0.00000000D+00 0.00000000D+00 0.00000000D+00
  <mgrwgt>
 0.3987411536D-03    5    2    0
 0.242952579213052D+03 0.000000000000000D+00 0.000000000000000D+00 0.242952579213052D+03
 0.242952579213052D+03 0.000000000000000D+00 0.000000000000000D+00 -.242952579213052D+03
 0.210806052834581D+03 -.966400960427026D+02 0.111874267693124D+02 -.163277291399737D+03
 0.345427958188615D+02 0.109993512351002D+02 0.299741082624757D+02 0.131822550900763D+02
 0.124951282239868D+03 0.325767268809818D+02 -.578213529191307D+02 0.105869121776420D+03
 0.115605027532792D+03 0.530640179266206D+02 0.166598178873426D+02 0.442259145332408D+02
 0.000000000000000D+00 -.000000000000000D+00 0.000000000000000D+00 -.000000000000000D+00
 0.459356451170725D+03 0.000000000000000D+00 0.000000000000000D+00 0.459356451170725D+03
 0.101235367353297D+04 0.000000000000000D+00 0.000000000000000D+00 -.101235367353297D+04
 0.220781521427277D+03 0.494803809795808D+02 -.106402287903146D+03 -.163277291399737D+03
 0.396739580944642D+02 0.361265516727125D+02 0.975312082670445D+01 0.131822550900763D+02
 0.249175345122207D+03 0.159242934429663D+03 -.159755342650223D+03 0.105869121776420D+03
 0.202543587631074D+03 0.160778025891820D+03 -.700224851065296D+02 0.442259145332408D+02
 0.759535712428676D+03 -.405627892973776D+03 0.326426994833194D+03 -.552997222362247D+03
0.166599655558D-04 0.000000000000D+00 0.000000000000D+00 0.545978361567D-07 0.000000000000D+00  7 -2 2 23 -11 11 23 21 0 0.18978155D+00 0.73614323D-02 0.28636588D+05 0.28636588D+05 0.28636588D+05 0.11692148D+01  1  2  2  2  7  2        2 0.313500586937D-03 0.100000000000D+01
-.778373064367D-06 0.000000000000D+00 -.639786544038D-07 0.545978361567D-07 0.000000000000D+00  7 -2 2 23 -11 11 23 21 2 0.18978155D+00 0.73614323D-02 0.28636588D+05 0.28636588D+05 0.28636588D+05 0.11692148D+01  1  2  3  2  7  2        2 -.200235295044D-04 0.100000000000D+01
0.102285358560D-05 0.000000000000D+00 0.000000000000D+00 0.545978361567D-07 0.000000000000D+00  7 -2 2 23 -11 11 23 21 2 0.18978155D+00 0.73614323D-02 0.28636588D+05 0.28636588D+05 0.28636588D+05 0.11692148D+01  1  2 15  2  7  2        2 0.263127539833D-04 0.100000000000D+01
0.230828868744D-04 0.000000000000D+00 -.111116550308D-04 0.545978361567D-07 0.000000000000D+00  7 -2 2 23 -11 11 23 21 2 0.18978155D+00 0.60323490D-01 0.28636588D+05 0.28636588D+05 0.28636588D+05 0.11692148D+01  1  2  5  2  7  2        2 0.513579263690D-04 0.100000000000D+01
0.450491227432D-05 0.000000000000D+00 -.283227678924D-05 0.545978361567D-07 0.000000000000D+00  7 -2 21 23 -11 11 23 -2 2 0.18978155D+00 0.60323490D-01 0.28636588D+05 0.28636588D+05 0.28636588D+05 0.11692148D+01  1  2  5  4  7  2        2 0.275934157791D-04 0.100000000000D+01
  </mgrwgt>
  </event>
  <event>
  8     66 0.53686478E-06 0.34439854E+03 0.75467711E-02 0.90810418E-01
       -2 -1    0    0    0  501 0.00000000E+00 0.00000000E+00 0.17515105E+03 0.17515134E+03 0.32000000E+00 0.0000E+00 0.9000E+01
        2 -1    0    0  501    0 0.00000000E+00 0.00000000E+00 -.16302559E+04 0.16302559E+04 0.32000000E+00 0.0000E+00 0.9000E+01
       25  2    1    2    0    0 -.25631744E+03 -.98052998E+02 -.14607123E+04 0.15162297E+04 0.29993165E+03 0.0000E+00 0.0000E+00
       23  2    1    2    0    0 0.25631744E+03 0.98052998E+02 0.56074428E+01 0.28917760E+03 0.90990244E+02 0.0000E+00 0.0000E+00
       23  1    3    3    0    0 -.23998704E+03 0.17244753E+02 -.86731679E+03 0.90467940E+03 0.91188000E+02 0.0000E+00 0.9000E+01
      -13  1    4    4    0    0 0.93364547E+01 -.10284038E+02 -.12752183E+02 0.18856303E+02 0.10565837E+00 0.0000E+00 0.9000E+01
       13  1    4    4    0    0 0.24698098E+03 0.10833704E+03 0.18359626E+02 0.27032130E+03 0.10565837E+00 0.0000E+00 0.9000E+01
       23  1    3    3    0    0 -.16330393E+02 -.11529775E+03 -.59339551E+03 0.61155028E+03 0.91188000E+02 0.0000E+00 0.9000E+01
#aMCatNLO 1  0  0  1  1 0.55116459D+03 0.00000000D+00  -5  7  0 0.00000000D+00 0.00000000D+00 0.00000000D+00 0.00000000D+00 0.00000000D+00
  <mgrwgt>
 0.5272000994D-03    3    2    0
 0.534360671463398D+03 0.000000000000000D+00 0.000000000000000D+00 0.534360671463398D+03
 0.534360671463398D+03 0.000000000000000D+00 0.000000000000000D+00 -.534360671463398D+03
 0.347403854014834D+03 -.239987043323443D+03 0.172447527747405D+02 -.233415989124502D+03
 0.144910269615630D+02 0.933613423148818D+01 -.102841978760681D+02 0.413058519561802D+01
 0.481655861023939D+03 0.246981301714979D+03 0.108337195415146D+03 0.399068486793267D+03
 0.225170600926461D+03 -.163303926230238D+02 -.115297750313818D+03 -.169783082864382D+03
 0.000000000000000D+00 -.000000000000000D+00 -.000000000000000D+00 -.000000000000000D+00
 0.715997602932541D+03 0.000000000000000D+00 0.000000000000000D+00 0.715997602932541D+03
 0.126301677282815D+04 0.000000000000000D+00 0.000000000000000D+00 -.126301677282815D+04
 0.280443035093370D+03 -.997500598465897D+02 0.768111070745201D+02 -.233415989124502D+03
 0.186627699369202D+02 0.167414245156394D+02 -.713876409802854D+01 0.413058519561802D+01
 0.681016568790094D+03 0.506677856969748D+03 0.218644595340723D+03 0.399068486793267D+03
 0.222353286375876D+03 0.836293285731084D+02 -.728393629408556D+02 -.169783082864382D+03
 0.776538715564434D+03 -.507298550211906D+03 -.215477575376359D+03 -.547019169895613D+03
0.303234211524D-04 0.000000000000D+00 0.000000000000D+00 0.289470450882D-05 0.000000000000D+00  7 -2 2 23 -13 13 23 21 0 0.26946340D-01 0.25080863D+00 0.11861035D+06 0.11861035D+06 0.11861035D+06 0.11156897D+01  1  2  2  1  7  1       -2 0.516338783649D-03 0.100000000000D+01
-.128940145366D-05 0.000000000000D+00 -.116449921565D-06 0.289470450882D-05 0.000000000000D+00  7 -2 2 23 -13 13 23 21 2 0.26946340D-01 0.25080863D+00 0.11861035D+06 0.11861035D+06 0.11861035D+06 0.11156897D+01  1  2  3  1  7  1       -2 -.273294919959D-04 0.100000000000D+01
0.180183675053D-05 0.000000000000D+00 0.000000000000D+00 0.289470450882D-05 0.000000000000D+00  7 -2 2 23 -13 13 23 21 2 0.26946340D-01 0.25080863D+00 0.11861035D+06 0.11861035D+06 0.11861035D+06 0.11156897D+01  1  2 15  1  7  1       -2 0.381908077673D-04 0.100000000000D+01
  </mgrwgt>
  </event>
  <event>
  9     66 0.53686478E-06 0.62225635E+03 0.75467711E-02 0.89083648E-01
       21 -1    0    0  502  501 0.00000000E+00 0.00000000E+00 0.89489085E+03 0.89489117E+03 0.75000000E+00 0.0000E+00 0.9000E+01
        2 -1    0    0  501    0 0.00000000E+00 0.00000000E+00 -.12446259E+04 0.12446259E+04 0.32000000E+00 0.0000E+00 0.9000E+01
       25  2    1    2    0    0 -.11245271E+03 -.42384654E+03 -.54142004E+03 0.75833579E+03 0.29940942E+03 0.0000E+00 0.0000E+00
       23  2    1    2    0    0 0.42465489E+03 0.64550293E+03 -.23027785E+03 0.81139671E+03 0.91273887E+02 0.0000E+00 0.0000E+00
       23  1    3    3    0    0 0.36187588E+01 -.33760322E+03 -.43007143E+03 0.55431554E+03 0.91188000E+02 0.0000E+00 0.9000E+01
      -13  1    4    4    0    0 0.41925101E+03 0.59936723E+03 -.22010386E+03 0.76384436E+03 0.10565837E+00 0.0000E+00 0.9000E+01
       13  1    4    4    0    0 0.54038854E+01 0.46135707E+02 -.10173989E+02 0.47552357E+02 0.10565837E+00 0.0000E+00 0.9000E+01
       23  1    3    3    0    0 -.11607147E+03 -.86243319E+02 -.11134861E+03 0.20402025E+03 0.91188000E+02 0.0000E+00 0.9000E+01
        2  1    1    2  502    0 -.31220218E+03 -.22165639E+03 0.42196284E+03 0.56978461E+03 0.32000000E+00 0.0000E+00 0.9000E+01
#aMCatNLO 2  0  0  1  2 0.38288609D+03 0.00000000D+00  -5  7  0 0.00000000D+00 0.00000000D+00 0.00000000D+00 0.00000000D+00 0.00000000D+00
  <mgrwgt>
 0.3714618296D-04    2    2    0
 0.656113694479508D+03 0.000000000000000D+00 0.000000000000000D+00 0.656113694479508D+03
 0.656113694479508D+03 0.000000000000000D+00 0.000000000000000D+00 -.656113694479508D+03
 0.466339928267330D+03 -.966074721615042D+02 -.408761548030502D+03 -.180938305857686D+03
 0.583308902988355D+03 0.263543683409489D+03 0.488818942941888D+03 0.178465806981654D+03
 0.418211835843003D+02 -.516393254882144D+01 0.386324503698473D+02 0.151617603016355D+02
 0.220757374119032D+03 -.161772278699164D+03 -.118689845281233D+03 -.126892614256032D+02
 0.000000000000000D+00 -.000000000000000D+00 -.000000000000000D+00 0.000000000000000D+00
 0.153285086041327D+04 0.000000000000000D+00 0.000000000000000D+00 0.153285086041327D+04
 0.726622960226225D+03 0.000000000000000D+00 0.000000000000000D+00 -.726622960226225D+03
 0.393754938445259D+03 0.361875877179951D+01 -.337603220162859D+03 -.180938305857686D+03
 0.752903630855801D+03 0.419251560733435D+03 0.599367968711054D+03 0.178465806981654D+03
 0.488621528812822D+02 0.540333087078353D+01 0.461349653110347D+02 0.151617603016355D+02
 0.171425684326831D+03 -.116071471375244D+03 -.862433190466429D+02 -.126892614256032D+02
 0.892527414130318D+03 -.312202179000774D+03 -.221656394812586D+03 0.806227900187043D+03
-.190631162823D-05 0.000000000000D+00 0.000000000000D+00 0.147837809774D-05 0.000000000000D+00  7 21 2 23 -13 13 23 2 2 0.13654625D+00 0.17290021D+00 0.70682566D+06 0.70682566D+06 0.70682566D+06 0.10580445D+01  1  2 13  3  7  1       -2 -.173945226267D-04 0.100000000000D+01
0.721730272192D-05 0.000000000000D+00 0.000000000000D+00 0.147837809774D-05 0.938029083318D-11  7 21 2 23 -13 13 23 2 2 0.13767554D+00 0.19148093D+00 0.70682566D+06 0.70682566D+06 0.70682566D+06 0.10580445D+01  1  2  1  3  7  1       -2 0.545407055818D-04 0.100000000000D+01
  </mgrwgt>
  </event>
  <event>
  8     66 0.53686478E-06 0.13680501E+03 0.75467711E-02 0.10433645E+00
       -2 -1    0    0    0  501 0.00000000E+00 0.00000000E+00 0.86690871E+02 0.86691461E+02 0.32000000E+00 0.0000E+00 0.9000E+01
        2 -1    0    0  501    0 0.00000000E+00 0.00000000E+00 -.64022623E+03 0.64022631E+03 0.32000000E+00 0.0000E+00 0.9000E+01
       25  2    1    2    0    0 0.68604592E+02 -.72557201E+02 -.28061413E+03 0.42219134E+03 0.29921580E+03 0.0000E+00 0.0000E+00
       23  2    1    2    0    0 -.68604592E+02 0.72557201E+02 -.27292123E+03 0.30472644E+03 0.91657339E+02 0.0000E+00 0.0000E+00
       23  1    3    3    0    0 0.15139213E+03 -.74188870E+02 -.15811105E+03 0.24847117E+03 0.91188000E+02 0.0000E+00 0.9000E+01
      -11  1    4    4    0    0 -.84177598E+02 0.70304624E+02 -.18229353E+03 0.21274290E+03 0.51099893E-03 0.0000E+00 0.9000E+01
       11  1    4    4    0    0 0.15573006E+02 0.22525769E+01 -.90627696E+02 0.91983541E+02 0.51099893E-03 0.0000E+00 0.9000E+01
       23  1    3    3    0    0 -.82787541E+02 0.16316685E+01 -.12250309E+03 0.17372017E+03 0.91188000E+02 0.0000E+00 0.9000E+01
#aMCatNLO 1  0  0  2  1 0.20082636D+02 0.00000000D+00  -5  7  0 0.00000000D+00 0.00000000D+00 0.00000000D+00 0.00000000D+00 0.00000000D+00
  <mgrwgt>
 0.2143380809D-03    9    2    0
 0.235588652346984D+03 0.000000000000000D+00 0.000000000000000D+00 0.235588652346984D+03
 0.235588652346984D+03 0.000000000000000D+00 0.000000000000000D+00 -.235588652346984D+03
 0.197586027501475D+03 0.151392133059489D+03 -.741888695654777D+02 0.479731237268129D+02
 0.114056164900944D+03 -.841775980543826D+02 0.703046241842274D+02 -.313081547846690D+02
 0.354406643079852D+02 0.155730061094165D+02 0.225257689063568D+01 -.317560713039120D+02
 0.124094447983564D+03 -.827875411145233D+02 0.163166849061471D+01 0.150911023617681D+02
 0.000000000000000D+00 0.000000000000000D+00 -.000000000000000D+00 -.000000000000000D+00
 0.245501705073757D+03 0.000000000000000D+00 0.000000000000000D+00 0.245501705073757D+03
 0.246198095932229D+03 0.000000000000000D+00 0.000000000000000D+00 -.246198095932229D+03
 0.192424010706469D+03 0.148292258057460D+03 -.664810811620474D+02 0.479731237268129D+02
 0.118278574606882D+03 -.860242393726744D+02 0.748962675663334D+02 -.313081547846690D+02
 0.353142505632249D+02 0.150106324000428D+02 0.365090990492399D+01 -.317560713039120D+02
 0.125588258185813D+03 -.847720674176151D+02 0.656616062828459D+01 0.150911023617681D+02
 0.200947069435972D+02 0.749341633278683D+01 -.186322569374946D+02 -.696390858472488D+00
0.407665703525D-06 0.000000000000D+00 0.000000000000D+00 0.525278480638D-07 0.000000000000D+00  7 -2 2 23 -11 11 23 21 0 0.13337109D-01 0.98496395D-01 0.48456608D+05 0.48456608D+05 0.48456608D+05 0.11484951D+01  1  2  2  2  7  2        2 0.875169886053D-04 0.100000000000D+01
-.225212311679D-07 0.000000000000D+00 -.156554364238D-08 0.525278480638D-07 0.000000000000D+00  7 -2 2 23 -11 11 23 21 2 0.13337109D-01 0.98496395D-01 0.48456608D+05 0.48456608D+05 0.48456608D+05 0.11484951D+01  1  2  3  2  7  2        2 -.637732546841D-05 0.100000000000D+01
0.271351396097D-07 0.000000000000D+00 0.000000000000D+00 0.525278480638D-07 0.000000000000D+00  7 -2 2 23 -11 11 23 21 2 0.13337109D-01 0.98496395D-01 0.48456608D+05 0.48456608D+05 0.48456608D+05 0.11484951D+01  1  2 15  2  7  2        2 0.768384355333D-05 0.100000000000D+01
0.887561980584D-06 0.000000000000D+00 0.000000000000D+00 0.525278480638D-07 0.000000000000D+00  7 -2 2 23 -11 11 23 21 2 0.13337109D-01 0.10491560D+00 0.53041976D+05 0.53041976D+05 0.53041976D+05 0.11450461D+01  1  2 12  2  7  2        2 0.232278411835D-03 0.100000000000D+01
-.700972545991D-06 0.000000000000D+00 0.000000000000D+00 0.525278480638D-07 0.000000000000D+00  7 -2 2 23 -11 11 23 21 2 0.13337109D-01 0.98496395D-01 0.48456608D+05 0.48456608D+05 0.48456608D+05 0.11484951D+01  1  2  4  2  7  2        2 -.198494036000D-03 0.100000000000D+01
-.373686018059D-05 0.000000000000D+00 -.702375128209D-06 0.525278480638D-07 0.000000000000D+00  7 -2 2 23 -11 11 23 21 2 0.13337109D-01 0.10641960D+00 0.48456608D+05 0.48456608D+05 0.48456608D+05 0.11484951D+01  1  2  5  2  7  2        2 -.966760403895D-03 0.100000000000D+01
0.378197454163D-05 0.000000000000D+00 0.700278121140D-06 0.525278480638D-07 0.000000000000D+00  7 -2 2 23 -11 11 23 21 2 0.13337109D-01 0.98496395D-01 0.48456608D+05 0.48456608D+05 0.48456608D+05 0.11484951D+01  1  2  6  2  7  2        2 0.107093978946D-02 0.100000000000D+01
0.100593260992D-07 0.000000000000D+00 0.000000000000D+00 0.525278480638D-07 0.000000000000D+00  7 -2 21 23 -11 11 23 -2 2 0.13337109D-01 0.10491560D+00 0.53041976D+05 0.53041976D+05 0.53041976D+05 0.11450461D+01  1  2 12  4  7  2        2 0.350895138688D-05 0.100000000000D+01
-.470209409631D-07 0.000000000000D+00 -.910648530352D-08 0.525278480638D-07 0.000000000000D+00  7 -2 21 23 -11 11 23 -2 2 0.13337109D-01 0.10641960D+00 0.48456608D+05 0.48456608D+05 0.48456608D+05 0.11484951D+01  1  2  5  4  7  2        2 -.159581386090D-04 0.100000000000D+01
  </mgrwgt>
  </event>
  <event>
  9     66 0.53686478E-06 0.44959810E+03 0.75467711E-02 0.90830805E-01
       -2 -1    0    0    0  502 0.00000000E+00 0.00000000E+00 0.12250539E+04 0.12250540E+04 0.32000000E+00 0.0000E+00 0.9000E+01
        2 -1    0    0  501    0 0.00000000E+00 0.00000000E+00 -.19657824E+04 0.19657824E+04 0.32000000E+00 0.0000E+00 0.9000E+01
       25  2    1    2    0    0 0.11969883E+03 -.18259825E+03 -.15972054E+04 0.16397612E+04 0.30013626E+03 0.0000E+00 0.0000E+00
       23  2    1    2    0    0 -.50088048E+03 0.39982508E+03 0.70240929E+02 0.65071160E+03 0.88036658E+02 0.0000E+00 0.0000E+00
       23  1    3    3    0    0 -.29417053E+02 -.11000169E+03 -.10641616E+04 0.10741140E+04 0.91188000E+02 0.0000E+00 0.9000E+01
      -11  1    4    4    0    0 -.29386890E+03 0.19714067E+03 0.71369518E+02 0.36099443E+03 0.51099893E-03 0.0000E+00 0.9000E+01
       11  1    4    4    0    0 -.20701158E+03 0.20268441E+03 -.11285888E+01 0.28971717E+03 0.51099893E-03 0.0000E+00 0.9000E+01
       23  1    3    3    0    0 0.14911589E+03 -.72596564E+02 -.53304383E+03 0.56564723E+03 0.91188000E+02 0.0000E+00 0.9000E+01
       21  1    1    2  501  502 0.38118165E+03 -.21722683E+03 0.78623600E+03 0.90036357E+03 0.75000000E+00 0.0000E+00 0.9000E+01
#aMCatNLO 2  0  0  1  2 0.43873334D+03 0.00000000D+00  -5  7  0 0.00000000D+00 0.00000000D+00 0.00000000D+00 0.00000000D+00 0.00000000D+00
  <mgrwgt>
 0.3804016485D-04    2    2    0
 0.824948213145027D+03 0.000000000000000D+00 0.000000000000000D+00 0.824948213145027D+03
 0.824948213145027D+03 0.000000000000000D+00 0.000000000000000D+00 -.824948213145027D+03
 0.513955903487267D+03 0.844927442586481D+02 -.174916314014455D+03 -.467012503734806D+03
 0.473353938536452D+03 -.177882887444908D+03 0.131042859639634D+03 0.418627995265129D+03
 0.326643822735026D+03 -.125904072164435D+03 0.156463066331157D+03 0.257611452419367D+03
 0.335942761531308D+03 0.219294215350695D+03 -.112589611956336D+03 -.209226943949690D+03
 0.000000000000000D+00 0.000000000000000D+00 -.000000000000000D+00 0.000000000000000D+00
 0.273926622915888D+04 0.000000000000000D+00 0.000000000000000D+00 0.273926622915888D+04
 0.879136571624420D+03 0.000000000000000D+00 0.000000000000000D+00 -.879136571624420D+03
 0.489266455714987D+03 -.294170528154839D+02 -.110001689545680D+03 -.467012503734806D+03
 0.548153966654403D+03 -.293868897049438D+03 0.197140670806920D+03 0.418627995265129D+03
 0.387683409641915D+03 -.207011584709596D+03 0.202684408601122D+03 0.257611452419367D+03
 0.282129356715957D+03 0.149115885570735D+03 -.725965644702870D+02 -.209226943949690D+03
 0.191116961205603D+04 0.381181649003783D+03 -.217226825392075D+03 0.186012965753446D+04
-.206691052793D-06 0.000000000000D+00 0.000000000000D+00 0.674663738957D-06 0.000000000000D+00  7 -2 2 23 -11 11 23 21 2 0.18501010D+00 0.28378693D+00 0.50229965D+06 0.50229965D+06 0.50229965D+06 0.10683696D+01  1  2 13  1  7  1       -2 -.384621988375D-07 0.100000000000D+01
0.252444642293D-03 0.000000000000D+00 0.000000000000D+00 0.674663738957D-06 0.343253995734D-10  7 -2 2 23 -11 11 23 21 2 0.18846982D+00 0.30242804D+00 0.50229965D+06 0.50229965D+06 0.50229965D+06 0.10683696D+01  1  2  1  1  7  1       -2 0.380786270506D-04 0.100000000000D+01
  </mgrwgt>
  </event>
  <event>
  8     66 0.53686478E-06 0.18699368E+03 0.75467711E-02 0.94752773E-01
       -2 -1    0    0    0  501 0.00000000E+00 0.00000000E+00 0.20730962E+03 0.20730986E+03 0.32000000E+00 0.0000E+00 0.9000E+01
        2 -1    0    0  501    0 0.00000000E+00 0.00000000E+00 -.86373067E+03 0.86373073E+03 0.32000000E+00 0.0000E+00 0.9000E+01
       25  2    1    2    0    0 -.52301356E+02 0.33062413E+03 -.54436560E+03 0.70580660E+03 0.29963529E+03 0.0000E+00 0.0000E+00
       23  2    1    2    0    0 0.52301356E+02 -.33062413E+03 -.11205545E+03 0.36523399E+03 0.93764057E+02 0.0000E+00 0.0000E+00
       23  1    3    3    0    0 0.68154007E+02 0.24161986E+03 -.38685397E+03 0.47010251E+03 0.91188000E+02 0.0000E+00 0.9000E+01
      -13  1    4    4    0    0 -.23075672E+02 -.47069102E+02 -.40279679E+01 0.52575875E+02 0.10565837E+00 0.0000E+00 0.9000E+01
       13  1    4    4    0    0 0.75377028E+02 -.28355502E+03 -.10802749E+03 0.31265812E+03 0.10565837E+00 0.0000E+00 0.9000E+01
       23  1    3    3    0    0 -.12045536E+03 0.89004271E+02 -.15751163E+03 0.23570410E+03 0.91188000E+02 0.0000E+00 0.9000E+01
#aMCatNLO 1  0  0  1  2 0.18174573D+03 0.00000000D+00  -5  7  0 0.00000000D+00 0.00000000D+00 0.00000000D+00 0.00000000D+00 0.00000000D+00
  <mgrwgt>
 0.2541336070D-03    9    2    0
 0.423154625953470D+03 0.000000000000000D+00 0.000000000000000D+00 0.423154625953470D+03
 0.423154625953470D+03 0.000000000000000D+00 0.000000000000000D+00 -.423154625953470D+03
 0.294880124689171D+03 0.681540065393231D+02 0.241619855292375D+03 -.124955646186281D+03
 0.634125010695746D+02 -.230757953560075D+02 -.470688019167513D+02 0.356816598087602D+02
 0.311893416374447D+03 0.753771515599590D+02 -.283555324882645D+03 0.105793033471627D+03
 0.176123209773746D+03 -.120455362743275D+03 0.890042715070219D+02 -.165190470941061D+02
 0.000000000000000D+00 0.000000000000000D+00 -.000000000000000D+00 0.000000000000000D+00
 0.529755786795264D+03 0.000000000000000D+00 0.000000000000000D+00 0.529755786795264D+03
 0.517975652226133D+03 0.000000000000000D+00 0.000000000000000D+00 -.517975652226133D+03
 0.311981475463711D+03 0.106727615232846D+02 0.270720092228394D+03 -.124955646186281D+03
 0.647139607973090D+02 -.352117890418052D+02 -.409248798146430D+02 0.356816598087602D+02
 0.277058148903460D+03 0.195923248090321D+02 -.255313910218892D+03 0.105793033471627D+03
 0.211850747707706D+03 -.157203817587370D+03 0.107608404780360D+03 -.165190470941061D+02
 0.182127106149211D+03 0.162150520296858D+03 -.820897069752183D+02 0.117801345691312D+02
0.542978725478D-05 0.000000000000D+00 0.000000000000D+00 0.105353699718D-06 0.000000000000D+00  7 -2 2 23 -13 13 23 21 0 0.31893811D-01 0.13288167D+00 0.15534124D+06 0.15534124D+06 0.15534124D+06 0.11063547D+01  1  2  2  1  7  1       -2 0.188538097758D-03 0.100000000000D+01
-.299803473361D-06 0.000000000000D+00 -.208518127542D-07 0.105353699718D-06 0.000000000000D+00  7 -2 2 23 -13 13 23 21 2 0.31893811D-01 0.13288167D+00 0.15534124D+06 0.15534124D+06 0.15534124D+06 0.11063547D+01  1  2  3  1  7  1       -2 -.127421225246D-04 0.100000000000D+01
0.352994724801D-06 0.000000000000D+00 0.000000000000D+00 0.105353699718D-06 0.000000000000D+00  7 -2 2 23 -13 13 23 21 2 0.31893811D-01 0.13288167D+00 0.15534124D+06 0.15534124D+06 0.15534124D+06 0.11063547D+01  1  2 15  1  7  1       -2 0.150028349690D-04 0.100000000000D+01
0.174090107881D-05 0.000000000000D+00 0.000000000000D+00 0.105353699718D-06 0.000000000000D+00  7 -2 2 23 -13 13 23 21 2 0.42711350D-01 0.13288167D+00 0.24446530D+06 0.24446530D+06 0.24446530D+06 0.10911913D+01  1  2 12  1  7  1       -2 0.416296972902D-04 0.100000000000D+01
-.214795994982D-05 0.000000000000D+00 0.000000000000D+00 0.105353699718D-06 0.000000000000D+00  7 -2 2 23 -13 13 23 21 2 0.31893811D-01 0.13288167D+00 0.15534124D+06 0.15534124D+06 0.15534124D+06 0.11063547D+01  1  2  4  1  7  1       -2 -.912917003652D-04 0.100000000000D+01
-.403391791043D-05 0.000000000000D+00 -.215894112244D-05 0.105353699718D-06 0.000000000000D+00  7 -2 2 23 -13 13 23 21 2 0.48456881D-01 0.13288167D+00 0.15534124D+06 0.15534124D+06 0.15534124D+06 0.11063547D+01  1  2  5  1  7  1       -2 -.786098297054D-04 0.100000000000D+01
0.469611603562D-05 0.000000000000D+00 0.198294595842D-05 0.105353699718D-06 0.000000000000D+00  7 -2 2 23 -13 13 23 21 2 0.31893811D-01 0.13288167D+00 0.15534124D+06 0.15534124D+06 0.15534124D+06 0.11063547D+01  1  2  6  1  7  1       -2 0.199592370444D-03 0.100000000000D+01
0.660008547185D-07 0.000000000000D+00 0.000000000000D+00 0.105353699718D-06 0.000000000000D+00  7 21 2 23 -13 13 23 2 2 0.42711350D-01 0.13288167D+00 0.24446530D+06 0.24446530D+06 0.24446530D+06 0.10911913D+01  1  2 12  3  7  1       -2 0.170661326343D-04 0.100000000000D+01
-.120221036095D-06 0.000000000000D+00 -.106205513145D-06 0.105353699718D-06 0.000000000000D+00  7 21 2 23 -13 13 23 2 2 0.48456881D-01 0.13288167D+00 0.15534124D+06 0.15534124D+06 0.15534124D+06 0.11063547D+01  1  2  5  3  7  1       -2 -.250518734597D-04 0.100000000000D+01
  </mgrwgt>
  </event>
  <event>
  8     66 0.53686478E-06 0.20748677E+03 0.75467711E-02 0.99451128E-01
       -2 -1    0    0    0  501 0.00000000E+00 0.00000000E+00 0.92850962E+02 0.92851514E+02 0.32000000E+00 0.0000E+00 0.9000E+01
        2 -1    0    0  501    0 0.00000000E+00 0.00000000E+00 -.49790551E+03 0.49790561E+03 0.32000000E+00 0.0000E+00 0.9000E+01
       25  2    1    2    0    0 -.42201781E+02 -.45544270E+02 -.36060550E+03 0.47320689E+03 0.30005526E+03 0.0000E+00 0.0000E+00
       23  2    1    2    0    0 0.42201781E+02 0.45544270E+02 -.44449041E+02 0.11755023E+03 0.89370403E+02 0.0000E+00 0.0000E+00
       23  1    3    3    0    0 0.87511973E+02 -.72309083E+02 -.17178949E+03 0.22519731E+03 0.91188000E+02 0.0000E+00 0.9000E+01
      -11  1    4    4    0    0 0.37379983E+02 0.72291321E+02 -.36793642E+02 0.89314446E+02 0.51099893E-03 0.0000E+00 0.9000E+01
       11  1    4    4    0    0 0.48217979E+01 -.26747051E+02 -.76553998E+01 0.28235786E+02 0.51099893E-03 0.0000E+00 0.9000E+01
       23  1    3    3    0    0 -.12971375E+03 0.26764813E+02 -.18881601E+03 0.24800958E+03 0.91188000E+02 0.0000E+00 0.9000E+01
#aMCatNLO 1  0  0  2  2 0.20554532D+03 0.00000000D+00  -5  7  0 0.00000000D+00 0.00000000D+00 0.00000000D+00 0.00000000D+00 0.00000000D+00
  <mgrwgt>
 0.2473219658D-03    3    2    0
 0.215014414980736D+03 0.000000000000000D+00 0.000000000000000D+00 0.215014414980736D+03
 0.215014414980736D+03 0.000000000000000D+00 0.000000000000000D+00 -.215014414980736D+03
 0.147554763528116D+03 0.875119730397187D+02 -.723090832443763D+02 -.238790274276735D+02
 0.880399430257746D+02 0.373799835103754D+02 0.722913210427195D+02 0.335817406136753D+02
 0.315784341344977D+02 0.482179798148402D+01 -.267470504493769D+02 0.160792742022473D+02
 0.162855689273084D+03 -.129713754531578D+03 0.267648126510337D+02 -.257819873882490D+02
 0.000000000000000D+00 -.000000000000000D+00 -.000000000000000D+00 0.000000000000000D+00
 0.395637347358667D+03 0.000000000000000D+00 0.000000000000000D+00 0.395637347358667D+03
 0.305450578613471D+03 0.000000000000000D+00 0.000000000000000D+00 -.305450578613471D+03
 0.135965815423869D+03 0.975874863853155D+02 -.882758007507323D+01 -.238790274276735D+02
 0.134507448404719D+03 0.452886835443346D+02 0.122120659662995D+03 0.335817406136753D+02
 0.227350766543539D+02 0.675194536204494D+01 -.145860167775940D+02 0.160792742022473D+02
 0.183419052834774D+03 -.117408137076058D+03 0.104297248637955D+03 -.257819873882490D+02
 0.224460532654422D+03 -.322199782156374D+02 -.203004311448283D+03 0.901867687451962D+02
0.956573907004D-06 0.000000000000D+00 0.000000000000D+00 0.390494414892D-07 0.000000000000D+00  7 -2 2 23 -11 11 23 21 0 0.14284814D-01 0.76600898D-01 0.43050760D+05 0.43050760D+05 0.43050760D+05 0.11530561D+01  1  2  2  2  7  2        2 0.244208487259D-03 0.100000000000D+01
-.530609329092D-07 0.000000000000D+00 -.367349567459D-08 0.390494414892D-07 0.000000000000D+00  7 -2 2 23 -11 11 23 21 2 0.14284814D-01 0.76600898D-01 0.43050760D+05 0.43050760D+05 0.43050760D+05 0.11530561D+01  1  2  3  2  7  2        2 -.180101756285D-04 0.100000000000D+01
0.622337515790D-07 0.000000000000D+00 0.000000000000D+00 0.390494414892D-07 0.000000000000D+00  7 -2 2 23 -11 11 23 21 2 0.14284814D-01 0.76600898D-01 0.43050760D+05 0.43050760D+05 0.43050760D+05 0.11530561D+01  1  2 15  2  7  2        2 0.211236541559D-04 0.100000000000D+01
  </mgrwgt>
  </event>
  <event>
  8     66 0.53686478E-06 0.33310477E+03 0.75467711E-02 0.97696981E-01
       -2 -1    0    0    0  501 0.00000000E+00 0.00000000E+00 0.84228932E+03 0.84228939E+03 0.32000000E+00 0.0000E+00 0.9000E+01
        2 -1    0    0  501    0 0.00000000E+00 0.00000000E+00 -.16082314E+03 0.16082346E+03 0.32000000E+00 0.0000E+00 0.9000E+01
       25  2    1    2    0    0 0.25854237E+03 0.12908571E+03 0.50111053E+03 0.65086759E+03 0.29834472E+03 0.0000E+00 0.0000E+00
       23  2    1    2    0    0 -.25854237E+03 -.12908571E+03 0.18035565E+03 0.35224526E+03 0.89673188E+02 0.0000E+00 0.0000E+00
       23  1    3    3    0    0 0.18308862E+03 0.41906665E+01 0.13158994E+03 0.24324919E+03 0.91188000E+02 0.0000E+00 0.9000E+01
      -13  1    4    4    0    0 -.81786191E+02 -.31412731E+02 0.10487040E+03 0.13665121E+03 0.10565837E+00 0.0000E+00 0.9000E+01
       13  1    4    4    0    0 -.17675618E+03 -.97672977E+02 0.75485248E+02 0.21559404E+03 0.10565837E+00 0.0000E+00 0.9000E+01
       23  1    3    3    0    0 0.75453756E+02 0.12489504E+03 0.36952059E+03 0.40761840E+03 0.91188000E+02 0.0000E+00 0.9000E+01
#aMCatNLO 1  0  0  1  2 0.94505779D+02 0.00000000D+00  -5  7  0 0.00000000D+00 0.00000000D+00 0.00000000D+00 0.00000000D+00 0.00000000D+00
  <mgrwgt>
 0.1032608119D-03    4    2    0
 0.368048641570284D+03 0.000000000000000D+00 0.000000000000000D+00 0.368048641570284D+03
 0.368048641570284D+03 0.000000000000000D+00 0.000000000000000D+00 -.368048641570284D+03
 0.209662894686602D+03 0.183088615301000D+03 0.419066674334321D+01 -.458723808382982D+02
 0.891333441859144D+02 -.817860586861973D+02 -.314126390272528D+02 0.164024315174945D+02
 0.223916935334434D+03 -.176756312658475D+03 -.976730694360832D+02 -.967262703296183D+02
 0.213384108933618D+03 0.754537560436727D+02 0.124895041719993D+03 0.126196219650422D+03
 0.000000000000000D+00 0.000000000000000D+00 -.000000000000000D+00 -.000000000000000D+00
 0.401806984383725D+03 0.000000000000000D+00 0.000000000000000D+00 0.401806984383725D+03
 0.443711895839473D+03 0.000000000000000D+00 0.000000000000000D+00 -.443711895839473D+03
 0.205418006467098D+03 0.175769873978349D+03 0.296981836949379D+02 -.458723808382982D+02
 0.888843266387469D+02 -.849248812145412D+02 -.204731119528379D+02 0.164024315174945D+02
 0.219959931152779D+03 -.184582786861214D+03 -.703959852222017D+02 -.967262703296183D+02
 0.227876908982201D+03 0.676734047027188D+02 0.152011377025427D+03 0.126196219650422D+03
 0.103379706982374D+03 0.260643893946870D+02 -.908404635453256D+02 -.419049114557479D+02
0.134744006038D-04 0.000000000000D+00 0.000000000000D+00 0.366263562295D-07 0.000000000000D+00  7 -2 2 23 -13 13 23 21 0 0.12958300D+00 0.24742050D-01 0.11095879D+06 0.11095879D+06 0.11095879D+06 0.11180347D+01  1  2  2  1  7  1       -2 0.161477069984D-03 0.100000000000D+01
-.739520187575D-06 0.000000000000D+00 -.517452462098D-07 0.366263562295D-07 0.000000000000D+00  7 -2 2 23 -13 13 23 21 2 0.12958300D+00 0.24742050D-01 0.11095879D+06 0.11095879D+06 0.11095879D+06 0.11180347D+01  1  2  3  1  7  1       -2 -.110780171879D-04 0.100000000000D+01
0.854777797145D-06 0.000000000000D+00 0.000000000000D+00 0.366263562295D-07 0.000000000000D+00  7 -2 2 23 -13 13 23 21 2 0.12958300D+00 0.24742050D-01 0.11095879D+06 0.11095879D+06 0.11095879D+06 0.11180347D+01  1  2 15  1  7  1       -2 0.128045769239D-04 0.100000000000D+01
-.400152149160D-05 0.000000000000D+00 0.000000000000D+00 0.366263562295D-07 0.000000000000D+00  7 -2 2 23 -13 13 23 21 2 0.12958300D+00 0.24742050D-01 0.11095879D+06 0.11095879D+06 0.11095879D+06 0.11180347D+01  1  2  4  1  7  1       -2 -.599428177978D-04 0.100000000000D+01
  </mgrwgt>
  </event>
  <event>
  8     66 0.53686478E-06 0.12101435E+03 0.75467711E-02 0.10402057E+00
       -2 -1    0    0    0  501 0.00000000E+00 0.00000000E+00 0.16144183E+04 0.16144183E+04 0.32000000E+00 0.0000E+00 0.9000E+01
        2 -1    0    0  501    0 0.00000000E+00 0.00000000E+00 -.12759145E+03 0.12759185E+03 0.32000000E+00 0.0000E+00 0.9000E+01
       25  2    1    2    0    0 0.54781584E+02 0.95652372E+02 0.80836955E+02 0.32924077E+03 0.29952375E+03 0.0000E+00 0.0000E+00
       23  2    1    2    0    0 -.54781584E+02 -.95652372E+02 0.14059899E+04 0.14127694E+04 0.83422990E+02 0.0000E+00 0.0000E+00
       23  1    3    3    0    0 -.56625414E+02 0.59439490E+02 0.12419838E+03 0.17458517E+03 0.91188000E+02 0.0000E+00 0.9000E+01
      -11  1    4    4    0    0 0.22091449E+02 -.28558165E+02 0.34458357E+03 0.34646997E+03 0.51099893E-03 0.0000E+00 0.9000E+01
       11  1    4    4    0    0 -.76873034E+02 -.67094207E+02 0.10614063E+04 0.10662994E+04 0.51099893E-03 0.0000E+00 0.9000E+01
       23  1    3    3    0    0 0.11140700E+03 0.36212882E+02 -.43361428E+02 0.15465561E+03 0.91188000E+02 0.0000E+00 0.9000E+01
#aMCatNLO 1  0  0  2  1 0.57079985D+02 0.00000000D+00  -5  7  0 0.00000000D+00 0.00000000D+00 0.00000000D+00 0.00000000D+00 0.00000000D+00
  <mgrwgt>
 0.6531739811D-03    9    2    0
 0.453857178449658D+03 0.000000000000000D+00 0.000000000000000D+00 0.453857178449658D+03
 0.453857178449658D+03 0.000000000000000D+00 0.000000000000000D+00 -.453857178449658D+03
 0.131613698651126D+03 -.566254143214584D+02 0.594394896965598D+02 -.476174741682622D+02
 0.100492079192645D+03 0.220914494140131D+02 -.285581650699412D+02 0.937819654895697D+02
 0.307780781205624D+03 -.768730336998095D+02 -.670942066504354D+02 0.290375469699630D+03
 0.367827797849921D+03 0.111406998607255D+03 0.362128820238168D+02 -.336539961020938D+03
 0.000000000000000D+00 -.000000000000000D+00 -.000000000000000D+00 -.000000000000000D+00
 0.482636021435901D+03 0.000000000000000D+00 0.000000000000000D+00 0.482636021435901D+03
 0.483966745446030D+03 0.000000000000000D+00 0.000000000000000D+00 -.483966745446030D+03
 0.128476481078909D+03 -.484633502751904D+02 0.597899212272300D+02 -.476174741682622D+02
 0.102001441917949D+03 0.284460341583294D+02 -.282853361817946D+02 0.937819654895697D+02
 0.303378159078865D+03 -.576938458572352D+02 -.662707639385691D+02 0.290375469699630D+03
 0.375651190239648D+03 0.134738610451040D+03 0.372146056570882D+02 -.336539961020938D+03
 0.570954945665599D+02 -.570274484769439D+02 -.244842676395454D+01 -.133072401012864D+01
0.174268406607D-03 0.000000000000D+00 0.000000000000D+00 0.188854106458D-07 0.000000000000D+00  7 -2 2 23 -11 11 23 21 0 0.24837208D+00 0.19629486D-01 0.41879669D+05 0.41879669D+05 0.41879669D+05 0.11541275D+01  1  2  2  2  7  2        2 0.404498216493D-03 0.100000000000D+01
-.221357789045D-05 0.000000000000D+00 -.669236567296D-06 0.188854106458D-07 0.000000000000D+00  7 -2 2 23 -11 11 23 21 2 0.24837208D+00 0.19629486D-01 0.41879669D+05 0.41879669D+05 0.41879669D+05 0.11541275D+01  1  2  3  2  7  2        2 -.684384790623D-05 0.100000000000D+01
0.102469506814D-04 0.000000000000D+00 0.000000000000D+00 0.188854106458D-07 0.000000000000D+00  7 -2 2 23 -11 11 23 21 2 0.24837208D+00 0.19629486D-01 0.41879669D+05 0.41879669D+05 0.41879669D+05 0.11541275D+01  1  2 15  2  7  2        2 0.316810952390D-04 0.100000000000D+01
0.242206512748D-03 0.000000000000D+00 0.000000000000D+00 0.188854106458D-07 0.000000000000D+00  7 -2 2 23 -11 11 23 21 2 0.24837208D+00 0.21514779D-01 0.55527296D+05 0.55527296D+05 0.55527296D+05 0.11433114D+01  1  2 12  2  7  2        2 0.652923613031D-03 0.100000000000D+01
-.203434823874D-03 0.000000000000D+00 0.000000000000D+00 0.188854106458D-07 0.000000000000D+00  7 -2 2 23 -11 11 23 21 2 0.24837208D+00 0.19629486D-01 0.41879669D+05 0.41879669D+05 0.41879669D+05 0.11541275D+01  1  2  4  2  7  2        2 -.628971313561D-03 0.100000000000D+01
-.553103977370D-03 0.000000000000D+00 -.198563735400D-03 0.188854106458D-07 0.000000000000D+00  7 -2 2 23 -11 11 23 21 2 0.24837208D+00 0.22385572D-01 0.41879669D+05 0.41879669D+05 0.41879669D+05 0.11541275D+01  1  2  5  2  7  2        2 -.146731965943D-02 0.100000000000D+01
0.575915771869D-03 0.000000000000D+00 0.196862201442D-03 0.188854106458D-07 0.000000000000D+00  7 -2 2 23 -11 11 23 21 2 0.24837208D+00 0.19629486D-01 0.41879669D+05 0.41879669D+05 0.41879669D+05 0.11541275D+01  1  2  6  2  7  2        2 0.178059239138D-02 0.100000000000D+01
0.364892603020D-05 0.000000000000D+00 0.000000000000D+00 0.188854106458D-07 0.000000000000D+00  7 -2 21 23 -11 11 23 -2 2 0.24837208D+00 0.21514779D-01 0.55527296D+05 0.55527296D+05 0.55527296D+05 0.11433114D+01  1  2 12  4  7  2        2 0.664497898840D-04 0.100000000000D+01
-.102349427027D-04 0.000000000000D+00 -.406356397546D-05 0.188854106458D-07 0.000000000000D+00  7 -2 21 23 -11 11 23 -2 2 0.24837208D+00 0.22385572D-01 0.41879669D+05 0.41879669D+05 0.41879669D+05 0.11541275D+01  1  2  5  4  7  2        2 -.179836303982D-03 0.100000000000D+01
  </mgrwgt>
  </event>
  <event>
  8     66 0.53686478E-06 0.18256273E+03 0.75467711E-02 0.98128442E-01
       -2 -1    0    0    0  501 0.00000000E+00 0.00000000E+00 0.80454438E+02 0.80455074E+02 0.32000000E+00 0.0000E+00 0.9000E+01
        2 -1    0    0  501    0 0.00000000E+00 0.00000000E+00 -.25903720E+04 0.25903720E+04 0.32000000E+00 0.0000E+00 0.9000E+01
       25  2    1    2    0    0 0.22056006E+03 -.23372454E+03 -.67705402E+03 0.80776095E+03 0.30133320E+03 0.0000E+00 0.0000E+00
       23  2    1    2    0    0 -.22056006E+03 0.23372454E+03 -.18328635E+04 0.18630662E+04 0.91393761E+02 0.0000E+00 0.0000E+00
       23  1    3    3    0    0 0.22382617E+03 -.13175549E+03 -.30251409E+03 0.40900818E+03 0.91188000E+02 0.0000E+00 0.9000E+01
      -13  1    4    4    0    0 -.45889938E+02 0.33956955E+02 -.17435723E+03 0.18346503E+03 0.10565837E+00 0.0000E+00 0.9000E+01
       13  1    4    4    0    0 -.17467012E+03 0.19976759E+03 -.16585063E+04 0.16796011E+04 0.10565837E+00 0.0000E+00 0.9000E+01
       23  1    3    3    0    0 -.32661178E+01 -.10196905E+03 -.37453994E+03 0.39875277E+03 0.91188000E+02 0.0000E+00 0.9000E+01
#aMCatNLO 1  0  0  2  1 0.82085216D+01 0.00000000D+00  -5  7  0 0.00000000D+00 0.00000000D+00 0.00000000D+00 0.00000000D+00 0.00000000D+00
  <mgrwgt>
 0.5884515063D-03   11    2    0
 0.456517030692807D+03 0.000000000000000D+00 0.000000000000000D+00 0.456517030692807D+03
 0.456517030692807D+03 0.000000000000000D+00 0.000000000000000D+00 -.456517030692807D+03
 0.364832721532327D+03 0.223826174591319D+03 -.131755487123835D+03 0.239436836216280D+03
 0.573699613677854D+02 -.458897660193651D+02 0.339567337494575D+02 -.569052502828871D+01
 0.353996028859250D+03 -.174670291336959D+03 0.199767807094961D+03 -.234299596715085D+03
 0.136835349626251D+03 -.326611723499565D+01 -.101969053720583D+03 0.553285527093692D+00
 0.000000000000000D+00 0.000000000000000D+00 0.000000000000000D+00 -.000000000000000D+00
 0.460086761648445D+03 0.000000000000000D+00 0.000000000000000D+00 0.460086761648445D+03
 0.461278825206160D+03 0.000000000000000D+00 0.000000000000000D+00 -.461278825206160D+03
 0.364310030452275D+03 0.221558049122296D+03 -.134121509371161D+03 0.239436836216280D+03
 0.574374024484367D+02 -.462468943117252D+02 0.335841910941178D+02 -.569052502828871D+01
 0.353800547361177D+03 -.176872015810039D+03 0.197471051841809D+03 -.234299596715085D+03
 0.137522979235661D+03 -.411955658090803D+01 -.102859329195529D+03 0.553285527093692D+00
 0.829462735705516D+01 0.568041758037622D+01 0.592559563076382D+01 -.119206355771556D+01
0.759641415248D-05 0.000000000000D+00 0.000000000000D+00 0.299829687843D-06 0.000000000000D+00  7 -2 2 23 -13 13 23 21 0 0.12377656D-01 0.39851882D+00 0.13489162D+06 0.13489162D+06 0.13489162D+06 0.11112088D+01  1  2  2  2  7  2        2 0.137261779081D-03 0.100000000000D+01
-.397746496677D-06 0.000000000000D+00 -.291722305273D-07 0.299829687843D-06 0.000000000000D+00  7 -2 2 23 -13 13 23 21 2 0.12377656D-01 0.39851882D+00 0.13489162D+06 0.13489162D+06 0.13489162D+06 0.11112088D+01  1  2  3  2  7  2        2 -.887439410885D-05 0.100000000000D+01
0.477610880312D-06 0.000000000000D+00 0.000000000000D+00 0.299829687843D-06 0.000000000000D+00  7 -2 2 23 -13 13 23 21 2 0.12377656D-01 0.39851882D+00 0.13489162D+06 0.13489162D+06 0.13489162D+06 0.11112088D+01  1  2 15  2  7  2        2 0.106563029919D-04 0.100000000000D+01
0.327299723953D-05 0.000000000000D+00 0.000000000000D+00 0.299829687843D-06 0.000000000000D+00  7 -2 2 23 -13 13 23 21 2 0.12377656D-01 0.40421956D+00 0.13784953D+06 0.13784953D+06 0.13784953D+06 0.11104586D+01  1  2 12  2  7  2        2 0.693350916445D-04 0.100000000000D+01
-.291466952446D-05 0.000000000000D+00 0.000000000000D+00 0.299829687843D-06 0.000000000000D+00  7 -2 2 23 -13 13 23 21 2 0.12377656D-01 0.39851882D+00 0.13489162D+06 0.13489162D+06 0.13489162D+06 0.11112088D+01  1  2  4  2  7  2        2 -.650311851223D-04 0.100000000000D+01
-.417956269371D-03 0.000000000000D+00 -.483326683301D-04 0.299829687843D-06 0.000000000000D+00  7 -2 2 23 -13 13 23 21 2 0.12377656D-01 0.40393659D+00 0.13489162D+06 0.13489162D+06 0.13489162D+06 0.11112088D+01  1  2  5  2  7  2        2 -.889576827502D-02 0.100000000000D+01
0.418575159293D-03 0.000000000000D+00 0.483282622699D-04 0.299829687843D-06 0.000000000000D+00  7 -2 2 23 -13 13 23 21 2 0.12377656D-01 0.39851882D+00 0.13489162D+06 0.13489162D+06 0.13489162D+06 0.11112088D+01  1  2  6  2  7  2        2 0.933911664534D-02 0.100000000000D+01
0.173892173359D-06 0.000000000000D+00 0.000000000000D+00 0.299829687843D-06 0.292663774507D-07  7 -2 2 23 -13 13 23 21 2 0.12474443D-01 0.40267565D+00 0.13784953D+06 0.13784953D+06 0.13784953D+06 0.11104586D+01  1  2 11  2  7  2        2 0.368811033028D-05 0.100000000000D+01
0.185592118240D-06 0.000000000000D+00 0.000000000000D+00 0.299829687843D-06 0.000000000000D+00  7 -2 21 23 -13 13 23 -2 2 0.12377656D-01 0.40421956D+00 0.13784953D+06 0.13784953D+06 0.13784953D+06 0.11104586D+01  1  2 12  4  7  2        2 0.418988506525D-06 0.100000000000D+01
-.103383931983D-05 0.000000000000D+00 -.119929436393D-06 0.299829687843D-06 0.000000000000D+00  7 -2 21 23 -13 13 23 -2 2 0.12377656D-01 0.40393659D+00 0.13489162D+06 0.13489162D+06 0.13489162D+06 0.11112088D+01  1  2  5  4  7  2        2 -.235281606154D-05 0.100000000000D+01
0.550909542489D-09 0.000000000000D+00 0.000000000000D+00 0.299829687843D-06 0.561820342535D-10  7 -2 21 23 -13 13 23 -2 2 0.12474443D-01 0.40267565D+00 0.13784953D+06 0.13784953D+06 0.13784953D+06 0.11104586D+01  1  2 11  4  7  2        2 0.125873827704D-08 0.100000000000D+01
  </mgrwgt>
  </event>
  <event>
  8     66 0.53686478E-06 0.24207189E+03 0.75467711E-02 0.87882389E-01
       -2 -1    0    0    0  501 0.00000000E+00 0.00000000E+00 0.49610734E+03 0.49610745E+03 0.32000000E+00 0.0000E+00 0.9000E+01
        2 -1    0    0  501    0 0.00000000E+00 0.00000000E+00 -.13510562E+03 0.13510600E+03 0.32000000E+00 0.0000E+00 0.9000E+01
       25  2    1    2    0    0 0.14890106E+02 0.13568944E+03 0.14463951E+03 0.35983846E+03 0.29988295E+03 0.0000E+00 0.0000E+00
       23  2    1    2    0    0 -.14890106E+02 -.13568944E+03 0.21636221E+03 0.27137499E+03 0.90545235E+02 0.0000E+00 0.0000E+00
       23  1    3    3    0    0 -.96455616E+02 0.12510852E+02 0.95900897E+02 0.16423289E+03 0.91188000E+02 0.0000E+00 0.9000E+01
      -13  1    4    4    0    0 -.45699156E+02 -.11635955E+03 0.14631098E+03 0.19244446E+03 0.10565837E+00 0.0000E+00 0.9000E+01
       13  1    4    4    0    0 0.30809050E+02 -.19329897E+02 0.70051228E+02 0.78930527E+02 0.10565837E+00 0.0000E+00 0.9000E+01
       23  1    3    3    0    0 0.11134572E+03 0.12317859E+03 0.48738616E+02 0.19560557E+03 0.91188000E+02 0.0000E+00 0.9000E+01
#aMCatNLO 1  0  0  2  1 0.89770027D+03 0.00000000D+00  -5  7  0 0.00000000D+00 0.00000000D+00 0.00000000D+00 0.00000000D+00 0.00000000D+00
  <mgrwgt>
 0.2027823718D-03    5    2    0
 0.258895814874548D+03 0.000000000000000D+00 0.000000000000000D+00 0.258895814874548D+03
 0.258895814874548D+03 0.000000000000000D+00 0.000000000000000D+00 -.258895814874548D+03
 0.133346335444613D+03 -.964556149634826D+02 0.125108527690612D+02 0.240556386620612D+01
 0.132592095201472D+03 -.456992601141628D+02 -.116359679128155D+03 0.441889851447969D+02
 0.473807123401691D+02 0.308091537084466D+02 -.193297657563807D+02 0.303659036657007D+02
 0.204472486762843D+03 0.111345721369199D+03 0.123178592115475D+03 -.769604526767037D+02
 0.000000000000000D+00 0.000000000000000D+00 0.000000000000000D+00 -.000000000000000D+00
 0.781939727275991D+03 0.000000000000000D+00 0.000000000000000D+00 0.781939727275991D+03
 0.128194165362931D+04 0.000000000000000D+00 0.000000000000000D+00 -.128194165362931D+04
 0.370026213042671D+03 -.302412854912778D+03 -.192729928762215D+03 0.240556386620612D+01
 0.463894377429769D+03 -.289754499001162D+03 -.359565929019160D+03 0.441889851447969D+02
 0.806496335407287D+02 -.215750630046536D+02 -.715317547748162D+02 0.303659036657007D+02
 0.121756921409404D+03 -.221325715956499D+02 -.983537317319659D+01 -.769604526767037D+02
 0.102755423548273D+04 0.635874988514243D+03 0.633662985729387D+03 -.500001926353324D+03
0.334160416708D-05 0.000000000000D+00 0.000000000000D+00 0.157540492875D-06 0.000000000000D+00  7 -2 2 23 -13 13 23 21 0 0.76324244D-01 0.20785517D-01 0.58598799D+05 0.58598799D+05 0.58598799D+05 0.11412822D+01  1  2  2  2  7  2        2 0.174512131947D-03 0.100000000000D+01
-.184625648372D-06 0.000000000000D+00 -.128326398662D-07 0.157540492875D-06 0.000000000000D+00  7 -2 2 23 -13 13 23 21 2 0.76324244D-01 0.20785517D-01 0.58598799D+05 0.58598799D+05 0.58598799D+05 0.11412822D+01  1  2  3  2  7  2        2 -.125588177993D-04 0.100000000000D+01
0.211412973712D-06 0.000000000000D+00 0.000000000000D+00 0.157540492875D-06 0.000000000000D+00  7 -2 2 23 -13 13 23 21 2 0.76324244D-01 0.20785517D-01 0.58598799D+05 0.58598799D+05 0.58598799D+05 0.11412822D+01  1  2 15  2  7  2        2 0.143809759948D-04 0.100000000000D+01
0.793801030875D-05 0.000000000000D+00 -.306306003226D-05 0.157540492875D-06 0.000000000000D+00  7 -2 2 23 -13 13 23 21 2 0.76324244D-01 0.24974675D+00 0.58598799D+05 0.58598799D+05 0.58598799D+05 0.11412822D+01  1  2  5  2  7  2        2 0.246921536157D-04 0.100000000000D+01
0.171652735128D-05 0.000000000000D+00 -.886216389316D-06 0.157540492875D-06 0.000000000000D+00  7 -2 21 23 -13 13 23 -2 2 0.76324244D-01 0.24974675D+00 0.58598799D+05 0.58598799D+05 0.58598799D+05 0.11412822D+01  1  2  5  4  7  2        2 0.175592803698D-05 0.100000000000D+01
  </mgrwgt>
  </event>
  <event>
  8     66 0.53686478E-06 0.14322280E+03 0.75467711E-02 0.10010122E+00
       -2 -1    0    0    0  501 0.00000000E+00 0.00000000E+00 0.14805564E+03 0.14805599E+03 0.32000000E+00 0.0000E+00 0.9000E+01
        2 -1    0    0  501    0 0.00000000E+00 0.00000000E+00 -.71741137E+03 0.71741144E+03 0.32000000E+00 0.0000E+00 0.9000E+01
       25  2    1    2    0    0 0.12037122E+03 0.20389965E+03 -.41406789E+03 0.56364127E+03 0.30029146E+03 0.0000E+00 0.0000E+00
       23  2    1    2    0    0 -.12037122E+03 -.20389965E+03 -.15528784E+03 0.30182616E+03 0.10450081E+03 0.0000E+00 0.0000E+00
       23  1    3    3    0    0 -.42366892E+02 0.16260737E+03 -.19874520E+03 0.27577349E+03 0.91188000E+02 0.0000E+00 0.9000E+01
      -11  1    4    4    0    0 -.69552409E+02 -.68981245E+02 -.11712294E+03 0.15268835E+03 0.51099893E-03 0.0000E+00 0.9000E+01
       11  1    4    4    0    0 -.50818811E+02 -.13491840E+03 -.38164909E+02 0.14913781E+03 0.51099893E-03 0.0000E+00 0.9000E+01
       23  1    3    3    0    0 0.16273811E+03 0.41292275E+02 -.21532269E+03 0.28786778E+03 0.91188000E+02 0.0000E+00 0.9000E+01
#aMCatNLO 1  0  0  1  2 0.96369973D+01 0.00000000D+00  -5  7  0 0.00000000D+00 0.00000000D+00 0.00000000D+00 0.00000000D+00 0.00000000D+00
  <mgrwgt>
 0.1364743506D-03   11    2    0
 0.325909465428326D+03 0.000000000000000D+00 0.000000000000000D+00 0.325909465428326D+03
 0.325909465428326D+03 0.000000000000000D+00 0.000000000000000D+00 -.325909465428326D+03
 0.192563068836056D+03 -.423668921237093D+02 0.162607374046542D+03 -.230037495427478D+02
 0.100430003676530D+03 -.695524090159420D+02 -.689812452496601D+02 -.221412701160778D+02
 0.164684554313628D+03 -.508188116865240D+02 -.134918403386255D+03 0.795956986020702D+02
 0.194141304030440D+03 0.162738112826175D+03 0.412922745893729D+02 -.344506789432446D+02
 0.000000000000000D+00 0.000000000000000D+00 -.000000000000000D+00 0.000000000000000D+00
 0.338401339141553D+03 0.000000000000000D+00 0.000000000000000D+00 0.338401339141553D+03
 0.327809041082715D+03 0.000000000000000D+00 0.000000000000000D+00 -.327809041082715D+03
 0.195062585803857D+03 -.432786425674454D+02 0.165323766110566D+03 -.230037495427478D+02
 0.998013292123127D+02 -.700233814720372D+02 -.675780697964425D+02 -.221412701160778D+02
 0.163050573599028D+03 -.515896911283913D+02 -.132621710456086D+03 0.795956986020702D+02
 0.193975678775401D+03 0.161825206709000D+03 0.440121097689767D+02 -.344506789432446D+02
 0.143202128336684D+02 0.306650845887372D+01 -.913609562701439D+01 0.105922980588381D+02
0.127554841449D-05 0.000000000000D+00 0.000000000000D+00 0.393483596221D-08 0.000000000000D+00  7 -2 2 23 -11 11 23 21 0 0.22777823D-01 0.11037101D+00 0.97461062D+05 0.97461062D+05 0.97461062D+05 0.11226397D+01  1  2  2  1  7  1       -2 0.100721065645D-03 0.100000000000D+01
-.707043758136D-07 0.000000000000D+00 -.489844177124D-08 0.393483596221D-08 0.000000000000D+00  7 -2 2 23 -11 11 23 21 2 0.22777823D-01 0.11037101D+00 0.97461062D+05 0.97461062D+05 0.97461062D+05 0.11226397D+01  1  2  3  1  7  1       -2 -.703639926147D-05 0.100000000000D+01
0.818896380108D-07 0.000000000000D+00 0.000000000000D+00 0.393483596221D-08 0.000000000000D+00  7 -2 2 23 -11 11 23 21 2 0.22777823D-01 0.11037101D+00 0.97461062D+05 0.97461062D+05 0.97461062D+05 0.11226397D+01  1  2 15  1  7  1       -2 0.814954070086D-05 0.100000000000D+01
0.544430381714D-05 0.000000000000D+00 0.000000000000D+00 0.393483596221D-08 0.000000000000D+00  7 -2 2 23 -11 11 23 21 2 0.23715736D-01 0.11037101D+00 0.10044055D+06 0.10044055D+06 0.10044055D+06 0.11215654D+01  1  2 12  1  7  1       -2 0.505102978258D-03 0.100000000000D+01
-.554158825964D-05 0.000000000000D+00 0.000000000000D+00 0.393483596221D-08 0.000000000000D+00  7 -2 2 23 -11 11 23 21 2 0.22777823D-01 0.11037101D+00 0.97461062D+05 0.97461062D+05 0.97461062D+05 0.11226397D+01  1  2  4  1  7  1       -2 -.551491008708D-03 0.100000000000D+01
-.357935386413D-04 0.000000000000D+00 -.386108281095D-05 0.393483596221D-08 0.000000000000D+00  7 -2 2 23 -11 11 23 21 2 0.23768106D-01 0.11037101D+00 0.97461062D+05 0.97461062D+05 0.97461062D+05 0.11226397D+01  1  2  5  1  7  1       -2 -.331537343942D-02 0.100000000000D+01
0.359288088265D-04 0.000000000000D+00 0.385758901231D-05 0.393483596221D-08 0.000000000000D+00  7 -2 2 23 -11 11 23 21 2 0.22777823D-01 0.11037101D+00 0.97461062D+05 0.97461062D+05 0.97461062D+05 0.11226397D+01  1  2  6  1  7  1       -2 0.357558412734D-02 0.100000000000D+01
0.391265247440D-10 0.000000000000D+00 0.000000000000D+00 0.393483596221D-08 0.284538275508D-09  7 -2 2 23 -11 11 23 21 2 0.23650880D-01 0.11101431D+00 0.10044055D+06 0.10044055D+06 0.10044055D+06 0.11215654D+01  1  2 11  1  7  1       -2 0.362128219301D-08 0.100000000000D+01
0.109873441999D-06 0.000000000000D+00 0.000000000000D+00 0.393483596221D-08 0.000000000000D+00  7 21 2 23 -11 11 23 2 2 0.23715736D-01 0.11037101D+00 0.10044055D+06 0.10044055D+06 0.10044055D+06 0.11215654D+01  1  2 12  3  7  1       -2 0.126583049506D-03 0.100000000000D+01
-.265749895468D-06 0.000000000000D+00 -.289347505311D-07 0.393483596221D-08 0.000000000000D+00  7 21 2 23 -11 11 23 2 2 0.23768106D-01 0.11037101D+00 0.97461062D+05 0.97461062D+05 0.97461062D+05 0.11226397D+01  1  2  5  3  7  1       -2 -.305769500529D-03 0.100000000000D+01
0.274590202243D-12 0.000000000000D+00 0.000000000000D+00 0.393483596221D-08 0.188259162585D-11  7 21 2 23 -11 11 23 2 2 0.23650880D-01 0.11101431D+00 0.10044055D+06 0.10044055D+06 0.10044055D+06 0.11215654D+01  1  2 11  3  7  1       -2 0.315755641619D-09 0.100000000000D+01
  </mgrwgt>
  </event>
  <event>
  8     66 0.53686478E-06 0.85098239E+02 0.75467711E-02 0.96977932E-01
       -2 -1    0    0    0  501 0.00000000E+00 0.00000000E+00 0.22724641E+03 0.22724664E+03 0.32000000E+00 0.0000E+00 0.9000E+01
        2 -1    0    0  501    0 0.00000000E+00 0.00000000E+00 -.15913487E+04 0.15913488E+04 0.32000000E+00 0.0000E+00 0.9000E+01
       25  2    1    2    0    0 -.25956072E+03 0.19835644E+03 -.32708075E+02 0.44464474E+03 0.29987011E+03 0.0000E+00 0.0000E+00
       23  2    1    2    0    0 0.25956072E+03 -.19835644E+03 -.13313942E+04 0.13739507E+04 0.91721051E+02 0.0000E+00 0.0000E+00
       23  1    3    3    0    0 -.19641657E+03 0.21147121E+03 0.48517533E+02 0.30654322E+03 0.91188000E+02 0.0000E+00 0.9000E+01
      -13  1    4    4    0    0 0.22779793E+03 -.19876852E+03 -.12607699E+04 0.12965113E+04 0.10565837E+00 0.0000E+00 0.9000E+01
       13  1    4    4    0    0 0.31762793E+02 0.41207198E+00 -.70624326E+02 0.77439340E+02 0.10565837E+00 0.0000E+00 0.9000E+01
       23  1    3    3    0    0 -.63144144E+02 -.13114763E+02 -.81225608E+02 0.13810152E+03 0.91188000E+02 0.0000E+00 0.9000E+01
#aMCatNLO 1  0  0  1  2 0.68638762D+02 0.00000000D+00  -5  7  0 0.00000000D+00 0.00000000D+00 0.00000000D+00 0.00000000D+00 0.00000000D+00
  <mgrwgt>
 0.1775429372D-03    9    2    0
 0.601355574098236D+03 0.000000000000000D+00 0.000000000000000D+00 0.601355574098236D+03
 0.601355574098236D+03 0.000000000000000D+00 0.000000000000000D+00 -.601355574098236D+03
 0.518545924021470D+03 -.196416574256537D+03 0.211471206814081D+03 0.421040475514175D+03
 0.530477458917920D+03 0.227798185482174D+03 -.198768779835527D+03 -.435895966113175D+03
 0.369924514776763D+02 0.317625328910952D+02 0.412336282386544D+00 -.189581895090369D+02
 0.116695313779405D+03 -.631441441167328D+02 -.131147632609400D+02 0.338136801080368D+02
 0.000000000000000D+00 0.000000000000000D+00 -.000000000000000D+00 0.000000000000000D+00
 0.992874994462638D+03 0.000000000000000D+00 0.000000000000000D+00 0.992874994462638D+03
 0.605349950209573D+03 0.000000000000000D+00 0.000000000000000D+00 -.605349950209573D+03
 0.535293964799340D+03 -.221887892407760D+03 0.227409451404811D+03 0.421040475514175D+03
 0.514302670998231D+03 0.202545841772782D+03 -.182967554781529D+03 -.435895966113175D+03
 0.355284764650192D+02 0.300097015095490D+02 0.150914073983663D+01 -.189581895090369D+02
 0.119543051840861D+03 -.688540272157411D+02 -.954190091922014D+01 0.338136801080368D+02
 0.393556780568759D+03 0.581863763411694D+02 -.364091364438979D+02 0.387525044253065D+03
0.187119782953D-04 0.000000000000D+00 0.000000000000D+00 0.290467000184D-05 0.000000000000D+00  7 -2 2 23 -13 13 23 21 0 0.34961007D-01 0.24482290D+00 0.14004795D+06 0.14004795D+06 0.14004795D+06 0.11099124D+01  1  2  2  1  7  1       -2 0.209644733716D-03 0.100000000000D+01
-.755196734318D-06 0.000000000000D+00 -.718589236311D-07 0.290467000184D-05 0.000000000000D+00  7 -2 2 23 -13 13 23 21 2 0.34961007D-01 0.24482290D+00 0.14004795D+06 0.14004795D+06 0.14004795D+06 0.11099124D+01  1  2  3  1  7  1       -2 -.104232165322D-04 0.100000000000D+01
0.109390811609D-05 0.000000000000D+00 0.000000000000D+00 0.290467000184D-05 0.000000000000D+00  7 -2 2 23 -13 13 23 21 2 0.34961007D-01 0.24482290D+00 0.14004795D+06 0.14004795D+06 0.14004795D+06 0.11099124D+01  1  2 15  1  7  1       -2 0.150981070789D-04 0.100000000000D+01
0.263600190337D-03 0.000000000000D+00 0.000000000000D+00 0.290467000184D-05 0.000000000000D+00  7 -2 2 23 -13 13 23 21 2 0.57773379D-01 0.24482290D+00 0.16681092D+06 0.16681092D+06 0.16681092D+06 0.11039296D+01  1  2 12  1  7  1       -2 0.136021530585D-02 0.100000000000D+01
-.237711460070D-03 0.000000000000D+00 0.000000000000D+00 0.290467000184D-05 0.000000000000D+00  7 -2 2 23 -13 13 23 21 2 0.34961007D-01 0.24482290D+00 0.14004795D+06 0.14004795D+06 0.14004795D+06 0.11099124D+01  1  2  4  1  7  1       -2 -.328089080353D-02 0.100000000000D+01
-.262871344274D-03 0.000000000000D+00 -.664347229515D-05 0.290467000184D-05 0.000000000000D+00  7 -2 2 23 -13 13 23 21 2 0.57878927D-01 0.24482290D+00 0.14004795D+06 0.14004795D+06 0.14004795D+06 0.11099124D+01  1  2  5  1  7  1       -2 -.137767975523D-02 0.100000000000D+01
0.236314176282D-03 0.000000000000D+00 0.588031102634D-05 0.290467000184D-05 0.000000000000D+00  7 -2 2 23 -13 13 23 21 2 0.34961007D-01 0.24482290D+00 0.14004795D+06 0.14004795D+06 0.14004795D+06 0.11099124D+01  1  2  6  1  7  1       -2 0.326160550897D-02 0.100000000000D+01
0.149165433072D-04 0.000000000000D+00 0.000000000000D+00 0.290467000184D-05 0.000000000000D+00  7 21 2 23 -13 13 23 2 2 0.57773379D-01 0.24482290D+00 0.16681092D+06 0.16681092D+06 0.16681092D+06 0.11039296D+01  1  2 12  3  7  1       -2 0.795425281765D-03 0.100000000000D+01
-.146158302067D-04 0.000000000000D+00 -.377024743175D-06 0.290467000184D-05 0.000000000000D+00  7 21 2 23 -13 13 23 2 2 0.57878927D-01 0.24482290D+00 0.14004795D+06 0.14004795D+06 0.14004795D+06 0.11099124D+01  1  2  5  3  7  1       -2 -.795452224895D-03 0.100000000000D+01
  </mgrwgt>
  </event>
  <event>
  8     66 0.53686478E-06 0.48442591E+03 0.75467711E-02 0.92748675E-01
       -2 -1    0    0    0  501 0.00000000E+00 0.00000000E+00 0.12443729E+04 0.12443729E+04 0.32000000E+00 0.0000E+00 0.9000E+01
        2 -1    0    0  501    0 0.00000000E+00 0.00000000E+00 -.23825865E+03 0.23825887E+03 0.32000000E+00 0.0000E+00 0.9000E+01
       25  2    1    2    0    0 -.11921496E+03 -.43149660E+03 0.83505180E+03 0.99371331E+03 0.29958823E+03 0.0000E+00 0.0000E+00
       23  2    1    2    0    0 0.11921496E+03 0.43149660E+03 0.17106241E+03 0.48891846E+03 0.96836938E+02 0.0000E+00 0.0000E+00
       23  1    3    3    0    0 -.89980457E+02 -.39328822E+03 0.76308916E+03 0.86798181E+03 0.91188000E+02 0.0000E+00 0.9000E+01
      -13  1    4    4    0    0 0.59953655E+02 0.11063350E+03 0.83723184E+02 0.15114164E+03 0.10565837E+00 0.0000E+00 0.9000E+01
       13  1    4    4    0    0 0.59261304E+02 0.32086310E+03 0.87339228E+02 0.33777683E+03 0.10565837E+00 0.0000E+00 0.9000E+01
       23  1    3    3    0    0 -.29234502E+02 -.38208385E+02 0.71962640E+02 0.12573150E+03 0.91188000E+02 0.0000E+00 0.9000E+01
#aMCatNLO 1  0  0  1  1 0.19739784D+03 0.00000000D+00  -5  7  0 0.00000000D+00 0.00000000D+00 0.00000000D+00 0.00000000D+00 0.00000000D+00
  <mgrwgt>
 0.2109833738D-03    4    2    0
 0.544502332174738D+03 0.000000000000000D+00 0.000000000000000D+00 0.544502332174738D+03
 0.544502332174738D+03 0.000000000000000D+00 0.000000000000000D+00 -.544502332174738D+03
 0.476712886691661D+03 -.899804574203911D+02 -.393288215613790D+03 0.236997514197163D+03
 0.128421837952078D+03 0.599536550757750D+02 0.110633246530447D+03 -.256517537057068D+02
 0.379177202550591D+03 0.592613040680743D+02 0.320863354109940D+03 -.193158372232639D+03
 0.104692737155146D+03 -.292345017234582D+02 -.382083850265973D+02 -.181873882588178D+02
 0.000000000000000D+00 0.000000000000000D+00 -.000000000000000D+00 -.000000000000000D+00
 0.583501170833135D+03 0.000000000000000D+00 0.000000000000000D+00 0.583501170833135D+03
 0.876734964213331D+03 0.000000000000000D+00 0.000000000000000D+00 -.876734964213331D+03
 0.437570376725354D+03 -.139688718090050D+03 -.327828954710062D+03 0.236997514197163D+03
 0.139913177669565D+03 0.453646677924829D+02 0.129845029683445D+03 -.256517537057068D+02
 0.425179311292382D+03 0.155296020220224D+02 0.378452271031024D+03 -.193158372232639D+03
 0.104087814533116D+03 -.405855988082813D+02 -.232604786704108D+02 -.181873882588178D+02
 0.353485454826050D+03 0.119380047083826D+03 -.157207867333995D+03 -.293233793380196D+03
0.910567567844D-04 0.000000000000D+00 0.000000000000D+00 0.634728003479D-07 0.000000000000D+00  7 -2 2 23 -13 13 23 21 0 0.19144200D+00 0.36655197D-01 0.23466846D+06 0.23466846D+06 0.23466846D+06 0.10925329D+01  1  2  2  1  7  1       -2 0.228616182490D-03 0.100000000000D+01
-.497464519105D-05 0.000000000000D+00 -.349681921847D-06 0.634728003479D-07 0.000000000000D+00  7 -2 2 23 -13 13 23 21 2 0.19144200D+00 0.36655197D-01 0.23466846D+06 0.23466846D+06 0.23466846D+06 0.10925329D+01  1  2  3  1  7  1       -2 -.149082242325D-04 0.100000000000D+01
0.548355894505D-05 0.000000000000D+00 0.000000000000D+00 0.634728003479D-07 0.000000000000D+00  7 -2 2 23 -13 13 23 21 2 0.19144200D+00 0.36655197D-01 0.23466846D+06 0.23466846D+06 0.23466846D+06 0.10925329D+01  1  2 15  1  7  1       -2 0.164333582005D-04 0.100000000000D+01
-.639271087123D-05 0.000000000000D+00 0.000000000000D+00 0.634728003479D-07 0.000000000000D+00  7 -2 2 23 -13 13 23 21 2 0.19144200D+00 0.36655197D-01 0.23466846D+06 0.23466846D+06 0.23466846D+06 0.10925329D+01  1  2  4  1  7  1       -2 -.191579426194D-04 0.100000000000D+01
  </mgrwgt>
  </event>
  <event>
  8     66 0.53686478E-06 0.53934668E+03 0.75467711E-02 0.87202383E-01
       -2 -1    0    0    0  501 0.00000000E+00 0.00000000E+00 0.32208812E+03 0.32208828E+03 0.32000000E+00 0.0000E+00 0.9000E+01
        2 -1    0    0  501    0 0.00000000E+00 0.00000000E+00 -.16399587E+04 0.16399587E+04 0.32000000E+00 0.0000E+00 0.9000E+01
       25  2    1    2    0    0 0.48947763E+03 -.39477878E+03 -.10775820E+04 0.12832015E+04 0.29997416E+03 0.0000E+00 0.0000E+00
       23  2    1    2    0    0 -.48947763E+03 0.39477878E+03 -.24028860E+03 0.67884551E+03 0.87487002E+02 0.0000E+00 0.0000E+00
       23  1    3    3    0    0 0.38890425E+03 -.25498727E+03 -.91079060E+03 0.10267034E+04 0.91188000E+02 0.0000E+00 0.9000E+01
      -13  1    4    4    0    0 -.14649748E+03 0.91169335E+02 -.10167155E+03 0.20027600E+03 0.10565837E+00 0.0000E+00 0.9000E+01
       13  1    4    4    0    0 -.34298015E+03 0.30360945E+03 -.13861705E+03 0.47856951E+03 0.10565837E+00 0.0000E+00 0.9000E+01
       23  1    3    3    0    0 0.10057338E+03 -.13979151E+03 -.16679136E+03 0.25649811E+03 0.91188000E+02 0.0000E+00 0.9000E+01
#aMCatNLO 1  0  0  2  1 0.61077961D+03 0.00000000D+00  -5  7  0 0.00000000D+00 0.00000000D+00 0.00000000D+00 0.00000000D+00 0.00000000D+00
  <mgrwgt>
 0.3488112666D-03    8    2    0
 0.726781527458678D+03 0.000000000000000D+00 0.000000000000000D+00 0.726781527458678D+03
 0.726781527458678D+03 0.000000000000000D+00 0.000000000000000D+00 -.726781527458678D+03
 0.560096869564479D+03 0.388904251643212D+03 -.254987272096791D+03 -.298543507841654D+03
 0.178155498452464D+03 -.146497197100604D+03 0.911690254952074D+02 0.443414215014254D+02
 0.520305784089741D+03 -.342980435069661D+03 0.303609759277539D+03 0.246786636972306D+03
 0.195004902810672D+03 0.100573380527053D+03 -.139791512675956D+03 0.741544936792216D+01
 0.000000000000000D+00 -.000000000000000D+00 0.000000000000000D+00 -.000000000000000D+00
 0.975048827570856D+03 0.000000000000000D+00 0.000000000000000D+00 0.975048827570856D+03
 0.128783690317895D+04 0.000000000000000D+00 0.000000000000000D+00 -.128783690317895D+04
 0.782066571114835D+03 0.657680774236630D+03 -.285728268528725D+03 -.298543507841654D+03
 0.127732636328932D+03 -.852412079436364D+02 0.841629442871493D+02 0.443414215014254D+02
 0.406691321939398D+03 -.157343536417015D+03 0.282377758863020D+03 0.246786636972306D+03
 0.260182324187031D+03 0.191727435460528D+03 -.150217149745847D+03 0.741544936792216D+01
 0.686212877179611D+03 -.606823465336506D+03 0.694047151244023D+02 -.312788075608094D+03
0.456021479057D-04 0.000000000000D+00 0.000000000000D+00 0.330954937168D-06 0.000000000000D+00  7 -2 2 23 -13 13 23 21 0 0.49552033D-01 0.25230135D+00 0.42208874D+06 0.42208874D+06 0.42208874D+06 0.10737488D+01  1  2  2  2  7  2        2 0.236939029976D-03 0.100000000000D+01
-.249471626886D-05 0.000000000000D+00 -.175124255279D-06 0.330954937168D-06 0.000000000000D+00  7 -2 2 23 -13 13 23 21 2 0.49552033D-01 0.25230135D+00 0.42208874D+06 0.42208874D+06 0.42208874D+06 0.10737488D+01  1  2  3  2  7  2        2 -.149443789133D-04 0.100000000000D+01
0.273655610616D-05 0.000000000000D+00 0.000000000000D+00 0.330954937168D-06 0.000000000000D+00  7 -2 2 23 -13 13 23 21 2 0.49552033D-01 0.25230135D+00 0.42208874D+06 0.42208874D+06 0.42208874D+06 0.10737488D+01  1  2 15  2  7  2        2 0.163930992388D-04 0.100000000000D+01
0.921174387557D-07 0.000000000000D+00 0.000000000000D+00 0.330954937168D-06 0.000000000000D+00  7 -2 2 23 -13 13 23 21 2 0.49552033D-01 0.46325610D+00 0.10370801D+07 0.10370801D+07 0.10370801D+07 0.10468130D+01  1  2 12  2  7  2        2 0.795650713979D-07 0.100000000000D+01
-.143902594059D-04 0.000000000000D+00 -.122253803624D-04 0.330954937168D-06 0.000000000000D+00  7 -2 2 23 -13 13 23 21 2 0.49552033D-01 0.49208728D+00 0.42208874D+06 0.42208874D+06 0.42208874D+06 0.10737488D+01  1  2  5  2  7  2        2 -.105453097307D-04 0.100000000000D+01
0.201824441807D-04 0.000000000000D+00 0.992677732893D-05 0.330954937168D-06 0.000000000000D+00  7 -2 2 23 -13 13 23 21 2 0.49552033D-01 0.25230135D+00 0.42208874D+06 0.42208874D+06 0.42208874D+06 0.10737488D+01  1  2  6  2  7  2        2 0.120901160985D-03 0.100000000000D+01
0.611427901641D-08 0.000000000000D+00 0.000000000000D+00 0.330954937168D-06 0.000000000000D+00  7 -2 21 23 -13 13 23 -2 2 0.49552033D-01 0.46325610D+00 0.10370801D+07 0.10370801D+07 0.10370801D+07 0.10468130D+01  1  2 12  4  7  2        2 0.327026963579D-09 0.100000000000D+01
-.324273246922D-06 0.000000000000D+00 -.885043303983D-06 0.330954937168D-06 0.000000000000D+00  7 -2 21 23 -13 13 23 -2 2 0.49552033D-01 0.49208728D+00 0.42208874D+06 0.42208874D+06 0.42208874D+06 0.10737488D+01  1  2  5  4  7  2        2 -.122270484455D-07 0.100000000000D+01
  </mgrwgt>
  </event>
  <event>
  8     66 0.53686478E-06 0.16455321E+03 0.75467711E-02 0.99690433E-01
       -2 -1    0    0    0  501 0.00000000E+00 0.00000000E+00 0.82803454E+02 0.82804073E+02 0.32000000E+00 0.0000E+00 0.9000E+01
        2 -1    0    0  501    0 0.00000000E+00 0.00000000E+00 -.16364359E+04 0.16364359E+04 0.32000000E+00 0.0000E+00 0.9000E+01
       25  2    1    2    0    0 0.24482009E+03 0.10426200E+03 -.12116213E+04 0.12753590E+04 0.29615341E+03 0.0000E+00 0.0000E+00
       23  2    1    2    0    0 -.24482009E+03 -.10426200E+03 -.34201109E+03 0.44388100E+03 0.96183752E+02 0.0000E+00 0.0000E+00
       23  1    3    3    0    0 0.13462590E+03 0.12614526E+03 -.98656668E+03 0.10078025E+04 0.91188000E+02 0.0000E+00 0.9000E+01
      -13  1    4    4    0    0 -.55411102E+02 0.17065048E+02 -.67439409E+02 0.88936445E+02 0.10565837E+00 0.0000E+00 0.9000E+01
       13  1    4    4    0    0 -.18940899E+03 -.12132705E+03 -.27457168E+03 0.35494456E+03 0.10565837E+00 0.0000E+00 0.9000E+01
       23  1    3    3    0    0 0.11019419E+03 -.21883261E+02 -.22505462E+03 0.26755648E+03 0.91188000E+02 0.0000E+00 0.9000E+01
#aMCatNLO 1  0  0  1  2 0.20248070D+02 0.00000000D+00  -5  7  0 0.00000000D+00 0.00000000D+00 0.00000000D+00 0.00000000D+00 0.00000000D+00
  <mgrwgt>
 0.3500906345D-03    6    2    0
 0.368107456741896D+03 0.000000000000000D+00 0.000000000000000D+00 0.368107456741896D+03
 0.368107456741896D+03 0.000000000000000D+00 0.000000000000000D+00 -.368107456741896D+03
 0.271513549828163D+03 0.134625903720393D+03 0.126145261555339D+03 -.177108993083053D+03
 0.653706850984011D+02 -.554109400595499D+02 0.170652103548617D+02 0.301949132718677D+02
 0.249453737911466D+03 -.189409150400951D+03 -.121327211389112D+03 0.107847340620593D+03
 0.149876940645762D+03 0.110194186740108D+03 -.218832605210884D+02 0.390667391905920D+02
 0.000000000000000D+00 -.000000000000000D+00 -.000000000000000D+00 -.000000000000000D+00
 0.376325896988509D+03 0.000000000000000D+00 0.000000000000000D+00 0.376325896988509D+03
 0.380932993356874D+03 0.000000000000000D+00 0.000000000000000D+00 -.380932993356874D+03
 0.275147689124351D+03 0.134752980104415D+03 0.133660160139650D+03 -.177108993083053D+03
 0.658389138268325D+02 -.553804391932137D+02 0.188689358780040D+02 0.301949132718677D+02
 0.246123611189494D+03 -.189293948932400D+03 -.114514558042203D+03 0.107847340620593D+03
 0.149383087375648D+03 0.110263752459303D+03 -.177693621857534D+02 0.390667391905920D+02
 0.207655888290571D+02 -.342344438104561D+00 -.202451757896975D+02 -.460709636836551D+01
0.322020438819D-05 0.000000000000D+00 0.000000000000D+00 0.511845797904D-09 0.000000000000D+00  7 -2 2 23 -13 13 23 21 0 0.12739043D-01 0.25175941D+00 0.10030109D+06 0.10030109D+06 0.10030109D+06 0.11216149D+01  1  2  2  1  7  1       -2 0.187179476321D-03 0.100000000000D+01
-.173979396288D-06 0.000000000000D+00 -.123664327499D-07 0.511845797904D-09 0.000000000000D+00  7 -2 2 23 -13 13 23 21 2 0.12739043D-01 0.25175941D+00 0.10030109D+06 0.10030109D+06 0.10030109D+06 0.11216149D+01  1  2  3  1  7  1       -2 -.127221397523D-04 0.100000000000D+01
0.206140104038D-06 0.000000000000D+00 0.000000000000D+00 0.511845797904D-09 0.000000000000D+00  7 -2 2 23 -13 13 23 21 2 0.12739043D-01 0.25175941D+00 0.10030109D+06 0.10030109D+06 0.10030109D+06 0.11216149D+01  1  2 15  1  7  1       -2 0.150738723554D-04 0.100000000000D+01
0.472695923625D-05 0.000000000000D+00 0.000000000000D+00 0.511845797904D-09 0.000000000000D+00  7 -2 2 23 -13 13 23 21 2 0.13239212D-01 0.25175941D+00 0.10717222D+06 0.10717222D+06 0.10717222D+06 0.11192618D+01  1  2 12  1  7  1       -2 0.323501637423D-03 0.100000000000D+01
-.293098612371D-05 0.000000000000D+00 0.000000000000D+00 0.511845797904D-09 0.000000000000D+00  7 -2 2 23 -13 13 23 21 2 0.12739043D-01 0.25175941D+00 0.10030109D+06 0.10030109D+06 0.10030109D+06 0.11216149D+01  1  2  4  1  7  1       -2 -.214326614952D-03 0.100000000000D+01
0.542311769932D-07 0.000000000000D+00 0.000000000000D+00 0.511845797904D-09 0.000000000000D+00  7 21 2 23 -13 13 23 2 2 0.13239212D-01 0.25175941D+00 0.10717222D+06 0.10717222D+06 0.10717222D+06 0.11192618D+01  1  2 12  3  7  1       -2 0.513844031507D-04 0.100000000000D+01
  </mgrwgt>
  </event>
  <event>
  9     66 -.53686478E-06 0.43395888E+03 0.75467711E-02 0.95911332E-01
       -2 -1    0    0    0  502 0.00000000E+00 0.00000000E+00 0.99112564E+02 0.99113080E+02 0.32000000E+00 0.0000E+00 0.9000E+01
        2 -1    0    0  501    0 0.00000000E+00 0.00000000E+00 -.28046398E+04 0.28046398E+04 0.32000000E+00 0.0000E+00 0.9000E+01
       25  2    1    2    0    0 -.37581636E+03 0.67999371E+02 -.70083461E+03 0.85261571E+03 0.29987087E+03 0.0000E+00 0.0000E+00
       23  2    1    2    0    0 0.36559464E+03 -.92282649E+02 -.19677812E+04 0.20057811E+04 0.93911322E+02 0.0000E+00 0.0000E+00
       23  1    3    3    0    0 -.37362136E+03 0.42526722E+02 -.60287433E+03 0.71636175E+03 0.91188000E+02 0.0000E+00 0.9000E+01
      -11  1    4    4    0    0 0.32582874E+03 -.52612649E+02 -.17514600E+04 0.17822863E+04 0.51099893E-03 0.0000E+00 0.9000E+01
       11  1    4    4    0    0 0.39765894E+02 -.39670000E+02 -.21632126E+03 0.22349480E+03 0.51099893E-03 0.0000E+00 0.9000E+01
       23  1    3    3    0    0 -.21950050E+01 0.25472649E+02 -.97960283E+02 0.13625396E+03 0.91188000E+02 0.0000E+00 0.9000E+01
       21  1    1    2  501  502 0.10221725E+02 0.24283278E+02 -.36911398E+02 0.45356091E+02 0.75000000E+00 0.0000E+00 0.9000E+01
#aMCatNLO 2  0  0  1  2 0.26346940D+02 0.00000000D+00  -5  7  0 0.00000000D+00 0.00000000D+00 0.00000000D+00 0.00000000D+00 0.00000000D+00
  <mgrwgt>
 -.4348644355D-04    3    2    0
 0.511914947618593D+03 0.000000000000000D+00 0.000000000000000D+00 0.511914947618593D+03
 0.511914947618593D+03 0.000000000000000D+00 0.000000000000000D+00 -.511914947618593D+03
 0.425871307355394D+03 -.369357367899637D+03 0.526564870621595D+02 0.183993337469368D+03
 0.412725401017666D+03 0.329937949031717D+03 -.428506022531729D+02 -.244227419264255D+03
 0.595817946104221D+02 0.403632642512972D+02 -.382508557070712D+02 -.213932041932783D+02
 0.125651392253704D+03 -.943845383376811D+00 0.284449708980846D+02 0.816272859881646D+02
 0.000000000000000D+00 0.000000000000000D+00 0.000000000000000D+00 0.000000000000000D+00
 0.534865942690771D+03 0.000000000000000D+00 0.000000000000000D+00 0.534865942690771D+03
 0.519702011534133D+03 0.000000000000000D+00 0.000000000000000D+00 -.519702011534133D+03
 0.428450978870372D+03 -.373621358614971D+03 0.425267222410348D+02 0.183993337469368D+03
 0.410584332197275D+03 0.325828744443619D+03 -.526126488565157D+02 -.244227419264255D+03
 0.601057771489722D+02 0.397658940281961D+02 -.396700004180096D+02 -.213932041932783D+02
 0.125027753154547D+03 -.219500500519919D+01 0.254726490594909D+02 0.816272859881646D+02
 0.303991128537378D+02 0.102217251483548D+02 0.242832779739996D+02 0.151639311566376D+02
-.263311510308D-04 0.000000000000D+00 0.000000000000D+00 0.273884079484D-06 0.000000000000D+00  7 -2 2 23 -11 11 23 21 2 0.15355564D-01 0.42501412D+00 0.19989959D+06 0.19989959D+06 0.19989959D+06 0.10978421D+01  1  2 13  1  7  1       -2 -.316222341360D-03 0.100000000000D+01
-.144208308173D-04 0.000000000000D+00 0.000000000000D+00 0.273884079484D-06 0.000000000000D+00  7 -2 2 23 -11 11 23 21 2 0.14593705D-01 0.42501412D+00 0.18832031D+06 0.18832031D+06 0.18832031D+06 0.10998381D+01  1  2  8  1  7  1       -2 -.189203705115D-03 0.100000000000D+01
0.403159133862D-04 0.000000000000D+00 0.000000000000D+00 0.273884079484D-06 0.253818945806D-08  7 -2 2 23 -11 11 23 21 2 0.15247993D-01 0.43147928D+00 0.19989959D+06 0.19989959D+06 0.19989959D+06 0.10978421D+01  1  2  1  1  7  1       -2 0.461939602925D-03 0.100000000000D+01
  </mgrwgt>
  </event>
  <event>
  8     66 0.53686478E-06 0.33410689E+03 0.75467711E-02 0.89223513E-01
       -2 -1    0    0    0  501 0.00000000E+00 0.00000000E+00 0.46464729E+03 0.46464740E+03 0.32000000E+00 0.0000E+00 0.9000E+01
        2 -1    0    0  501    0 0.00000000E+00 0.00000000E+00 -.45421635E+03 0.45421646E+03 0.32000000E+00 0.0000E+00 0.9000E+01
       25  2    1    2    0    0 0.25891753E+03 0.44217344E+02 -.30236387E+03 0.50032905E+03 0.29985293E+03 0.0000E+00 0.0000E+00
       23  2    1    2    0    0 -.25891753E+03 -.44217344E+02 0.31279481E+03 0.41853482E+03 0.91309038E+02 0.0000E+00 0.0000E+00
       23  1    3    3    0    0 -.13245605E+02 -.36589141E+02 -.93393185E+02 0.13620481E+03 0.91188000E+02 0.0000E+00 0.9000E+01
      -13  1    4    4    0    0 -.22023401E+03 -.12040850E+02 0.28708589E+03 0.36203083E+03 0.10565837E+00 0.0000E+00 0.9000E+01
       13  1    4    4    0    0 -.38683519E+02 -.32176494E+02 0.25708927E+02 0.56503995E+02 0.10565837E+00 0.0000E+00 0.9000E+01
       23  1    3    3    0    0 0.27216314E+03 0.80806485E+02 -.20897068E+03 0.36412424E+03 0.91188000E+02 0.0000E+00 0.9000E+01
#aMCatNLO 1  0  0  1  2 0.71372004D+03 0.00000000D+00  -5  7  0 0.00000000D+00 0.00000000D+00 0.00000000D+00 0.00000000D+00 0.00000000D+00
  <mgrwgt>
 0.2543511932D-03    5    2    0
 0.459402330002157D+03 0.000000000000000D+00 0.000000000000000D+00 0.459402330002157D+03
 0.459402330002157D+03 0.000000000000000D+00 0.000000000000000D+00 -.459402330002157D+03
 0.137273852679761D+03 -.132456054323567D+02 -.365891410993196D+02 -.949455000296961D+02
 0.358795352562690D+03 -.220234257027504D+03 -.120408235119071D+02 0.282994691860613D+03
 0.562153648245047D+02 -.386832760831854D+02 -.321765207054726D+02 0.250687636135993D+02
 0.366520089937359D+03 0.272163138543046D+03 0.808064853166993D+02 -.213117955444516D+03
 0.000000000000000D+00 -.000000000000000D+00 -.000000000000000D+00 0.000000000000000D+00
 0.111232006335183D+04 0.000000000000000D+00 0.000000000000000D+00 0.111232006335183D+04
 0.821731305442535D+03 0.000000000000000D+00 0.000000000000000D+00 -.821731305442535D+03
 0.143937204603881D+03 0.327600935371050D+02 0.481123250397498D+02 -.949455000296961D+02
 0.364454684690587D+03 -.101911656860452D+03 0.205803876949851D+03 0.282994691860613D+03
 0.348772539393834D+02 -.237806629438864D+02 -.473919858066631D+01 0.250687636135993D+02
 0.620173293396750D+03 0.433584667295534D+03 0.378000973347877D+03 -.213117955444516D+03
 0.770608932163761D+03 -.340652441028300D+03 -.627177976756811D+03 0.290588757909291D+03
0.157265179558D-04 0.000000000000D+00 0.000000000000D+00 0.207296072131D-05 0.000000000000D+00  7 -2 2 23 -13 13 23 21 0 0.71484216D-01 0.69879456D-01 0.11162742D+06 0.11162742D+06 0.11162742D+06 0.11178228D+01  1  2  2  1  7  1       -2 0.243140273304D-03 0.100000000000D+01
-.765958157599D-06 0.000000000000D+00 -.603939698376D-07 0.207296072131D-05 0.000000000000D+00  7 -2 2 23 -13 13 23 21 2 0.71484216D-01 0.69879456D-01 0.11162742D+06 0.11162742D+06 0.11162742D+06 0.11178228D+01  1  2  3  1  7  1       -2 -.147970565711D-04 0.100000000000D+01
0.933139490802D-06 0.000000000000D+00 0.000000000000D+00 0.207296072131D-05 0.000000000000D+00  7 -2 2 23 -13 13 23 21 2 0.71484216D-01 0.69879456D-01 0.11162742D+06 0.11162742D+06 0.11162742D+06 0.11178228D+01  1  2 15  1  7  1       -2 0.180267259995D-04 0.100000000000D+01
0.559446202011D-05 0.000000000000D+00 -.503650327403D-05 0.207296072131D-05 0.000000000000D+00  7 -2 2 23 -13 13 23 21 2 0.25537326D+00 0.69879456D-01 0.11162742D+06 0.11162742D+06 0.11162742D+06 0.11178228D+01  1  2  5  1  7  1       -2 0.339032441734D-05 0.100000000000D+01
0.982621145428D-06 0.000000000000D+00 -.752763543585D-06 0.207296072131D-05 0.000000000000D+00  7 21 2 23 -13 13 23 2 2 0.25537326D+00 0.69879456D-01 0.11162742D+06 0.11162742D+06 0.11162742D+06 0.11178228D+01  1  2  5  3  7  1       -2 0.459092605621D-05 0.100000000000D+01
  </mgrwgt>
  </event>
  <event>
  8     66 0.53686478E-06 0.26896978E+03 0.75467711E-02 0.10006279E+00
       -2 -1    0    0    0  501 0.00000000E+00 0.00000000E+00 0.47762863E+02 0.47763935E+02 0.32000000E+00 0.0000E+00 0.9000E+01
        2 -1    0    0  501    0 0.00000000E+00 0.00000000E+00 -.19622376E+04 0.19622377E+04 0.32000000E+00 0.0000E+00 0.9000E+01
       25  2    1    2    0    0 0.48384215E+02 0.18785360E+03 -.15151792E+04 0.15566618E+04 0.29966335E+03 0.0000E+00 0.0000E+00
       23  2    1    2    0    0 -.48384215E+02 -.18785360E+03 -.39929559E+03 0.45333976E+03 0.91923674E+02 0.0000E+00 0.0000E+00
       23  1    3    3    0    0 0.19282316E+02 0.21498724E+03 -.12805221E+04 0.13017847E+04 0.91188000E+02 0.0000E+00 0.9000E+01
      -13  1    4    4    0    0 -.59150604E+02 -.10448441E+03 -.30063491E+03 0.32372388E+03 0.10565837E+00 0.0000E+00 0.9000E+01
       13  1    4    4    0    0 0.10766389E+02 -.83369188E+02 -.98660680E+02 0.12961588E+03 0.10565837E+00 0.0000E+00 0.9000E+01
       23  1    3    3    0    0 0.29101899E+02 -.27133645E+02 -.23465709E+03 0.25487714E+03 0.91188000E+02 0.0000E+00 0.9000E+01
#aMCatNLO 1  0  0  2  2 0.90722117D+02 0.00000000D+00  -5  7  0 0.00000000D+00 0.00000000D+00 0.00000000D+00 0.00000000D+00 0.00000000D+00
  <mgrwgt>
 0.2295681296D-03    4    2    0
 0.306142436463692D+03 0.000000000000000D+00 0.000000000000000D+00 0.306142436463692D+03
 0.306142436463692D+03 0.000000000000000D+00 0.000000000000000D+00 -.306142436463692D+03
 0.269583799969541D+03 0.192823159535146D+02 0.214987242129600D+03 -.133299856995403D+03
 0.122700328747533D+03 -.591506959185234D+02 -.104484436873014D+03 0.252896875907210D+02
 0.117012115066300D+03 0.107664805394182D+02 -.833691604231987D+02 0.813971809058175D+02
 0.102988629144009D+03 0.291018994255907D+02 -.271336448333870D+02 0.266129884988647D+02
 0.000000000000000D+00 -.000000000000000D+00 0.000000000000000D+00 0.000000000000000D+00
 0.496719301003181D+03 0.000000000000000D+00 0.000000000000000D+00 0.496719301003181D+03
 0.320474322830735D+03 0.000000000000000D+00 0.000000000000000D+00 -.320474322830735D+03
 0.243310395551354D+03 0.315102484986018D+02 0.179228763327536D+03 -.133299856995403D+03
 0.135852724344014D+03 -.529865214744768D+02 -.122510501408202D+03 0.252896875907210D+02
 0.130494059858563D+03 0.166672858866109D+02 -.100625047478895D+03 0.813971809058175D+02
 0.109312341430871D+03 0.341633759837523D+02 -.419350596714892D+02 0.266129884988647D+02
 0.198224102649113D+03 -.293543888944882D+02 0.858418452310500D+02 0.176244978172446D+03
0.268411264146D-05 0.000000000000D+00 0.000000000000D+00 0.185545947620D-06 0.000000000000D+00  7 -2 2 23 -13 13 23 21 0 0.73482172D-02 0.30188280D+00 0.72344745D+05 0.72344745D+05 0.72344745D+05 0.11334452D+01  1  2  2  2  7  2        2 0.245158547013D-03 0.100000000000D+01
-.146079119616D-06 0.000000000000D+00 -.103076992863D-07 0.185545947620D-06 0.000000000000D+00  7 -2 2 23 -13 13 23 21 2 0.73482172D-02 0.30188280D+00 0.72344745D+05 0.72344745D+05 0.72344745D+05 0.11334452D+01  1  2  3  2  7  2        2 -.171409747747D-04 0.100000000000D+01
0.173506109577D-06 0.000000000000D+00 0.000000000000D+00 0.185545947620D-06 0.000000000000D+00  7 -2 2 23 -13 13 23 21 2 0.73482172D-02 0.30188280D+00 0.72344745D+05 0.72344745D+05 0.72344745D+05 0.11334452D+01  1  2 15  2  7  2        2 0.203592673296D-04 0.100000000000D+01
-.160291922237D-06 0.000000000000D+00 0.000000000000D+00 0.185545947620D-06 0.000000000000D+00  7 -2 2 23 -13 13 23 21 2 0.73482172D-02 0.30188280D+00 0.72344745D+05 0.72344745D+05 0.72344745D+05 0.11334452D+01  1  2  4  2  7  2        2 -.188087099845D-04 0.100000000000D+01
  </mgrwgt>
  </event>
  <event>
  8     66 0.53686478E-06 0.25583694E+03 0.75467711E-02 0.92283807E-01
       -2 -1    0    0    0  501 0.00000000E+00 0.00000000E+00 0.15627001E+04 0.15627001E+04 0.32000000E+00 0.0000E+00 0.9000E+01
        2 -1    0    0  501    0 0.00000000E+00 0.00000000E+00 -.57102678E+03 0.57102687E+03 0.32000000E+00 0.0000E+00 0.9000E+01
       25  2    1    2    0    0 -.51712849E+03 -.14657954E+03 -.33414646E+03 0.70025383E+03 0.29965668E+03 0.0000E+00 0.0000E+00
       23  2    1    2    0    0 0.51712849E+03 0.14657954E+03 0.13258198E+04 0.14334731E+04 0.90220848E+02 0.0000E+00 0.0000E+00
       23  1    3    3    0    0 -.21884131E+03 0.24207487E+02 -.22632375E+03 0.32865668E+03 0.91188000E+02 0.0000E+00 0.9000E+01
      -13  1    4    4    0    0 0.36135093E+03 0.66464355E+02 0.95902906E+03 0.10269999E+04 0.10565837E+00 0.0000E+00 0.9000E+01
       13  1    4    4    0    0 0.15577756E+03 0.80115181E+02 0.36679069E+03 0.40647326E+03 0.10565837E+00 0.0000E+00 0.9000E+01
       23  1    3    3    0    0 -.29828718E+03 -.17078702E+03 -.10782271E+03 0.37159715E+03 0.91188000E+02 0.0000E+00 0.9000E+01
#aMCatNLO 1  0  0  2  1 0.93747463D+02 0.00000000D+00  -5  7  0 0.00000000D+00 0.00000000D+00 0.00000000D+00 0.00000000D+00 0.00000000D+00
  <mgrwgt>
 0.1118852875D-03    9    2    0
 0.944639465389564D+03 0.000000000000000D+00 0.000000000000000D+00 0.944639465389564D+03
 0.944639465389564D+03 0.000000000000000D+00 0.000000000000000D+00 -.944639465389564D+03
 0.489976800924037D+03 -.218841311299549D+03 0.242074872230004D+02 -.428117381252847D+03
 0.656491128184275D+03 0.361351215859442D+03 0.664643362265547D+02 0.544048152456681D+03
 0.266538419885156D+03 0.155777277941981D+03 0.801151994049591D+02 0.200892318858054D+03
 0.476272581785661D+03 -.298287182501875D+03 -.170787022854514D+03 -.316823090061889D+03
 0.000000000000000D+00 -.000000000000000D+00 -.000000000000000D+00 -.000000000000000D+00
 0.968350761119534D+03 0.000000000000000D+00 0.000000000000000D+00 0.968350761119534D+03
 0.104324023028511D+04 0.000000000000000D+00 0.000000000000000D+00 -.104324023028511D+04
 0.483547391308665D+03 -.201367176193100D+03 0.408606965021023D+02 -.428117381252847D+03
 0.672554160533239D+03 0.385206726716730D+03 0.891991275250197D+02 0.544048152456681D+03
 0.275204605552950D+03 0.165501217927254D+03 0.893823137202428D+02 0.200892318858054D+03
 0.460297253763864D+03 -.281476354405776D+03 -.154765958765567D+03 -.316823090061889D+03
 0.119987580245931D+03 -.678644140451068D+02 -.646761789817975D+02 -.748894691655813D+02
0.181143446760D-03 0.000000000000D+00 0.000000000000D+00 0.340202922296D-05 0.000000000000D+00  7 -2 2 23 -13 13 23 21 0 0.24041540D+00 0.87850283D-01 0.32291198D+06 0.32291198D+06 0.32291198D+06 0.10821950D+01  1  2  2  2  7  2        2 0.794910851277D-04 0.100000000000D+01
-.690297854062D-05 0.000000000000D+00 -.695638531725D-06 0.340202922296D-05 0.000000000000D+00  7 -2 2 23 -13 13 23 21 2 0.24041540D+00 0.87850283D-01 0.32291198D+06 0.32291198D+06 0.32291198D+06 0.10821950D+01  1  2  3  2  7  2        2 -.354767126394D-05 0.100000000000D+01
0.107488881824D-04 0.000000000000D+00 0.000000000000D+00 0.340202922296D-05 0.000000000000D+00  7 -2 2 23 -13 13 23 21 2 0.24041540D+00 0.87850283D-01 0.32291198D+06 0.32291198D+06 0.32291198D+06 0.10821950D+01  1  2 15  2  7  2        2 0.552421270031D-05 0.100000000000D+01
0.587952421071D-03 0.000000000000D+00 0.000000000000D+00 0.340202922296D-05 0.000000000000D+00  7 -2 2 23 -13 13 23 21 2 0.24041540D+00 0.98045252D-01 0.38189322D+06 0.38189322D+06 0.38189322D+06 0.10768809D+01  1  2 12  2  7  2        2 0.260281209142D-03 0.100000000000D+01
-.595866535645D-03 0.000000000000D+00 0.000000000000D+00 0.340202922296D-05 0.000000000000D+00  7 -2 2 23 -13 13 23 21 2 0.24041540D+00 0.87850283D-01 0.32291198D+06 0.32291198D+06 0.32291198D+06 0.10821950D+01  1  2  4  2  7  2        2 -.306235717410D-03 0.100000000000D+01
-.109837501533D-02 0.000000000000D+00 -.215502671114D-03 0.340202922296D-05 0.000000000000D+00  7 -2 2 23 -13 13 23 21 2 0.24041540D+00 0.98653155D-01 0.32291198D+06 0.32291198D+06 0.32291198D+06 0.10821950D+01  1  2  5  2  7  2        2 -.492368091907D-03 0.100000000000D+01
0.111728697408D-02 0.000000000000D+00 0.214061442846D-03 0.340202922296D-05 0.000000000000D+00  7 -2 2 23 -13 13 23 21 2 0.24041540D+00 0.87850283D-01 0.32291198D+06 0.32291198D+06 0.32291198D+06 0.10821950D+01  1  2  6  2  7  2        2 0.574211098613D-03 0.100000000000D+01
0.103470545564D-04 0.000000000000D+00 0.000000000000D+00 0.340202922296D-05 0.000000000000D+00  7 -2 21 23 -13 13 23 -2 2 0.24041540D+00 0.98045252D-01 0.38189322D+06 0.38189322D+06 0.38189322D+06 0.10768809D+01  1  2 12  4  7  2        2 0.617108396707D-05 0.100000000000D+01
-.193135991603D-04 0.000000000000D+00 -.397299614851D-05 0.340202922296D-05 0.000000000000D+00  7 -2 21 23 -13 13 23 -2 2 0.24041540D+00 0.98653155D-01 0.32291198D+06 0.32291198D+06 0.32291198D+06 0.10821950D+01  1  2  5  4  7  2        2 -.116419215145D-04 0.100000000000D+01
  </mgrwgt>
  </event>
  <event>
  8     66 0.53686478E-06 0.34314456E+03 0.75467711E-02 0.92553175E-01
       -2 -1    0    0    0  501 0.00000000E+00 0.00000000E+00 0.25130661E+03 0.25130681E+03 0.32000000E+00 0.0000E+00 0.9000E+01
        2 -1    0    0  501    0 0.00000000E+00 0.00000000E+00 -.13833666E+04 0.13833667E+04 0.32000000E+00 0.0000E+00 0.9000E+01
       25  2    1    2    0    0 0.37298843E+03 -.38883488E+03 -.72543937E+03 0.95219793E+03 0.30017609E+03 0.0000E+00 0.0000E+00
       23  2    1    2    0    0 -.37298843E+03 0.38883488E+03 -.40662064E+03 0.68247554E+03 0.10059609E+03 0.0000E+00 0.0000E+00
       23  1    3    3    0    0 0.35018904E+03 -.22009736E+03 -.50550114E+03 0.65948606E+03 0.91188000E+02 0.0000E+00 0.9000E+01
      -13  1    4    4    0    0 -.13098422E+02 0.29331081E+02 -.56328126E+02 0.64844043E+02 0.10565837E+00 0.0000E+00 0.9000E+01
       13  1    4    4    0    0 -.35989001E+03 0.35950380E+03 -.35029251E+03 0.61763149E+03 0.10565837E+00 0.0000E+00 0.9000E+01
       23  1    3    3    0    0 0.22799397E+02 -.16873752E+03 -.21993823E+03 0.29271187E+03 0.91188000E+02 0.0000E+00 0.9000E+01
#aMCatNLO 1  0  0  2  1 0.47369850D+02 0.00000000D+00  -5  7  0 0.00000000D+00 0.00000000D+00 0.00000000D+00 0.00000000D+00 0.00000000D+00
  <mgrwgt>
 0.3213269664D-03    9    2    0
 0.589617986225011D+03 0.000000000000000D+00 0.000000000000000D+00 0.589617986225011D+03
 0.589617986225011D+03 0.000000000000000D+00 0.000000000000000D+00 -.589617986225011D+03
 0.428910539878182D+03 0.350189036810521D+03 -.220097358310540D+03 -.676298102691062D+02
 0.358124989299288D+02 -.130980398678532D+02 0.293307162859718D+02 -.158330512971478D+02
 0.519891107311236D+03 -.359890393858861D+03 0.359504166248790D+03 0.107342546640087D+03
 0.194621826330675D+03 0.227993969161937D+02 -.168737524224222D+03 -.238796850738328D+02
 0.000000000000000D+00 -.000000000000000D+00 0.000000000000000D+00 -.000000000000000D+00
 0.600168741081853D+03 0.000000000000000D+00 0.000000000000000D+00 0.600168741081853D+03
 0.645772172115205D+03 0.000000000000000D+00 0.000000000000000D+00 -.645772172115205D+03
 0.438746300305668D+03 0.351004155355798D+03 -.237498118674315D+03 -.676298102691062D+02
 0.346398386435934D+02 -.130318535551836D+02 0.279178025781459D+02 -.158330512971478D+02
 0.505208477626100D+03 -.358927366030646D+03 0.338945909343076D+03 0.107342546640087D+03
 0.201592394632980D+03 0.231716196019984D+02 -.176683555872226D+03 -.238796850738328D+02
 0.657539019887166D+02 -.221655537196676D+01 0.473179626253190D+02 -.456034310333517D+02
0.149132197884D-04 0.000000000000D+00 0.000000000000D+00 0.430172085618D-07 0.000000000000D+00  7 -2 2 23 -13 13 23 21 0 0.38662574D-01 0.21282565D+00 0.33495599D+06 0.33495599D+06 0.33495599D+06 0.10810282D+01  1  2  2  2  7  2        2 0.174887024315D-03 0.100000000000D+01
-.828163796301D-06 0.000000000000D+00 -.572706907284D-07 0.430172085618D-07 0.000000000000D+00  7 -2 2 23 -13 13 23 21 2 0.38662574D-01 0.21282565D+00 0.33495599D+06 0.33495599D+06 0.33495599D+06 0.10810282D+01  1  2  3  2  7  2        2 -.113494920408D-04 0.100000000000D+01
0.916283902684D-06 0.000000000000D+00 0.000000000000D+00 0.430172085618D-07 0.000000000000D+00  7 -2 2 23 -13 13 23 21 2 0.38662574D-01 0.21282565D+00 0.33495599D+06 0.33495599D+06 0.33495599D+06 0.10810282D+01  1  2 15  2  7  2        2 0.125571256641D-04 0.100000000000D+01
0.587879364569D-04 0.000000000000D+00 0.000000000000D+00 0.430172085618D-07 0.000000000000D+00  7 -2 2 23 -13 13 23 21 2 0.38662574D-01 0.23488175D+00 0.36332463D+06 0.36332463D+06 0.36332463D+06 0.10784514D+01  1  2 12  2  7  2        2 0.665622037930D-03 0.100000000000D+01
-.596702532466D-04 0.000000000000D+00 0.000000000000D+00 0.430172085618D-07 0.000000000000D+00  7 -2 2 23 -13 13 23 21 2 0.38662574D-01 0.21282565D+00 0.33495599D+06 0.33495599D+06 0.33495599D+06 0.10810282D+01  1  2  4  2  7  2        2 -.817745314779D-03 0.100000000000D+01
-.123613287764D-03 0.000000000000D+00 -.177646983068D-04 0.430172085618D-07 0.000000000000D+00  7 -2 2 23 -13 13 23 21 2 0.38662574D-01 0.23496068D+00 0.33495599D+06 0.33495599D+06 0.33495599D+06 0.10810282D+01  1  2  5  2  7  2        2 -.140975043250D-02 0.100000000000D+01
0.124845993976D-03 0.000000000000D+00 0.176780926193D-04 0.430172085618D-07 0.000000000000D+00  7 -2 2 23 -13 13 23 21 2 0.38662574D-01 0.21282565D+00 0.33495599D+06 0.33495599D+06 0.33495599D+06 0.10810282D+01  1  2  6  2  7  2        2 0.171094005954D-02 0.100000000000D+01
0.943354584073D-06 0.000000000000D+00 0.000000000000D+00 0.430172085618D-07 0.000000000000D+00  7 -2 21 23 -13 13 23 -2 2 0.38662574D-01 0.23488175D+00 0.36332463D+06 0.36332463D+06 0.36332463D+06 0.10784514D+01  1  2 12  4  7  2        2 0.358488544391D-05 0.100000000000D+01
-.193199609132D-05 0.000000000000D+00 -.285905787111D-06 0.430172085618D-07 0.000000000000D+00  7 -2 21 23 -13 13 23 -2 2 0.38662574D-01 0.23496068D+00 0.33495599D+06 0.33495599D+06 0.33495599D+06 0.10810282D+01  1  2  5  4  7  2        2 -.741892722108D-05 0.100000000000D+01
  </mgrwgt>
  </event>
  <event>
  8     66 0.53686478E-06 0.17752600E+03 0.75467711E-02 0.10079288E+00
       -2 -1    0    0    0  501 0.00000000E+00 0.00000000E+00 0.14784008E+03 0.14784042E+03 0.32000000E+00 0.0000E+00 0.9000E+01
        2 -1    0    0  501    0 0.00000000E+00 0.00000000E+00 -.47791293E+03 0.47791304E+03 0.32000000E+00 0.0000E+00 0.9000E+01
       25  2    1    2    0    0 -.14855664E+03 0.69150029E+02 -.20456144E+03 0.39816940E+03 0.29973770E+03 0.0000E+00 0.0000E+00
       23  2    1    2    0    0 0.14855664E+03 -.69150029E+02 -.12551142E+03 0.22758406E+03 0.95867557E+02 0.0000E+00 0.0000E+00
       23  1    3    3    0    0 -.20068301E+03 0.38506859E+02 -.94272464E+02 0.24281474E+03 0.91188000E+02 0.0000E+00 0.9000E+01
      -11  1    4    4    0    0 0.78723160E+02 -.81627699E+02 -.10289470E+03 0.15312654E+03 0.51099893E-03 0.0000E+00 0.9000E+01
       11  1    4    4    0    0 0.69833479E+02 0.12477671E+02 -.22616713E+02 0.74457524E+02 0.51099893E-03 0.0000E+00 0.9000E+01
       23  1    3    3    0    0 0.52126366E+02 0.30643170E+02 -.11028898E+03 0.15535467E+03 0.91188000E+02 0.0000E+00 0.9000E+01
#aMCatNLO 1  0  0  1  2 0.77806583D+02 0.00000000D+00  -5  7  0 0.00000000D+00 0.00000000D+00 0.00000000D+00 0.00000000D+00 0.00000000D+00
  <mgrwgt>
 0.1185677777D-03    9    2    0
 0.265809755760341D+03 0.000000000000000D+00 0.000000000000000D+00 0.265809755760341D+03
 0.265809755760341D+03 0.000000000000000D+00 0.000000000000000D+00 -.265809755760341D+03
 0.227277926024244D+03 -.200683005659891D+03 0.385068589354396D+02 0.397939363235175D+02
 0.116355235860823D+03 0.787231603600377D+02 -.816276989421621D+02 -.260408083700040D+02
 0.735994241221060D+02 0.698334792388851D+02 0.124776701534233D+02 0.196078595476461D+02
 0.114386925513508D+03 0.521263660609684D+02 0.306431698532992D+02 -.333609875011595D+02
 0.000000000000000D+00 0.000000000000000D+00 0.000000000000000D+00 0.000000000000000D+00
 0.343795322526975D+03 0.000000000000000D+00 0.000000000000000D+00 0.343795322526975D+03
 0.288779831618963D+03 0.000000000000000D+00 0.000000000000000D+00 -.288779831618963D+03
 0.251758334979835D+03 -.230378438184969D+03 0.202293286876526D+02 0.397939363235175D+02
 0.114044907781494D+03 0.644406676214758D+02 -.904185691482926D+02 -.260408083700040D+02
 0.647222138493075D+02 0.612589282048385D+02 0.720003643808246D+01 0.196078595476461D+02
 0.106757680402658D+03 0.384176236173301D+02 0.222054427900169D+02 -.333609875011595D+02
 0.952920171326436D+02 0.662612187413245D+02 0.407837612325407D+02 0.550154909080115D+02
0.717969144042D-06 0.000000000000D+00 0.000000000000D+00 0.745264768829D-08 0.000000000000D+00  7 -2 2 23 -11 11 23 21 0 0.22744662D-01 0.73525102D-01 0.66957839D+05 0.66957839D+05 0.66957839D+05 0.11363037D+01  1  2  2  1  7  1       -2 0.905845962827D-04 0.100000000000D+01
-.398521557362D-07 0.000000000000D+00 -.275719055874D-08 0.745264768829D-08 0.000000000000D+00  7 -2 2 23 -11 11 23 21 2 0.22744662D-01 0.73525102D-01 0.66957839D+05 0.66957839D+05 0.66957839D+05 0.11363037D+01  1  2  3  1  7  1       -2 -.649216010364D-05 0.100000000000D+01
0.455530826284D-07 0.000000000000D+00 0.000000000000D+00 0.745264768829D-08 0.000000000000D+00  7 -2 2 23 -11 11 23 21 2 0.22744662D-01 0.73525102D-01 0.66957839D+05 0.66957839D+05 0.66957839D+05 0.11363037D+01  1  2 15  1  7  1       -2 0.742087598963D-05 0.100000000000D+01
0.693934534833D-06 0.000000000000D+00 0.000000000000D+00 0.745264768829D-08 0.000000000000D+00  7 -2 2 23 -11 11 23 21 2 0.30182281D-01 0.73525102D-01 0.90157258D+05 0.90157258D+05 0.90157258D+05 0.11254336D+01  1  2 12  1  7  1       -2 0.683052892134D-04 0.100000000000D+01
-.740555639296D-06 0.000000000000D+00 0.000000000000D+00 0.745264768829D-08 0.000000000000D+00  7 -2 2 23 -11 11 23 21 2 0.22744662D-01 0.73525102D-01 0.66957839D+05 0.66957839D+05 0.66957839D+05 0.11363037D+01  1  2  4  1  7  1       -2 -.120641046567D-03 0.100000000000D+01
-.117255986448D-05 0.000000000000D+00 -.338301709250D-06 0.745264768829D-08 0.000000000000D+00  7 -2 2 23 -11 11 23 21 2 0.31689588D-01 0.73525102D-01 0.66957839D+05 0.66957839D+05 0.66957839D+05 0.11363037D+01  1  2  5  1  7  1       -2 -.108080351749D-03 0.100000000000D+01
0.123405458733D-05 0.000000000000D+00 0.320511888790D-06 0.745264768829D-08 0.000000000000D+00  7 -2 2 23 -11 11 23 21 2 0.22744662D-01 0.73525102D-01 0.66957839D+05 0.66957839D+05 0.66957839D+05 0.11363037D+01  1  2  6  1  7  1       -2 0.201035045899D-03 0.100000000000D+01
0.257096013837D-07 0.000000000000D+00 0.000000000000D+00 0.745264768829D-08 0.000000000000D+00  7 21 2 23 -11 11 23 2 2 0.30182281D-01 0.73525102D-01 0.90157258D+05 0.90157258D+05 0.90157258D+05 0.11254336D+01  1  2 12  3  7  1       -2 0.300762720664D-04 0.100000000000D+01
-.398884206754D-07 0.000000000000D+00 -.140580408459D-07 0.745264768829D-08 0.000000000000D+00  7 21 2 23 -11 11 23 2 2 0.31689588D-01 0.73525102D-01 0.66957839D+05 0.66957839D+05 0.66957839D+05 0.11363037D+01  1  2  5  3  7  1       -2 -.436407433330D-04 0.100000000000D+01
  </mgrwgt>
  </event>
  <event>
  8     66 0.53686478E-06 0.76002661E+02 0.75467711E-02 0.10422392E+00
       -2 -1    0    0    0  501 0.00000000E+00 0.00000000E+00 0.44964370E+03 0.44964382E+03 0.32000000E+00 0.0000E+00 0.9000E+01
        2 -1    0    0  501    0 0.00000000E+00 0.00000000E+00 -.12833141E+03 0.12833180E+03 0.32000000E+00 0.0000E+00 0.9000E+01
       25  2    1    2    0    0 0.61520348E+02 0.92090178E+02 0.29057122E+03 0.43195925E+03 0.29981963E+03 0.0000E+00 0.0000E+00
       23  2    1    2    0    0 -.61520348E+02 -.92090178E+02 0.30741078E+02 0.14601637E+03 0.90057820E+02 0.0000E+00 0.0000E+00
       23  1    3    3    0    0 0.13391188E+03 0.11606944E+03 0.20156040E+03 0.28345432E+03 0.91188000E+02 0.0000E+00 0.9000E+01
      -11  1    4    4    0    0 -.65741210E+02 -.93443784E+02 -.70969878E+00 0.11425476E+03 0.51099893E-03 0.0000E+00 0.9000E+01
       11  1    4    4    0    0 0.42208628E+01 0.13536059E+01 0.31450777E+02 0.31761601E+02 0.51099893E-03 0.0000E+00 0.9000E+01
       23  1    3    3    0    0 -.72391528E+02 -.23979262E+02 0.89010815E+02 0.14850493E+03 0.91188000E+02 0.0000E+00 0.9000E+01
#aMCatNLO 1  0  0  1  2 0.27248967D+02 0.00000000D+00  -5  7  0 0.00000000D+00 0.00000000D+00 0.00000000D+00 0.00000000D+00 0.00000000D+00
  <mgrwgt>
 0.2754313727D-03    9    2    0
 0.240215645313859D+03 0.000000000000000D+00 0.000000000000000D+00 0.240215645313859D+03
 0.240215645313859D+03 0.000000000000000D+00 0.000000000000000D+00 -.240215645313859D+03
 0.206201913598175D+03 0.133911875572356D+03 0.116069439904835D+03 0.529100418486060D+02
 0.137927117544039D+03 -.657412104141308D+02 -.934437837698302D+02 -.772673429209860D+02
 0.171760454228747D+02 0.422086277768095D+01 0.135360588368888D+01 0.165942340857385D+02
 0.119126214062629D+03 -.723915279359057D+02 -.239792620186938D+02 0.776306698664144D+01
 0.000000000000000D+00 -.000000000000000D+00 -.000000000000000D+00 0.000000000000000D+00
 0.258949672317277D+03 0.000000000000000D+00 0.000000000000000D+00 0.258949672317277D+03
 0.250718721807926D+03 0.000000000000000D+00 0.000000000000000D+00 -.250718721807926D+03
 0.216101899315996D+03 0.140120945988453D+03 0.126298960846322D+03 0.529100418486060D+02
 0.131683428259942D+03 -.617771664897638D+02 -.869129719703450D+02 -.772673429209860D+02
 0.173934970710606D+02 0.472913364105758D+01 0.219098846955532D+01 0.165942340857385D+02
 0.116024595156971D+03 -.689341404148899D+02 -.182831729620498D+02 0.776306698664144D+01
 0.284649743212338D+02 -.141387727248572D+02 -.232938043834825D+02 0.823095050935093D+01
0.229012629071D-05 0.000000000000D+00 0.000000000000D+00 0.121586460237D-06 0.000000000000D+00  7 -2 2 23 -11 11 23 21 0 0.69175994D-01 0.19743333D-01 0.47710860D+05 0.47710860D+05 0.47710860D+05 0.11490899D+01  1  2  2  1  7  1       -2 0.156982208034D-03 0.100000000000D+01
-.125830792574D-06 0.000000000000D+00 -.879468796043D-08 0.121586460237D-06 0.000000000000D+00  7 -2 2 23 -11 11 23 21 2 0.69175994D-01 0.19743333D-01 0.47710860D+05 0.47710860D+05 0.47710860D+05 0.11490899D+01  1  2  3  1  7  1       -2 -.113890097068D-04 0.100000000000D+01
0.145696157334D-06 0.000000000000D+00 0.000000000000D+00 0.121586460237D-06 0.000000000000D+00  7 -2 2 23 -11 11 23 21 2 0.69175994D-01 0.19743333D-01 0.47710860D+05 0.47710860D+05 0.47710860D+05 0.11490899D+01  1  2 15  1  7  1       -2 0.131870340811D-04 0.100000000000D+01
0.433713540912D-05 0.000000000000D+00 0.000000000000D+00 0.121586460237D-06 0.000000000000D+00  7 -2 2 23 -11 11 23 21 2 0.75989796D-01 0.19743333D-01 0.53912593D+05 0.53912593D+05 0.53912593D+05 0.11444284D+01  1  2 12  1  7  1       -2 0.318215438489D-03 0.100000000000D+01
-.398308350092D-05 0.000000000000D+00 0.000000000000D+00 0.121586460237D-06 0.000000000000D+00  7 -2 2 23 -11 11 23 21 2 0.69175994D-01 0.19743333D-01 0.47710860D+05 0.47710860D+05 0.47710860D+05 0.11490899D+01  1  2  4  1  7  1       -2 -.360510934781D-03 0.100000000000D+01
-.129753010328D-04 0.000000000000D+00 -.264923974659D-05 0.121586460237D-06 0.000000000000D+00  7 -2 2 23 -11 11 23 21 2 0.77238370D-01 0.19743333D-01 0.47710860D+05 0.47710860D+05 0.47710860D+05 0.11490899D+01  1  2  5  1  7  1       -2 -.926365959195D-03 0.100000000000D+01
0.132030649046D-04 0.000000000000D+00 0.263322223166D-05 0.121586460237D-06 0.000000000000D+00  7 -2 2 23 -11 11 23 21 2 0.69175994D-01 0.19743333D-01 0.47710860D+05 0.47710860D+05 0.47710860D+05 0.11490899D+01  1  2  6  1  7  1       -2 0.119501619025D-02 0.100000000000D+01
0.667295612311D-07 0.000000000000D+00 0.000000000000D+00 0.121586460237D-06 0.000000000000D+00  7 21 2 23 -11 11 23 2 2 0.75989796D-01 0.19743333D-01 0.53912593D+05 0.53912593D+05 0.53912593D+05 0.11444284D+01  1  2 12  3  7  1       -2 0.500155942720D-04 0.100000000000D+01
-.218661534042D-06 0.000000000000D+00 -.467843538375D-07 0.121586460237D-06 0.000000000000D+00  7 21 2 23 -11 11 23 2 2 0.77238370D-01 0.19743333D-01 0.47710860D+05 0.47710860D+05 0.47710860D+05 0.11490899D+01  1  2  5  3  7  1       -2 -.159719188708D-03 0.100000000000D+01
  </mgrwgt>
  </event>
  <event>
  7     66 0.53686478E-06 0.29201594E+03 0.75467711E-02 0.94464717E-01
       -2 -1    0    0    0  501 0.00000000E+00 0.00000000E+00 0.77505368E+03 0.77505375E+03 0.32000000E+00 0.0000E+00 0.9000E+01
        2 -1    0    0  501    0 0.00000000E+00 0.00000000E+00 -.45241636E+03 0.45241647E+03 0.32000000E+00 0.0000E+00 0.9000E+01
       25  2    1    2    0    0 -.23768928E+03 0.34606921E+03 0.47228171E+03 0.69945159E+03 0.29987067E+03 0.0000E+00 0.0000E+00
       23  1    3    3    0    0 0.15456267E+02 0.23829624E+02 0.10115983E+03 0.13912336E+03 0.91188000E+02 0.0000E+00 0.9000E+01
      -11  1    1    2    0    0 0.14836516E+03 -.13704426E+03 0.68197823E+02 0.21317668E+03 0.51099893E-03 0.0000E+00 0.9000E+01
       11  1    1    2    0    0 0.89324119E+02 -.20902495E+03 -.21784221E+03 0.31484195E+03 0.51099893E-03 0.0000E+00 0.9000E+01
       23  1    3    3    0    0 -.25314555E+03 0.32223959E+03 0.37112187E+03 0.56032822E+03 0.91188000E+02 0.0000E+00 0.9000E+01
#aMCatNLO 1  0  0  1  2 0.73710821D+02 0.00000000D+00  -5  7  0 0.00000000D+00 0.00000000D+00 0.00000000D+00 0.00000000D+00 0.00000000D+00
  <mgrwgt>
 0.1158457605D-02    6    2    0
 0.592154603794283D+03 0.000000000000000D+00 0.000000000000000D+00 0.592154603794283D+03
 0.592154603794283D+03 0.000000000000000D+00 0.000000000000000D+00 -.592154603794283D+03
 0.116634953642529D+03 0.154562664389732D+02 0.238296247934356D+02 0.669456038673674D+02
 0.202366790721188D+03 0.148365158968106D+03 -.137044264356407D+03 0.126082194687770D+02
 0.385662075791154D+03 0.893241273382364D+02 -.209024954242306D+03 -.311552572582552D+03
 0.479645387433695D+03 -.253145552745316D+03 0.322239593805277D+03 0.231998749246407D+03
 0.000000000000000D+00 0.000000000000000D+00 -.000000000000000D+00 -.000000000000000D+00
 0.625493107477456D+03 0.000000000000000D+00 0.000000000000000D+00 0.625493107477456D+03
 0.635493908242304D+03 0.000000000000000D+00 0.000000000000000D+00 -.635493908242304D+03
 0.117575794208694D+03 0.114724055399785D+02 0.299246733276242D+02 0.669456038673674D+02
 0.190566466593940D+03 0.141681471502462D+03 -.126818656454101D+03 0.126082194687770D+02
 0.372476872404845D+03 0.764283907444503D+02 -.189295314474242D+03 -.311552572582552D+03
 0.505981719803212D+03 -.269910800837195D+03 0.347889334947972D+03 0.231998749246407D+03
 0.743861627090691D+02 0.403285330503043D+02 -.617000373472533D+02 -.100008007648472D+02
0.194407954692D-03 0.000000000000D+00 0.000000000000D+00 0.385796758714D-09 0.000000000000D+00  7 -2 2 23 -11 11 23 21 0 0.11923904D+00 0.69602531D-01 0.22306668D+06 0.22306668D+06 0.22306668D+06 0.10942030D+01  1  2  2  1  7  1       -2 0.893243732917D-03 0.100000000000D+01
-.101288052037D-04 0.000000000000D+00 -.746577734809D-06 0.385796758714D-09 0.000000000000D+00  7 -2 2 23 -11 11 23 21 2 0.11923904D+00 0.69602531D-01 0.22306668D+06 0.22306668D+06 0.22306668D+06 0.10942030D+01  1  2  3  1  7  1       -2 -.557198570734D-04 0.100000000000D+01
0.119890102212D-04 0.000000000000D+00 0.000000000000D+00 0.385796758714D-09 0.000000000000D+00  7 -2 2 23 -11 11 23 21 2 0.11923904D+00 0.69602531D-01 0.22306668D+06 0.22306668D+06 0.22306668D+06 0.10942030D+01  1  2 15  1  7  1       -2 0.659530835616D-04 0.100000000000D+01
0.247504814302D-03 0.000000000000D+00 0.000000000000D+00 0.385796758714D-09 0.000000000000D+00  7 -2 2 23 -11 11 23 21 2 0.13004663D+00 0.69602531D-01 0.25721010D+06 0.25721010D+06 0.25721010D+06 0.10895314D+01  1  2 12  1  7  1       -2 0.107315722992D-02 0.100000000000D+01
-.173415346112D-03 0.000000000000D+00 0.000000000000D+00 0.385796758714D-09 0.000000000000D+00  7 -2 2 23 -11 11 23 21 2 0.11923904D+00 0.69602531D-01 0.22306668D+06 0.22306668D+06 0.22306668D+06 0.10942030D+01  1  2  4  1  7  1       -2 -.953980070244D-03 0.100000000000D+01
0.355185063860D-05 0.000000000000D+00 0.000000000000D+00 0.385796758714D-09 0.000000000000D+00  7 21 2 23 -11 11 23 2 2 0.13004663D+00 0.69602531D-01 0.25721010D+06 0.25721010D+06 0.25721010D+06 0.10895314D+01  1  2 12  3  7  1       -2 0.135803486018D-03 0.100000000000D+01
  </mgrwgt>
  </event>
  <event>
  8     66 0.53686478E-06 0.17147354E+03 0.75467711E-02 0.94736198E-01
       -2 -1    0    0    0  501 0.00000000E+00 0.00000000E+00 0.27605023E+03 0.27605042E+03 0.32000000E+00 0.0000E+00 0.9000E+01
        2 -1    0    0  501    0 0.00000000E+00 0.00000000E+00 -.12100120E+04 0.12100120E+04 0.32000000E+00 0.0000E+00 0.9000E+01
       25  2    1    2    0    0 -.42329307E+03 0.15075069E+03 -.12242945E+03 0.55385247E+03 0.29976791E+03 0.0000E+00 0.0000E+00
       23  2    1    2    0    0 0.42329307E+03 -.15075069E+03 -.81153230E+03 0.93220997E+03 0.92346979E+02 0.0000E+00 0.0000E+00
       23  1    3    3    0    0 -.25324137E+03 0.19773213E+03 -.12107834E+03 0.35525259E+03 0.91188000E+02 0.0000E+00 0.9000E+01
      -11  1    4    4    0    0 0.54647707E+01 0.31008523E+01 0.30268913E+00 0.62905187E+01 0.51099893E-03 0.0000E+00 0.9000E+01
       11  1    4    4    0    0 0.41782829E+03 -.15385154E+03 -.81183499E+03 0.92591945E+03 0.51099893E-03 0.0000E+00 0.9000E+01
       23  1    3    3    0    0 -.17005169E+03 -.46981446E+02 -.13511110E+01 0.19859988E+03 0.91188000E+02 0.0000E+00 0.9000E+01
#aMCatNLO 1  0  0  1  2 0.62590615D+01 0.00000000D+00  -5  7  0 0.00000000D+00 0.00000000D+00 0.00000000D+00 0.00000000D+00 0.00000000D+00
  <mgrwgt>
 0.4835427598D-03   11    2    0
 0.577948316182712D+03 0.000000000000000D+00 0.000000000000000D+00 0.577948316182712D+03
 0.577948316182712D+03 0.000000000000000D+00 0.000000000000000D+00 -.577948316182712D+03
 0.358894545752525D+03 -.253241371848355D+03 0.197732134649174D+03 0.131380569866155D+03
 0.833188999825287D+01 0.546477073485178D+01 0.310085228356749D+01 0.547187233714270D+01
 0.534434717721191D+03 0.417828294445023D+03 -.153851540536464D+03 -.295583638487398D+03
 0.254235478893457D+03 -.170051693331520D+03 -.469814463962774D+02 0.158731196284101D+03
 0.000000000000000D+00 -.000000000000000D+00 -.000000000000000D+00 0.000000000000000D+00
 0.585204980892743D+03 0.000000000000000D+00 0.000000000000000D+00 0.585204980892743D+03
 0.579308017584933D+03 0.000000000000000D+00 0.000000000000000D+00 -.579308017584933D+03
 0.359148314018955D+03 -.252276091326029D+03 0.199419607174329D+03 0.131380569866155D+03
 0.836127980655962D+01 0.548721172350472D+01 0.314008290193522D+01 0.547187233714270D+01
 0.534842813895088D+03 0.419265747321524D+03 -.151338631408808D+03 -.295583638487398D+03
 0.253561170607975D+03 -.169369051329869D+03 -.457880734899969D+02 0.158731196284101D+03
 0.859942014909768D+01 -.310781638913080D+01 -.543298517745942D+01 0.589696330781051D+01
0.212458484666D-04 0.000000000000D+00 0.000000000000D+00 0.174988712285D-05 0.000000000000D+00  7 -2 2 23 -11 11 23 21 0 0.42469284D-01 0.18615571D+00 0.24212050D+06 0.24212050D+06 0.24212050D+06 0.10915070D+01  1  2  2  1  7  1       -2 0.264580793577D-03 0.100000000000D+01
-.114317686385D-05 0.000000000000D+00 -.815896522722D-07 0.174988712285D-05 0.000000000000D+00  7 -2 2 23 -11 11 23 21 2 0.42469284D-01 0.18615571D+00 0.24212050D+06 0.24212050D+06 0.24212050D+06 0.10915070D+01  1  2  3  1  7  1       -2 -.169609704010D-04 0.100000000000D+01
0.133887059818D-05 0.000000000000D+00 0.000000000000D+00 0.174988712285D-05 0.000000000000D+00  7 -2 2 23 -11 11 23 21 2 0.42469284D-01 0.18615571D+00 0.24212050D+06 0.24212050D+06 0.24212050D+06 0.10915070D+01  1  2 15  1  7  1       -2 0.198644193254D-04 0.100000000000D+01
0.154973391375D-04 0.000000000000D+00 0.000000000000D+00 0.174988712285D-05 0.000000000000D+00  7 -2 2 23 -11 11 23 21 2 0.43052104D-01 0.18615571D+00 0.24517911D+06 0.24517911D+06 0.24517911D+06 0.10910959D+01  1  2 12  1  7  1       -2 0.223768243819D-03 0.100000000000D+01
-.112298276760D-03 0.000000000000D+00 0.000000000000D+00 0.174988712285D-05 0.000000000000D+00  7 -2 2 23 -11 11 23 21 2 0.42469284D-01 0.18615571D+00 0.24212050D+06 0.24212050D+06 0.24212050D+06 0.10915070D+01  1  2  4  1  7  1       -2 -.166613566846D-02 0.100000000000D+01
-.196089487702D-02 0.000000000000D+00 -.184442927084D-03 0.174988712285D-05 0.000000000000D+00  7 -2 2 23 -11 11 23 21 2 0.43082052D-01 0.18615571D+00 0.24212050D+06 0.24212050D+06 0.24212050D+06 0.10915070D+01  1  2  5  1  7  1       -2 -.283090718534D-01 0.100000000000D+01
0.196335455950D-02 0.000000000000D+00 0.184424003276D-03 0.174988712285D-05 0.000000000000D+00  7 -2 2 23 -11 11 23 21 2 0.42469284D-01 0.18615571D+00 0.24212050D+06 0.24212050D+06 0.24212050D+06 0.10915070D+01  1  2  6  1  7  1       -2 0.291296995447D-01 0.100000000000D+01
0.966119262596D-04 0.000000000000D+00 0.000000000000D+00 0.174988712285D-05 0.283628812571D-06  7 -2 2 23 -11 11 23 21 2 0.43002524D-01 0.18659366D+00 0.24517911D+06 0.24517911D+06 0.24517911D+06 0.10910959D+01  1  2 11  1  7  1       -2 0.139279648753D-02 0.100000000000D+01
0.134174376053D-05 0.000000000000D+00 0.000000000000D+00 0.174988712285D-05 0.000000000000D+00  7 21 2 23 -11 11 23 2 2 0.43052104D-01 0.18615571D+00 0.24517911D+06 0.24517911D+06 0.24517911D+06 0.10910959D+01  1  2 12  3  7  1       -2 0.209156338967D-03 0.100000000000D+01
-.514166571511D-05 0.000000000000D+00 -.484939426069D-06 0.174988712285D-05 0.000000000000D+00  7 21 2 23 -11 11 23 2 2 0.43082052D-01 0.18615571D+00 0.24212050D+06 0.24212050D+06 0.24212050D+06 0.10915070D+01  1  2  5  3  7  1       -2 -.801539652196D-03 0.100000000000D+01
0.240151481160D-06 0.000000000000D+00 0.000000000000D+00 0.174988712285D-05 0.651761429158D-09  7 21 2 23 -11 11 23 2 2 0.43002524D-01 0.18659366D+00 0.24517911D+06 0.24517911D+06 0.24517911D+06 0.10910959D+01  1  2 11  3  7  1       -2 0.373850762581D-04 0.100000000000D+01
  </mgrwgt>
  </event>
  <event>
  8     66 0.53686478E-06 0.21936593E+03 0.75467711E-02 0.10363356E+00
       -2 -1    0    0    0  501 0.00000000E+00 0.00000000E+00 0.46842726E+02 0.46843819E+02 0.32000000E+00 0.0000E+00 0.9000E+01
        2 -1    0    0  501    0 0.00000000E+00 0.00000000E+00 -.14255364E+04 0.14255364E+04 0.32000000E+00 0.0000E+00 0.9000E+01
       25  2    1    2    0    0 0.11732144E+03 -.20969046E+02 -.11704748E+04 0.12143101E+04 0.30055556E+03 0.0000E+00 0.0000E+00
       23  2    1    2    0    0 -.11732144E+03 0.20969046E+02 -.20821885E+03 0.25807017E+03 0.95084701E+02 0.0000E+00 0.0000E+00
       23  1    3    3    0    0 -.59738029E+02 -.13725764E+02 -.60122521E+03 0.61118249E+03 0.91188000E+02 0.0000E+00 0.9000E+01
      -13  1    4    4    0    0 -.11917845E+03 0.11293408E+02 -.12070073E+03 0.16999918E+03 0.10565837E+00 0.0000E+00 0.9000E+01
       13  1    4    4    0    0 0.18570073E+01 0.96756377E+01 -.87518115E+02 0.88070983E+02 0.10565837E+00 0.0000E+00 0.9000E+01
       23  1    3    3    0    0 0.17705947E+03 -.72432826E+01 -.56924959E+03 0.60312757E+03 0.91188000E+02 0.0000E+00 0.9000E+01
#aMCatNLO 1  0  0  1  1 0.47282398D+02 0.00000000D+00  -5  7  0 0.00000000D+00 0.00000000D+00 0.00000000D+00 0.00000000D+00 0.00000000D+00
  <mgrwgt>
 0.4068613608D-03    4    2    0
 0.258412152066979D+03 0.000000000000000D+00 0.000000000000000D+00 0.258412152066979D+03
 0.258412152066979D+03 0.000000000000000D+00 0.000000000000000D+00 -.258412152066979D+03
 0.137353508624975D+03 -.597380192709771D+02 -.137257644272058D+02 -.824239493840252D+02
 0.162326345094993D+03 -.119178609860897D+03 0.112934155972037D+02 0.109630105480529D+03
 0.174395958631298D+02 0.185715034845712D+01 0.967563308898521D+01 -.143900180951885D+02
 0.199704854550860D+03 0.177059478783417D+03 -.724328425898313D+01 -.128161380013149D+02
 0.000000000000000D+00 -.000000000000000D+00 0.000000000000000D+00 -.000000000000000D+00
 0.262512483136075D+03 0.000000000000000D+00 0.000000000000000D+00 0.262512483136075D+03
 0.444488551036750D+03 0.000000000000000D+00 0.000000000000000D+00 -.444488551036750D+03
 0.135679156414447D+03 -.523117680235505D+02 -.237350718458129D+02 -.824239493840252D+02
 0.155677843108215D+03 -.110529172259758D+03 -.364536317344356D+00 0.109630105480529D+03
 0.169027693636032D+02 0.279123284209495D+01 0.841665079473547D+01 -.143900180951885D+02
 0.210722876757940D+03 0.188222756449004D+03 -.222894595406041D+02 -.128161380013149D+02
 0.188018388528620D+03 -.281730490077901D+02 0.379724169090259D+02 -.181976067900675D+03
0.226660151379D-05 0.000000000000D+00 0.000000000000D+00 0.218751186663D-07 0.000000000000D+00  7 -2 2 23 -13 13 23 21 0 0.72066600D-02 0.21931338D+00 0.48121412D+05 0.48121412D+05 0.48121412D+05 0.11487612D+01  1  2  2  1  7  1       -2 0.411964015257D-03 0.100000000000D+01
-.121813751633D-06 0.000000000000D+00 -.870434662283D-08 0.218751186663D-07 0.000000000000D+00  7 -2 2 23 -13 13 23 21 2 0.72066600D-02 0.21931338D+00 0.48121412D+05 0.48121412D+05 0.48121412D+05 0.11487612D+01  1  2  3  1  7  1       -2 -.292172897493D-04 0.100000000000D+01
0.147927242764D-06 0.000000000000D+00 0.000000000000D+00 0.218751186663D-07 0.000000000000D+00  7 -2 2 23 -13 13 23 21 2 0.72066600D-02 0.21931338D+00 0.48121412D+05 0.48121412D+05 0.48121412D+05 0.11487612D+01  1  2 15  1  7  1       -2 0.354806666384D-04 0.100000000000D+01
-.473876575758D-07 0.000000000000D+00 0.000000000000D+00 0.218751186663D-07 0.000000000000D+00  7 -2 2 23 -13 13 23 21 2 0.72066600D-02 0.21931338D+00 0.48121412D+05 0.48121412D+05 0.48121412D+05 0.11487612D+01  1  2  4  1  7  1       -2 -.113660313666D-04 0.100000000000D+01
  </mgrwgt>
  </event>
  <event>
  8     66 0.53686478E-06 0.17989737E+03 0.75467711E-02 0.10038442E+00
       -2 -1    0    0    0  501 0.00000000E+00 0.00000000E+00 0.13798364E+03 0.13798401E+03 0.32000000E+00 0.0000E+00 0.9000E+01
        2 -1    0    0  501    0 0.00000000E+00 0.00000000E+00 -.11210886E+04 0.11210886E+04 0.32000000E+00 0.0000E+00 0.9000E+01
       25  2    1    2    0    0 0.20274265E+03 -.12190311E+03 -.19270937E+03 0.42876468E+03 0.30122633E+03 0.0000E+00 0.0000E+00
       23  2    1    2    0    0 -.20274265E+03 0.12190311E+03 -.79039558E+03 0.83030797E+03 0.93387399E+02 0.0000E+00 0.0000E+00
       23  1    3    3    0    0 0.13110604E+03 0.53262421E+02 -.11890654E+03 0.20610603E+03 0.91188000E+02 0.0000E+00 0.9000E+01
      -13  1    4    4    0    0 -.19054933E+03 0.11287098E+03 -.78242933E+03 0.81316946E+03 0.10565837E+00 0.0000E+00 0.9000E+01
       13  1    4    4    0    0 -.12193312E+02 0.90321251E+01 -.79662476E+01 0.17138506E+02 0.10565837E+00 0.0000E+00 0.9000E+01
       23  1    3    3    0    0 0.71636603E+02 -.17516553E+03 -.73802831E+02 0.22265865E+03 0.91188000E+02 0.0000E+00 0.9000E+01
#aMCatNLO 1  0  0  2  1 0.45428444D+01 0.00000000D+00  -5  7  0 0.00000000D+00 0.00000000D+00 0.00000000D+00 0.00000000D+00 0.00000000D+00
  <mgrwgt>
 0.5256254786D-03   11    2    0
 0.393309229905855D+03 0.000000000000000D+00 0.000000000000000D+00 0.393309229905855D+03
 0.393309229905855D+03 0.000000000000000D+00 0.000000000000000D+00 -.393309229905855D+03
 0.181288474493294D+03 0.131106042403455D+03 0.532624206320011D+02 0.672649970923136D+02
 0.323701523375276D+03 -.190549562688362D+03 0.112871115425476D+03 -.236079757068152D+03
 0.174756366122608D+02 -.121930832732418D+02 0.903199210507630D+01 0.866889346510966D+01
 0.264152825330878D+03 0.716366035581484D+02 -.175165528162553D+03 0.160145866510728D+03
 0.000000000000000D+00 0.000000000000000D+00 0.000000000000000D+00 -.000000000000000D+00
 0.394664759331963D+03 0.000000000000000D+00 0.000000000000000D+00 0.394664759331963D+03
 0.397140452462628D+03 0.000000000000000D+00 0.000000000000000D+00 -.397140452462628D+03
 0.180474641678479D+03 0.130126441322851D+03 0.528996633240409D+02 0.672649970923136D+02
 0.324512525688374D+03 -.192304830582018D+03 0.112221119964610D+03 -.236079757068152D+03
 0.175238489462720D+02 -.122878567101707D+02 0.899689643447406D+01 0.866889346510966D+01
 0.264120561206921D+03 0.702061172615272D+02 -.175695253341824D+03 0.160145866510728D+03
 0.517363427454495D+01 0.426012870781031D+01 0.157757361869840D+01 -.247569313066533D+01
0.393157136343D-05 0.000000000000D+00 0.000000000000D+00 0.528657076734D-07 0.000000000000D+00  7 -2 2 23 -13 13 23 21 0 0.21228285D-01 0.17247520D+00 0.94575679D+05 0.94575679D+05 0.94575679D+05 0.11237151D+01  1  2  2  2  7  2        2 0.192622534424D-03 0.100000000000D+01
-.202347144222D-06 0.000000000000D+00 -.150982692421D-07 0.528657076734D-07 0.000000000000D+00  7 -2 2 23 -13 13 23 21 2 0.21228285D-01 0.17247520D+00 0.94575679D+05 0.94575679D+05 0.94575679D+05 0.11237151D+01  1  2  3  2  7  2        2 -.125184456057D-04 0.100000000000D+01
0.241341689901D-06 0.000000000000D+00 0.000000000000D+00 0.528657076734D-07 0.000000000000D+00  7 -2 2 23 -13 13 23 21 2 0.21228285D-01 0.17247520D+00 0.94575679D+05 0.94575679D+05 0.94575679D+05 0.11237151D+01  1  2 15  2  7  2        2 0.149308893339D-04 0.100000000000D+01
0.443584958001D-06 0.000000000000D+00 0.000000000000D+00 0.528657076734D-07 0.000000000000D+00  7 -2 2 23 -13 13 23 21 2 0.21228285D-01 0.17445052D+00 0.96077660D+05 0.96077660D+05 0.96077660D+05 0.11231509D+01  1  2 12  2  7  2        2 0.269429583493D-04 0.100000000000D+01
-.655450599664D-04 0.000000000000D+00 0.000000000000D+00 0.528657076734D-07 0.000000000000D+00  7 -2 2 23 -13 13 23 21 2 0.21228285D-01 0.17247520D+00 0.94575679D+05 0.94575679D+05 0.94575679D+05 0.11237151D+01  1  2  4  2  7  2        2 -.405502272378D-02 0.100000000000D+01
-.381825617372D-03 0.000000000000D+00 -.396899971540D-04 0.528657076734D-07 0.000000000000D+00  7 -2 2 23 -13 13 23 21 2 0.21228285D-01 0.17450466D+00 0.94575679D+05 0.94575679D+05 0.94575679D+05 0.11237151D+01  1  2  5  2  7  2        2 -.232099864987D-01 0.100000000000D+01
0.382266470748D-03 0.000000000000D+00 0.396872816573D-04 0.528657076734D-07 0.000000000000D+00  7 -2 2 23 -13 13 23 21 2 0.21228285D-01 0.17247520D+00 0.94575679D+05 0.94575679D+05 0.94575679D+05 0.11237151D+01  1  2  6  2  7  2        2 0.236493677207D-01 0.100000000000D+01
0.651151780450D-04 0.000000000000D+00 0.000000000000D+00 0.528657076734D-07 0.172348355275D-07  7 -2 2 23 -13 13 23 21 2 0.21301448D-01 0.17415528D+00 0.96077660D+05 0.96077660D+05 0.96077660D+05 0.11231509D+01  1  2 11  2  7  2        2 0.394250456692D-02 0.100000000000D+01
0.422795466310D-07 0.000000000000D+00 0.000000000000D+00 0.528657076734D-07 0.000000000000D+00  7 -2 21 23 -13 13 23 -2 2 0.21228285D-01 0.17445052D+00 0.96077660D+05 0.96077660D+05 0.96077660D+05 0.11231509D+01  1  2 12  4  7  2        2 0.153904773692D-05 0.100000000000D+01
-.820974552849D-06 0.000000000000D+00 -.855472690619D-07 0.528657076734D-07 0.000000000000D+00  7 -2 21 23 -13 13 23 -2 2 0.21228285D-01 0.17450466D+00 0.94575679D+05 0.94575679D+05 0.94575679D+05 0.11237151D+01  1  2  5  4  7  2        2 -.299163774601D-04 0.100000000000D+01
0.141856753628D-06 0.000000000000D+00 0.000000000000D+00 0.528657076734D-07 0.309936666471D-10  7 -2 21 23 -13 13 23 -2 2 0.21301448D-01 0.17415528D+00 0.96077660D+05 0.96077660D+05 0.96077660D+05 0.11231509D+01  1  2 11  4  7  2        2 0.516180666782D-05 0.100000000000D+01
  </mgrwgt>
  </event>
  <event>
  8     66 0.53686478E-06 0.90962754E+02 0.75467711E-02 0.10520813E+00
       -2 -1    0    0    0  501 0.00000000E+00 0.00000000E+00 0.57493682E+02 0.57494572E+02 0.32000000E+00 0.0000E+00 0.9000E+01
        2 -1    0    0  501    0 0.00000000E+00 0.00000000E+00 -.85807079E+03 0.85807085E+03 0.32000000E+00 0.0000E+00 0.9000E+01
       25  2    1    2    0    0 -.77107414E+02 0.55876783E+02 -.55614352E+03 0.63901608E+03 0.29996362E+03 0.0000E+00 0.0000E+00
       23  2    1    2    0    0 0.77107414E+02 -.55876783E+02 -.24443360E+03 0.27654935E+03 0.87544219E+02 0.0000E+00 0.0000E+00
       23  1    3    3    0    0 -.67138742E+02 0.54349625E+02 -.52846633E+03 0.54318819E+03 0.91188000E+02 0.0000E+00 0.9000E+01
      -11  1    4    4    0    0 -.16777935E+02 -.16206330E+02 -.22873854E+02 0.32670436E+02 0.51099893E-03 0.0000E+00 0.9000E+01
       11  1    4    4    0    0 0.93885349E+02 -.39670454E+02 -.22155974E+03 0.24387891E+03 0.51099893E-03 0.0000E+00 0.9000E+01
       23  1    3    3    0    0 -.99686713E+01 0.15271580E+01 -.27677183E+02 0.95827890E+02 0.91188000E+02 0.0000E+00 0.9000E+01
#aMCatNLO 1  0  0  1  2 0.85747847D+02 0.00000000D+00  -5  7  0 0.00000000D+00 0.00000000D+00 0.00000000D+00 0.00000000D+00 0.00000000D+00
  <mgrwgt>
 0.3457463596D-03    9    2    0
 0.222112773430875D+03 0.000000000000000D+00 0.000000000000000D+00 0.222112773430875D+03
 0.222112773430875D+03 0.000000000000000D+00 0.000000000000000D+00 -.222112773430875D+03
 0.167136437077658D+03 -.671387425314840D+02 0.543496254527465D+02 -.110262617053339D+03
 0.261120464588190D+02 -.167779349011352D+02 -.162063296422694D+02 0.117343406396310D+02
 0.103351642633723D+03 0.938853488269827D+02 -.396704538525335D+02 -.171277085991867D+02
 0.147625420691550D+03 -.996867139436355D+01 0.152715804205629D+01 0.115655985012894D+03
 0.000000000000000D+00 -.000000000000000D+00 0.000000000000000D+00 0.000000000000000D+00
 0.273612392356687D+03 0.000000000000000D+00 0.000000000000000D+00 0.273612392356687D+03
 0.264993268486090D+03 0.000000000000000D+00 0.000000000000000D+00 -.264993268486090D+03
 0.154025498664739D+03 -.485424065707491D+02 0.299064029898347D+02 -.110262617053339D+03
 0.271227867809692D+02 -.136954623738340D+02 -.202579644309570D+02 0.117343406396310D+02
 0.122326622216180D+03 0.106952865132996D+03 -.568465367529515D+02 -.171277085991867D+02
 0.148950809807940D+03 0.720407109639232D+01 -.210448779700989D+02 0.115655985012894D+03
 0.861799433729487D+02 -.519190672848051D+02 0.682429761641727D+02 0.861912387059636D+01
0.994530468047D-06 0.000000000000D+00 0.000000000000D+00 0.139799773157D-07 0.000000000000D+00  7 -2 2 23 -11 11 23 21 0 0.88452549D-02 0.13201096D+00 0.29343506D+05 0.29343506D+05 0.29343506D+05 0.11682285D+01  1  2  2  1  7  1       -2 0.280285169455D-03 0.100000000000D+01
-.507184218272D-07 0.000000000000D+00 -.381925886319D-08 0.139799773157D-07 0.000000000000D+00  7 -2 2 23 -11 11 23 21 2 0.88452549D-02 0.13201096D+00 0.29343506D+05 0.29343506D+05 0.29343506D+05 0.11682285D+01  1  2  3  1  7  1       -2 -.195075789856D-04 0.100000000000D+01
0.616001394108D-07 0.000000000000D+00 0.000000000000D+00 0.139799773157D-07 0.000000000000D+00  7 -2 2 23 -11 11 23 21 2 0.88452549D-02 0.13201096D+00 0.29343506D+05 0.29343506D+05 0.29343506D+05 0.11682285D+01  1  2 15  1  7  1       -2 0.236929608964D-04 0.100000000000D+01
0.316624051882D-06 0.000000000000D+00 0.000000000000D+00 0.139799773157D-07 0.000000000000D+00  7 -2 2 23 -11 11 23 21 2 0.11577648D-01 0.13201096D+00 0.46813742D+05 0.46813742D+05 0.46813742D+05 0.11498193D+01  1  2 12  1  7  1       -2 0.785640376528D-04 0.100000000000D+01
-.448249051761D-06 0.000000000000D+00 0.000000000000D+00 0.139799773157D-07 0.000000000000D+00  7 -2 2 23 -11 11 23 21 2 0.88452549D-02 0.13201096D+00 0.29343506D+05 0.29343506D+05 0.29343506D+05 0.11682285D+01  1  2  4  1  7  1       -2 -.172407844476D-03 0.100000000000D+01
-.718976634475D-06 0.000000000000D+00 -.425439435243D-06 0.139799773157D-07 0.000000000000D+00  7 -2 2 23 -11 11 23 21 2 0.13036693D-01 0.13201096D+00 0.29343506D+05 0.29343506D+05 0.29343506D+05 0.11682285D+01  1  2  5  1  7  1       -2 -.152813530472D-03 0.100000000000D+01
0.849408677040D-06 0.000000000000D+00 0.395325140696D-06 0.139799773157D-07 0.000000000000D+00  7 -2 2 23 -11 11 23 21 2 0.88452549D-02 0.13201096D+00 0.29343506D+05 0.29343506D+05 0.29343506D+05 0.11682285D+01  1  2  6  1  7  1       -2 0.326703912729D-03 0.100000000000D+01
0.113133615893D-07 0.000000000000D+00 0.000000000000D+00 0.139799773157D-07 0.000000000000D+00  7 21 2 23 -11 11 23 2 2 0.11577648D-01 0.13201096D+00 0.46813742D+05 0.46813742D+05 0.46813742D+05 0.11498193D+01  1  2 12  3  7  1       -2 0.405297634580D-04 0.100000000000D+01
-.195389425512D-07 0.000000000000D+00 -.198001887184D-07 0.139799773157D-07 0.000000000000D+00  7 21 2 23 -11 11 23 2 2 0.13036693D-01 0.13201096D+00 0.29343506D+05 0.29343506D+05 0.29343506D+05 0.11682285D+01  1  2  5  3  7  1       -2 -.593005306339D-04 0.100000000000D+01
  </mgrwgt>
  </event>
  <event>
  8     66 0.53686478E-06 0.20086743E+03 0.75467711E-02 0.97231274E-01
       -2 -1    0    0    0  501 0.00000000E+00 0.00000000E+00 0.25219847E+03 0.25219868E+03 0.32000000E+00 0.0000E+00 0.9000E+01
        2 -1    0    0  501    0 0.00000000E+00 0.00000000E+00 -.81310890E+03 0.81310896E+03 0.32000000E+00 0.0000E+00 0.9000E+01
       25  2    1    2    0    0 -.30933270E+03 -.90394498E+02 -.58218205E+03 0.72999406E+03 0.30016246E+03 0.0000E+00 0.0000E+00
       23  2    1    2    0    0 0.30933270E+03 0.90394498E+02 0.21271630E+02 0.33531358E+03 0.90137819E+02 0.0000E+00 0.0000E+00
       23  1    3    3    0    0 -.24071221E+03 -.10545726E+03 -.23474395E+03 0.36398293E+03 0.91188000E+02 0.0000E+00 0.9000E+01
      -11  1    4    4    0    0 0.49916298E+02 0.52449367E+02 0.20856066E+01 0.72435645E+02 0.51099893E-03 0.0000E+00 0.9000E+01
       11  1    4    4    0    0 0.25941640E+03 0.37945132E+02 0.19186024E+02 0.26287793E+03 0.51099893E-03 0.0000E+00 0.9000E+01
       23  1    3    3    0    0 -.68620490E+02 0.15062766E+02 -.34743810E+03 0.36601113E+03 0.91188000E+02 0.0000E+00 0.9000E+01
#aMCatNLO 1  0  0  1  2 0.66979095D+02 0.00000000D+00  -5  7  0 0.00000000D+00 0.00000000D+00 0.00000000D+00 0.00000000D+00 0.00000000D+00
  <mgrwgt>
 0.3090068713D-03    6    2    0
 0.452840992787281D+03 0.000000000000000D+00 0.000000000000000D+00 0.452840992787281D+03
 0.452840992787281D+03 0.000000000000000D+00 0.000000000000000D+00 -.452840992787281D+03
 0.282752086178685D+03 -.240712210305114D+03 -.105457264728647D+03 -.506940629697082D+02
 0.864940290911004D+02 0.499162983373467D+02 0.524493665057865D+02 0.473143126532637D+02
 0.321092294978968D+03 0.259416402163097D+03 0.379451317891986D+02 0.185374105950953D+03
 0.215343575325809D+03 -.686204901953294D+02 0.150627664336623D+02 -.181994355634508D+03
 0.000000000000000D+00 -.000000000000000D+00 -.000000000000000D+00 -.000000000000000D+00
 0.483641458790156D+03 0.000000000000000D+00 0.000000000000000D+00 0.483641458790156D+03
 0.492014235262101D+03 0.000000000000000D+00 0.000000000000000D+00 -.492014235262101D+03
 0.266494059820246D+03 -.228355398991289D+03 -.893742485653968D+02 -.506940629697082D+02
 0.920551491883236D+02 0.539332559843135D+02 0.576776404611374D+02 0.473143126532637D+02
 0.335882932336513D+03 0.274196877148553D+03 0.571826690513913D+02 0.185374105950953D+03
 0.213723163722049D+03 -.589674470668973D+02 0.276266912777219D+02 -.181994355634508D+03
 0.675003889851252D+02 -.408072870746799D+02 -.531127522248538D+02 -.837277647194536D+01
0.879746398484D-05 0.000000000000D+00 0.000000000000D+00 0.467716590972D-06 0.000000000000D+00  7 -2 2 23 -11 11 23 21 0 0.38799786D-01 0.12509370D+00 0.13244709D+06 0.13244709D+06 0.13244709D+06 0.11118425D+01  1  2  2  1  7  1       -2 0.232014747914D-03 0.100000000000D+01
-.460358694490D-06 0.000000000000D+00 -.337845781273D-07 0.467716590972D-06 0.000000000000D+00  7 -2 2 23 -11 11 23 21 2 0.38799786D-01 0.12509370D+00 0.13244709D+06 0.13244709D+06 0.13244709D+06 0.11118425D+01  1  2  3  1  7  1       -2 -.150086288266D-04 0.100000000000D+01
0.547787410412D-06 0.000000000000D+00 0.000000000000D+00 0.467716590972D-06 0.000000000000D+00  7 -2 2 23 -11 11 23 21 2 0.38799786D-01 0.12509370D+00 0.13244709D+06 0.13244709D+06 0.13244709D+06 0.11118425D+01  1  2 15  1  7  1       -2 0.178589826089D-04 0.100000000000D+01
0.940525532936D-05 0.000000000000D+00 0.000000000000D+00 0.467716590972D-06 0.000000000000D+00  7 -2 2 23 -11 11 23 21 2 0.42994341D-01 0.12509370D+00 0.15988814D+06 0.15988814D+06 0.15988814D+06 0.11053706D+01  1  2 12  1  7  1       -2 0.248966027674D-03 0.100000000000D+01
-.674861072336D-05 0.000000000000D+00 0.000000000000D+00 0.467716590972D-06 0.000000000000D+00  7 -2 2 23 -11 11 23 21 2 0.38799786D-01 0.12509370D+00 0.13244709D+06 0.13244709D+06 0.13244709D+06 0.11118425D+01  1  2  4  1  7  1       -2 -.220018421841D-03 0.100000000000D+01
0.156252359939D-06 0.000000000000D+00 0.000000000000D+00 0.467716590972D-06 0.000000000000D+00  7 21 2 23 -11 11 23 2 2 0.42994341D-01 0.12509370D+00 0.15988814D+06 0.15988814D+06 0.15988814D+06 0.11053706D+01  1  2 12  3  7  1       -2 0.451941637305D-04 0.100000000000D+01
  </mgrwgt>
  </event>
  <event>
  8     66 0.53686478E-06 0.19084173E+03 0.75467711E-02 0.97414921E-01
       -2 -1    0    0    0  501 0.00000000E+00 0.00000000E+00 0.20223577E+04 0.20223577E+04 0.32000000E+00 0.0000E+00 0.9000E+01
        2 -1    0    0  501    0 0.00000000E+00 0.00000000E+00 -.86712676E+02 0.86713267E+02 0.32000000E+00 0.0000E+00 0.9000E+01
       25  2    1    2    0    0 -.13121079E+03 0.30067416E+03 0.71362261E+03 0.84103749E+03 0.30077500E+03 0.0000E+00 0.0000E+00
       23  2    1    2    0    0 0.13121079E+03 -.30067416E+03 0.12220224E+04 0.12680335E+04 0.83360429E+02 0.0000E+00 0.0000E+00
       23  1    3    3    0    0 -.95435245E+02 0.31535710E+03 0.50162959E+03 0.60704653E+03 0.91188000E+02 0.0000E+00 0.9000E+01
      -11  1    4    4    0    0 0.63577635E+01 -.10717294E+03 0.34816647E+03 0.36434372E+03 0.51099893E-03 0.0000E+00 0.9000E+01
       11  1    4    4    0    0 0.12485303E+03 -.19350123E+03 0.87385594E+03 0.90368977E+03 0.51099893E-03 0.0000E+00 0.9000E+01
       23  1    3    3    0    0 -.35775550E+02 -.14682939E+02 0.21199302E+03 0.23399096E+03 0.91188000E+02 0.0000E+00 0.9000E+01
#aMCatNLO 1  0  0  1  2 0.89522663D+01 0.00000000D+00  -5  7  0 0.00000000D+00 0.00000000D+00 0.00000000D+00 0.00000000D+00 0.00000000D+00
  <mgrwgt>
 0.2675845749D-03   11    2    0
 0.418765683046553D+03 0.000000000000000D+00 0.000000000000000D+00 0.418765683046553D+03
 0.418765683046553D+03 0.000000000000000D+00 0.000000000000000D+00 -.418765683046553D+03
 0.369332314697559D+03 -.954352448357427D+02 0.315357102516034D+03 -.139760936143440D+03
 0.112831700176633D+03 0.635776347078880D+01 -.107172938031498D+03 0.347063792709025D+02
 0.256075168863123D+03 0.124853031325957D+03 -.193501225481851D+03 0.111997716110725D+03
 0.992921823557909D+02 -.357755499610032D+02 -.146829390026848D+02 -.694315923818731D+01
 0.000000000000000D+00 -.000000000000000D+00 0.000000000000000D+00 0.000000000000000D+00
 0.430371950020470D+03 0.000000000000000D+00 0.000000000000000D+00 0.430371950020470D+03
 0.420519458915245D+03 0.000000000000000D+00 0.000000000000000D+00 -.420519458915245D+03
 0.365935028254934D+03 -.952351468955964D+02 0.311432723206831D+03 -.139760936143440D+03
 0.113985677841693D+03 0.641949025706033D+01 -.108383541812278D+03 0.347063792709025D+02
 0.258223381331843D+03 0.124992994132004D+03 -.196246216958057D+03 0.111997716110725D+03
 0.994351221161755D+02 -.357214676946591D+02 -.157436162234514D+02 -.694315923818731D+01
 0.133121993910694D+02 -.455869798808852D+00 0.894065178695585D+01 0.985249110522441D+01
0.394074947326D-04 0.000000000000D+00 0.000000000000D+00 0.528370480069D-08 0.000000000000D+00  7 -2 2 23 -11 11 23 21 0 0.31113200D+00 0.13340459D-01 0.15153984D+06 0.15153984D+06 0.15153984D+06 0.11072020D+01  1  2  2  1  7  1       -2 0.555327605073D-04 0.100000000000D+01
-.217511639447D-05 0.000000000000D+00 -.151335156005D-06 0.528370480069D-08 0.000000000000D+00  7 -2 2 23 -11 11 23 21 2 0.31113200D+00 0.13340459D-01 0.15153984D+06 0.15153984D+06 0.15153984D+06 0.11072020D+01  1  2  3  1  7  1       -2 -.375756663741D-05 0.100000000000D+01
0.250865403075D-05 0.000000000000D+00 0.000000000000D+00 0.528370480069D-08 0.000000000000D+00  7 -2 2 23 -11 11 23 21 2 0.31113200D+00 0.13340459D-01 0.15153984D+06 0.15153984D+06 0.15153984D+06 0.11072020D+01  1  2 15  1  7  1       -2 0.433376104135D-05 0.100000000000D+01
0.833559973198D-04 0.000000000000D+00 0.000000000000D+00 0.528370480069D-08 0.000000000000D+00  7 -2 2 23 -11 11 23 21 2 0.32039596D+00 0.13340459D-01 0.15507192D+06 0.15507192D+06 0.15507192D+06 0.11064140D+01  1  2 12  1  7  1       -2 0.125200557561D-03 0.100000000000D+01
-.849366955670D-04 0.000000000000D+00 0.000000000000D+00 0.528370480069D-08 0.000000000000D+00  7 -2 2 23 -11 11 23 21 2 0.31113200D+00 0.13340459D-01 0.15153984D+06 0.15153984D+06 0.15153984D+06 0.11072020D+01  1  2  4  1  7  1       -2 -.146730213779D-03 0.100000000000D+01
-.123174480611D-02 0.000000000000D+00 -.122935439004D-03 0.528370480069D-08 0.000000000000D+00  7 -2 2 23 -11 11 23 21 2 0.32025430D+00 0.13340459D-01 0.15153984D+06 0.15153984D+06 0.15153984D+06 0.11072020D+01  1  2  5  1  7  1       -2 -.185856916935D-02 0.100000000000D+01
0.123483308164D-02 0.000000000000D+00 0.122884125091D-03 0.528370480069D-08 0.000000000000D+00  7 -2 2 23 -11 11 23 21 2 0.31113200D+00 0.13340459D-01 0.15153984D+06 0.15153984D+06 0.15153984D+06 0.11072020D+01  1  2  6  1  7  1       -2 0.213320427456D-02 0.100000000000D+01
0.119031838112D-06 0.000000000000D+00 0.000000000000D+00 0.528370480069D-08 0.430552987175D-09  7 -2 2 23 -11 11 23 21 2 0.31975515D+00 0.13396328D-01 0.15507192D+06 0.15507192D+06 0.15507192D+06 0.11064140D+01  1  2 11  1  7  1       -2 0.179561093284D-06 0.100000000000D+01
0.260884962947D-05 0.000000000000D+00 0.000000000000D+00 0.528370480069D-08 0.000000000000D+00  7 21 2 23 -11 11 23 2 2 0.32039596D+00 0.13340459D-01 0.15507192D+06 0.15507192D+06 0.15507192D+06 0.11064140D+01  1  2 12  3  7  1       -2 0.288361346943D-04 0.100000000000D+01
-.635688416835D-05 0.000000000000D+00 -.638159830240D-06 0.528370480069D-08 0.000000000000D+00  7 21 2 23 -11 11 23 2 2 0.32025430D+00 0.13340459D-01 0.15153984D+06 0.15153984D+06 0.15153984D+06 0.11072020D+01  1  2  5  3  7  1       -2 -.706525271507D-04 0.100000000000D+01
0.630709462693D-09 0.000000000000D+00 0.000000000000D+00 0.528370480069D-08 0.215271002952D-11  7 21 2 23 -11 11 23 2 2 0.31975515D+00 0.13396328D-01 0.15507192D+06 0.15507192D+06 0.15507192D+06 0.11064140D+01  1  2 11  3  7  1       -2 0.700235233998D-08 0.100000000000D+01
  </mgrwgt>
  </event>
  <event>
  8     66 0.53686478E-06 0.30186912E+03 0.75467711E-02 0.96650708E-01
       -2 -1    0    0    0  501 0.00000000E+00 0.00000000E+00 0.13552547E+03 0.13552585E+03 0.32000000E+00 0.0000E+00 0.9000E+01
        2 -1    0    0  501    0 0.00000000E+00 0.00000000E+00 -.14822501E+04 0.14822501E+04 0.32000000E+00 0.0000E+00 0.9000E+01
       25  2    1    2    0    0 -.34779539E+02 0.25658680E+03 -.21491485E+03 0.45314352E+03 0.30348682E+03 0.0000E+00 0.0000E+00
       23  2    1    2    0    0 0.34779539E+02 -.25658680E+03 -.11318098E+04 0.11646325E+04 0.91263285E+02 0.0000E+00 0.0000E+00
       23  1    3    3    0    0 -.57221222E+02 0.17159516E+03 0.12860167E+01 0.20257362E+03 0.91188000E+02 0.0000E+00 0.9000E+01
      -11  1    4    4    0    0 0.50992402E+02 -.25275885E+03 -.10674954E+04 0.10981957E+04 0.51099893E-03 0.0000E+00 0.9000E+01
       11  1    4    4    0    0 -.16212862E+02 -.38279546E+01 -.64314368E+02 0.66436798E+02 0.51099893E-03 0.0000E+00 0.9000E+01
       23  1    3    3    0    0 0.22441682E+02 0.84991645E+02 -.21620086E+03 0.25056990E+03 0.91188000E+02 0.0000E+00 0.9000E+01
#aMCatNLO 1  0  0  1  1 0.20727577D+03 0.00000000D+00  -5  7  0 0.00000000D+00 0.00000000D+00 0.00000000D+00 0.00000000D+00 0.00000000D+00
  <mgrwgt>
 0.2838430708D-03    4    2    0
 0.448199704237744D+03 0.000000000000000D+00 0.000000000000000D+00 0.448199704237744D+03
 0.448199704237744D+03 0.000000000000000D+00 0.000000000000000D+00 -.448199704237744D+03
 0.367526623888909D+03 -.572212216009383D+02 0.171595158678060D+03 0.306661704880031D+03
 0.378193249414283D+03 0.509924016875150D+02 -.252758849076969D+03 -.276663826847601D+03
 0.232776950051249D+02 -.162128622358241D+02 -.382795461713118D+01 -.162585653217924D+02
 0.127401840167170D+03 0.224416821492473D+02 0.849916450160407D+02 -.137393127106377D+02
 0.000000000000000D+00 0.000000000000000D+00 -.000000000000000D+00 -.000000000000000D+00
 0.534676444274072D+03 0.000000000000000D+00 0.000000000000000D+00 0.534676444274072D+03
 0.603906983317463D+03 0.000000000000000D+00 0.000000000000000D+00 -.603906983317463D+03
 0.416946438801827D+03 -.110708136387325D+03 0.243374996216217D+03 0.306661704880031D+03
 0.334261486365279D+03 0.241583793516341D+01 -.187568739155109D+03 -.276663826847601D+03
 0.254221519855499D+02 -.195333134915573D+02 0.628115669251438D+00 -.162585653217924D+02
 0.143421630431425D+03 0.397640579625775D+01 0.109772183246900D+03 -.137393127106377D+02
 0.218531720007455D+03 0.123849206147461D+03 -.166206555977260D+03 -.692305390433902D+02
0.117475535552D-04 0.000000000000D+00 0.000000000000D+00 0.417245815620D-07 0.000000000000D+00  7 -2 2 23 -11 11 23 21 0 0.20850104D-01 0.22803851D+00 0.91124967D+05 0.91124967D+05 0.91124967D+05 0.11250494D+01  1  2  2  1  7  1       -2 0.373739283448D-03 0.100000000000D+01
-.528679469114D-06 0.000000000000D+00 -.451136988540D-07 0.417245815620D-07 0.000000000000D+00  7 -2 2 23 -11 11 23 21 2 0.20850104D-01 0.22803851D+00 0.91124967D+05 0.91124967D+05 0.91124967D+05 0.11250494D+01  1  2  3  1  7  1       -2 -.212890820266D-04 0.100000000000D+01
0.743123251879D-06 0.000000000000D+00 0.000000000000D+00 0.417245815620D-07 0.000000000000D+00  7 -2 2 23 -11 11 23 21 2 0.20850104D-01 0.22803851D+00 0.91124967D+05 0.91124967D+05 0.91124967D+05 0.11250494D+01  1  2 15  1  7  1       -2 0.299243923576D-04 0.100000000000D+01
-.244686892443D-05 0.000000000000D+00 0.000000000000D+00 0.417245815620D-07 0.000000000000D+00  7 -2 2 23 -11 11 23 21 2 0.20850104D-01 0.22803851D+00 0.91124967D+05 0.91124967D+05 0.91124967D+05 0.11250494D+01  1  2  4  1  7  1       -2 -.985315229431D-04 0.100000000000D+01
  </mgrwgt>
  </event>
  <event>
  9     66 -.53686478E-06 0.22201445E+03 0.75467711E-02 0.10397346E+00
       -2 -1    0    0    0  501 0.00000000E+00 0.00000000E+00 0.14773216E+03 0.14773251E+03 0.32000000E+00 0.0000E+00 0.9000E+01
        2 -1    0    0  502    0 0.00000000E+00 0.00000000E+00 -.85467047E+03 0.85467053E+03 0.32000000E+00 0.0000E+00 0.9000E+01
       25  2    1    2    0    0 -.10528009E+03 -.82802277E+02 -.67859822E+02 0.33597842E+03 0.30056019E+03 0.0000E+00 0.0000E+00
       23  2    1    2    0    0 0.75045987E+02 0.72432973E+02 -.60153836E+03 0.61711492E+03 0.90022133E+02 0.0000E+00 0.0000E+00
       23  1    3    3    0    0 0.51320581E+02 0.58609255E+01 0.33736487E+02 0.11009793E+03 0.91188000E+02 0.0000E+00 0.9000E+01
      -13  1    4    4    0    0 0.92618910E+02 0.71116133E+02 -.46472472E+03 0.47917100E+03 0.10565837E+00 0.0000E+00 0.9000E+01
       13  1    4    4    0    0 -.17572923E+02 0.13168401E+01 -.13681364E+03 0.13794392E+03 0.10565837E+00 0.0000E+00 0.9000E+01
       23  1    3    3    0    0 -.15660067E+03 -.88663203E+02 -.10159631E+03 0.22588049E+03 0.91188000E+02 0.0000E+00 0.9000E+01
       21  1    1    2  502  501 0.30234103E+02 0.10369304E+02 -.37540128E+02 0.49309706E+02 0.75000000E+00 0.0000E+00 0.9000E+01
#aMCatNLO 2  0  0  2  1 0.31962844D+02 0.00000000D+00  -5  7  0 0.00000000D+00 0.00000000D+00 0.00000000D+00 0.00000000D+00 0.00000000D+00
  <mgrwgt>
 -.7909584509D-04    3    2    0
 0.338847810349458D+03 0.000000000000000D+00 0.000000000000000D+00 0.338847810349458D+03
 0.338847810349458D+03 0.000000000000000D+00 0.000000000000000D+00 -.338847810349458D+03
 0.190541518801193D+03 0.597588054714633D+02 0.875495939973786D+01 0.156022610212745D+03
 0.220079076358078D+03 0.102310318859595D+03 0.744400121230062D+02 -.180072438481294D+03
 0.580981015378568D+02 -.149670055678330D+02 0.221054008613344D+01 -.560935973098817D+02
 0.208976924001789D+03 -.147102118763225D+03 -.854055116088775D+02 0.801434255784310D+02
 0.000000000000000D+00 0.000000000000000D+00 0.000000000000000D+00 -.000000000000000D+00
 0.353293440509408D+03 0.000000000000000D+00 0.000000000000000D+00 0.353293440509408D+03
 0.357378322634452D+03 0.000000000000000D+00 0.000000000000000D+00 -.357378322634452D+03
 0.187953341855520D+03 0.513205809146338D+02 0.586092549384366D+01 0.156022610212745D+03
 0.214620342855758D+03 0.926190609447968D+02 0.711162289258062D+02 -.180072438481294D+03
 0.587965850532671D+02 -.175730742823320D+02 0.131674410214935D+01 -.560935973098817D+02
 0.217078680223717D+03 -.156600670093388D+03 -.886632027761644D+02 0.801434255784310D+02
 0.322228131555979D+02 0.302341025162891D+02 0.103693042543652D+02 -.408488212504341D+01
-.468866104451D-05 0.000000000000D+00 0.000000000000D+00 0.183292130360D-06 0.000000000000D+00  7 -2 2 23 -13 13 23 21 2 0.21798473D-01 0.13401535D+00 0.55909134D+05 0.55909134D+05 0.55909134D+05 0.11430525D+01  1  2 13  2  7  2        2 -.410110338980D-03 0.100000000000D+01
-.423767644153D-07 0.000000000000D+00 0.000000000000D+00 0.183292130360D-06 0.000000000000D+00  7 -2 2 23 -13 13 23 21 2 0.21798473D-01 0.12466846D+00 0.49290417D+05 0.49290417D+05 0.49290417D+05 0.11478418D+01  1  2  8  2  7  2        2 -.410082656270D-05 0.100000000000D+01
0.400761089247D-05 0.000000000000D+00 0.000000000000D+00 0.183292130360D-06 0.125346127024D-08  7 -2 2 23 -13 13 23 21 2 0.22727777D-01 0.13148618D+00 0.55909134D+05 0.55909134D+05 0.55909134D+05 0.11430525D+01  1  2  1  2  7  2        2 0.335115320454D-03 0.100000000000D+01
  </mgrwgt>
  </event>
  <event>
  8     66 0.53686478E-06 0.26608830E+03 0.75467711E-02 0.97904560E-01
       -2 -1    0    0    0  501 0.00000000E+00 0.00000000E+00 0.17389963E+03 0.17389992E+03 0.32000000E+00 0.0000E+00 0.9000E+01
        2 -1    0    0  501    0 0.00000000E+00 0.00000000E+00 -.87799418E+03 0.87799424E+03 0.32000000E+00 0.0000E+00 0.9000E+01
       25  2    1    2    0    0 0.11525708E+03 -.12882505E+03 -.77120214E+03 0.84521302E+03 0.29958675E+03 0.0000E+00 0.0000E+00
       23  2    1    2    0    0 -.11525708E+03 0.12882505E+03 0.67107585E+02 0.20668115E+03 0.91288449E+02 0.0000E+00 0.0000E+00
       23  1    3    3    0    0 -.19028036E+02 -.15516547E+03 -.42568515E+03 0.46255971E+03 0.91188000E+02 0.0000E+00 0.9000E+01
      -13  1    4    4    0    0 -.26481767E+02 -.42137544E+01 -.10637285E+02 0.28847924E+02 0.10565837E+00 0.0000E+00 0.9000E+01
       13  1    4    4    0    0 -.88775317E+02 0.13303880E+03 0.77744871E+02 0.17783322E+03 0.10565837E+00 0.0000E+00 0.9000E+01
       23  1    3    3    0    0 0.13428512E+03 0.26340426E+02 -.34551699E+03 0.38265331E+03 0.91188000E+02 0.0000E+00 0.9000E+01
#aMCatNLO 1  0  0  1  1 0.21042791D+03 0.00000000D+00  -5  7  0 0.00000000D+00 0.00000000D+00 0.00000000D+00 0.00000000D+00 0.00000000D+00
  <mgrwgt>
 0.2649783237D-03    3    2    0
 0.390746784290747D+03 0.000000000000000D+00 0.000000000000000D+00 0.390746784290747D+03
 0.390746784290747D+03 0.000000000000000D+00 0.000000000000000D+00 -.390746784290747D+03
 0.239082285004481D+03 -.190280357546193D+02 -.155165473496331D+03 -.156226429738838D+03
 0.292453009122881D+02 -.264816832099482D+02 -.421393816444894D+01 0.116726520107655D+02
 0.309409794460085D+03 -.887754001742994D+02 0.133038985224451D+03 0.264865961652632D+03
 0.203756188204639D+03 0.134285119138867D+03 0.263404264363289D+02 -.120312183924559D+03
 0.000000000000000D+00 -.000000000000000D+00 0.000000000000000D+00 -.000000000000000D+00
 0.441454206059398D+03 0.000000000000000D+00 0.000000000000000D+00 0.441454206059398D+03
 0.705559462515062D+03 0.000000000000000D+00 0.000000000000000D+00 -.705559462515062D+03
 0.253423284443751D+03 0.439146839084842D+02 -.171967767161558D+03 -.156226429738838D+03
 0.236902667452749D+02 -.197164630744479D+02 -.601988515935168D+01 0.116726520107655D+02
 0.288095671235140D+03 -.124135854915525D+02 0.112654520714868D+03 0.264865961652632D+03
 0.244118956485343D+03 0.191524024493533D+03 0.110607419550586D+02 -.120312183924559D+03
 0.337685489664951D+03 -.203308659836017D+03 0.542723896509840D+02 -.264105256455664D+03
0.555504562802D-05 0.000000000000D+00 0.000000000000D+00 0.808985440431D-06 0.000000000000D+00  7 -2 2 23 -13 13 23 21 0 0.26753816D-01 0.13507606D+00 0.70802983D+05 0.70802983D+05 0.70802983D+05 0.11342388D+01  1  2  2  1  7  1       -2 0.259896958245D-03 0.100000000000D+01
-.253217105849D-06 0.000000000000D+00 -.213328378887D-07 0.808985440431D-06 0.000000000000D+00  7 -2 2 23 -13 13 23 21 2 0.26753816D-01 0.13507606D+00 0.70802983D+05 0.70802983D+05 0.70802983D+05 0.11342388D+01  1  2  3  1  7  1       -2 -.152410742078D-04 0.100000000000D+01
0.337639543999D-06 0.000000000000D+00 0.000000000000D+00 0.808985440431D-06 0.000000000000D+00  7 -2 2 23 -13 13 23 21 2 0.26753816D-01 0.13507606D+00 0.70802983D+05 0.70802983D+05 0.70802983D+05 0.11342388D+01  1  2 15  1  7  1       -2 0.203224396247D-04 0.100000000000D+01
  </mgrwgt>
  </event>
  <event>
  9     66 0.53686478E-06 0.24708880E+03 0.75467711E-02 0.95846266E-01
       -2 -1    0    0    0  501 0.00000000E+00 0.00000000E+00 0.88191992E+02 0.88192573E+02 0.32000000E+00 0.0000E+00 0.9000E+01
        2 -1    0    0  502    0 0.00000000E+00 0.00000000E+00 -.31518673E+04 0.31518673E+04 0.32000000E+00 0.0000E+00 0.9000E+01
       25  2    1    2    0    0 0.39274760E+01 0.24782945E+02 -.47718557E+03 0.56421734E+03 0.30000920E+03 0.0000E+00 0.0000E+00
       23  2    1    2    0    0 0.30470913E+03 -.14936673E+03 -.14097975E+04 0.14529840E+04 0.92063272E+02 0.0000E+00 0.0000E+00
       23  1    3    3    0    0 -.30572873E+02 -.32704157E+02 -.34487041E+02 0.10727940E+03 0.91188000E+02 0.0000E+00 0.9000E+01
      -11  1    4    4    0    0 0.75617834E+02 0.43253505E+01 -.30059162E+03 0.30998724E+03 0.51099893E-03 0.0000E+00 0.9000E+01
       11  1    4    4    0    0 0.22909130E+03 -.15369208E+03 -.11092058E+04 0.11429968E+04 0.51099893E-03 0.0000E+00 0.9000E+01
       23  1    3    3    0    0 0.34500349E+02 0.57487102E+02 -.44269853E+03 0.45693794E+03 0.91188000E+02 0.0000E+00 0.9000E+01
       21  1    1    2  502  501 -.30863661E+03 0.12458378E+03 -.11766923E+04 0.12228585E+04 0.75000000E+00 0.0000E+00 0.9000E+01
#aMCatNLO 2  0  0  2  2 0.33283280D+03 0.00000000D+00  -5  7  0 0.00000000D+00 0.00000000D+00 0.00000000D+00 0.00000000D+00 0.00000000D+00
  <mgrwgt>
 0.7236064723D-05    1    2    0
 0.315285087512009D+03 0.000000000000000D+00 0.000000000000000D+00 0.315285087512009D+03
 0.315285087512009D+03 0.000000000000000D+00 0.000000000000000D+00 -.315285087512009D+03
 0.248488114075126D+03 -.136405833594270D+03 0.100162140431571D+02 0.186344346601411D+03
 0.559744707785514D+02 0.440435523305820D+02 0.170705768544232D+02 -.300316879795228D+02
 0.194662877784877D+03 0.115882031841379D+03 -.107994197585469D+03 -.113147001602668D+03
 0.131444712385464D+03 -.235197505776905D+02 0.809074066878892D+02 -.431656570192206D+02
 0.000000000000000D+00 -.000000000000000D+00 0.000000000000000D+00 -.000000000000000D+00
 0.482902397507709D+03 0.000000000000000D+00 0.000000000000000D+00 0.482902397507709D+03
 0.575623539956086D+03 0.000000000000000D+00 0.000000000000000D+00 -.575623539956086D+03
 0.212235080226184D+03 -.305728728354112D+02 -.327041567831608D+02 0.186344346601411D+03
 0.814780205163153D+02 0.756178344534468D+02 0.432535049779730D+01 -.300316879795228D+02
 0.298171631613443D+03 0.229091299225588D+03 -.153692077045242D+03 -.113147001602668D+03
 0.121134496664190D+03 0.345003488019243D+02 0.574871022467751D+02 -.431656570192206D+02
 0.345506708443663D+03 -.308636609645548D+03 0.124583781083830D+03 -.927211424483771D+02
0.865295581118D-06 0.000000000000D+00 0.000000000000D+00 0.340503590718D-06 0.245619650379D-10  7 -2 2 23 -11 11 23 21 2 0.13568034D-01 0.48490233D+00 0.20214532D+06 0.20214532D+06 0.20214532D+06 0.10974697D+01  1  2  1  2  7  2        2 0.723606472317D-05 0.100000000000D+01
  </mgrwgt>
  </event>
  <event>
  8     66 0.53686478E-06 0.11020091E+03 0.75467711E-02 0.10292393E+00
       -2 -1    0    0    0  501 0.00000000E+00 0.00000000E+00 0.33491402E+02 0.33492931E+02 0.32000000E+00 0.0000E+00 0.9000E+01
        2 -1    0    0  501    0 0.00000000E+00 0.00000000E+00 -.20985167E+04 0.20985167E+04 0.32000000E+00 0.0000E+00 0.9000E+01
       25  2    1    2    0    0 -.61007693E+02 0.13612765E+03 -.16180981E+04 0.16520984E+04 0.29821943E+03 0.0000E+00 0.0000E+00
       23  2    1    2    0    0 0.61007693E+02 -.13612765E+03 -.44692717E+03 0.47991128E+03 0.91204512E+02 0.0000E+00 0.0000E+00
       23  1    3    3    0    0 -.43620853E+02 -.35181607E+02 -.27769312E+03 0.29760585E+03 0.91188000E+02 0.0000E+00 0.9000E+01
      -11  1    4    4    0    0 0.59079154E+02 -.60316555E+02 -.13771952E+03 0.16153978E+03 0.51099893E-03 0.0000E+00 0.9000E+01
       11  1    4    4    0    0 0.19285385E+01 -.75811092E+02 -.30920765E+03 0.31837150E+03 0.51099893E-03 0.0000E+00 0.9000E+01
       23  1    3    3    0    0 -.17386839E+02 0.17130925E+03 -.13404050E+04 0.13544925E+04 0.91188000E+02 0.0000E+00 0.9000E+01
#aMCatNLO 1  0  0  2  1 0.45367978D+02 0.00000000D+00  -5  7  0 0.00000000D+00 0.00000000D+00 0.00000000D+00 0.00000000D+00 0.00000000D+00
  <mgrwgt>
 0.1976802765D-03    9    2    0
 0.265111151031268D+03 0.000000000000000D+00 0.000000000000000D+00 0.265111151031268D+03
 0.265111151031268D+03 0.000000000000000D+00 0.000000000000000D+00 -.265111151031268D+03
 0.115150263044664D+03 -.436208534708880D+02 -.351816068006731D+02 0.424712540508207D+02
 0.113179076730661D+03 0.590791541823710D+02 -.603165545903458D+02 0.753728743849557D+02
 0.759105970273876D+02 0.192853847259155D+01 -.758110919019884D+02 -.337310317696223D+01
 0.225982365259824D+03 -.173868391840746D+02 0.171309253293007D+03 -.114471025258814D+03
 0.000000000000000D+00 -.000000000000000D+00 -.000000000000000D+00 -.000000000000000D+00
 0.269470045937845D+03 0.000000000000000D+00 0.000000000000000D+00 0.269470045937845D+03
 0.417859605008549D+03 0.000000000000000D+00 0.000000000000000D+00 -.417859605008549D+03
 0.110780017097596D+03 -.358684795424568D+02 -.294381656834581D+02 0.424712540508207D+02
 0.114582160136105D+03 0.668943539576351D+02 -.545265681754896D+02 0.753728743849557D+02
 0.724590844218550D+02 0.701956588827263D+01 -.720393419247516D+02 -.337310317696223D+01
 0.234338435242522D+03 -.159179404766356D+01 0.183011205820352D+03 -.114471025258814D+03
 0.155169954048317D+03 -.364536462557874D+02 -.270071300366531D+02 -.148389559070704D+03
0.129281220708D-05 0.000000000000D+00 0.000000000000D+00 0.262627025607D-07 0.000000000000D+00  7 -2 2 23 -11 11 23 21 0 0.51526428D-02 0.32284884D+00 0.53393787D+05 0.53393787D+05 0.53393787D+05 0.11447951D+01  1  2  2  2  7  2        2 0.170260498505D-03 0.100000000000D+01
-.701737063081D-07 0.000000000000D+00 -.496473928047D-08 0.262627025607D-07 0.000000000000D+00  7 -2 2 23 -11 11 23 21 2 0.51526428D-02 0.32284884D+00 0.53393787D+05 0.53393787D+05 0.53393787D+05 0.11447951D+01  1  2  3  2  7  2        2 -.121117925609D-04 0.100000000000D+01
0.795283595272D-07 0.000000000000D+00 0.000000000000D+00 0.262627025607D-07 0.000000000000D+00  7 -2 2 23 -11 11 23 21 2 0.51526428D-02 0.32284884D+00 0.53393787D+05 0.53393787D+05 0.53393787D+05 0.11447951D+01  1  2 15  2  7  2        2 0.137263804917D-04 0.100000000000D+01
0.556204570970D-05 0.000000000000D+00 0.000000000000D+00 0.262627025607D-07 0.000000000000D+00  7 -2 2 23 -11 11 23 21 2 0.51526428D-02 0.51024432D+00 0.65240050D+05 0.65240050D+05 0.65240050D+05 0.11372688D+01  1  2 12  2  7  2        2 0.180714815855D-03 0.100000000000D+01
-.518746523364D-05 0.000000000000D+00 0.000000000000D+00 0.262627025607D-07 0.000000000000D+00  7 -2 2 23 -11 11 23 21 2 0.51526428D-02 0.32284884D+00 0.53393787D+05 0.53393787D+05 0.53393787D+05 0.11447951D+01  1  2  4  2  7  2        2 -.895342516906D-03 0.100000000000D+01
-.576427529529D-05 0.000000000000D+00 -.373950219941D-06 0.262627025607D-07 0.000000000000D+00  7 -2 2 23 -11 11 23 21 2 0.51526428D-02 0.51050831D+00 0.53393787D+05 0.53393787D+05 0.53393787D+05 0.11447951D+01  1  2  5  2  7  2        2 -.190778072793D-03 0.100000000000D+01
0.539531943645D-05 0.000000000000D+00 0.337855784787D-06 0.262627025607D-07 0.000000000000D+00  7 -2 2 23 -11 11 23 21 2 0.51526428D-02 0.32284884D+00 0.53393787D+05 0.53393787D+05 0.53393787D+05 0.11447951D+01  1  2  6  2  7  2        2 0.931217592056D-03 0.100000000000D+01
0.292789333965D-06 0.000000000000D+00 0.000000000000D+00 0.262627025607D-07 0.000000000000D+00  7 -2 21 23 -11 11 23 -2 2 0.51526428D-02 0.51024432D+00 0.65240050D+05 0.65240050D+05 0.65240050D+05 0.11372688D+01  1  2 12  4  7  2        2 0.467291267349D-06 0.100000000000D+01
-.288478363952D-06 0.000000000000D+00 -.197019319238D-07 0.262627025607D-07 0.000000000000D+00  7 -2 21 23 -11 11 23 -2 2 0.51526428D-02 0.51050831D+00 0.53393787D+05 0.53393787D+05 0.53393787D+05 0.11447951D+01  1  2  5  4  7  2        2 -.473919419303D-06 0.100000000000D+01
  </mgrwgt>
  </event>
  <event>
  8     66 0.53686478E-06 0.14047988E+03 0.75467711E-02 0.10023165E+00
       -2 -1    0    0    0  501 0.00000000E+00 0.00000000E+00 0.96389021E+02 0.96389552E+02 0.32000000E+00 0.0000E+00 0.9000E+01
        2 -1    0    0  501    0 0.00000000E+00 0.00000000E+00 -.19244556E+04 0.19244557E+04 0.32000000E+00 0.0000E+00 0.9000E+01
       25  2    1    2    0    0 0.14440061E+02 0.17887365E+03 -.17764241E+04 0.18097774E+04 0.29564769E+03 0.0000E+00 0.0000E+00
       23  2    1    2    0    0 -.14440061E+02 -.17887365E+03 -.51642534E+02 0.21106778E+03 0.98378649E+02 0.0000E+00 0.0000E+00
       23  1    3    3    0    0 -.51559596E+02 -.25592915E+02 -.70720661E+03 0.71538090E+03 0.91188000E+02 0.0000E+00 0.9000E+01
      -11  1    4    4    0    0 -.43286885E+02 -.15474139E+03 -.20008262E+02 0.16192276E+03 0.51099893E-03 0.0000E+00 0.9000E+01
       11  1    4    4    0    0 0.28846824E+02 -.24132263E+02 -.31634271E+02 0.49145015E+02 0.51099893E-03 0.0000E+00 0.9000E+01
       23  1    3    3    0    0 0.65999657E+02 0.20446656E+03 -.10692175E+04 0.10943965E+04 0.91188000E+02 0.0000E+00 0.9000E+01
#aMCatNLO 1  0  0  2  1 0.81470487D+02 0.00000000D+00  -5  7  0 0.00000000D+00 0.00000000D+00 0.00000000D+00 0.00000000D+00 0.00000000D+00
  <mgrwgt>
 0.9693865145D-03    9    2    0
 0.430693579856349D+03 0.000000000000000D+00 0.000000000000000D+00 0.430693579856349D+03
 0.430693579856349D+03 0.000000000000000D+00 0.000000000000000D+00 -.430693579856349D+03
 0.177450139796962D+03 -.515595961147475D+02 -.255929146851381D+02 -.140925198372628D+03
 0.337414372129152D+03 -.432868852873446D+02 -.154741385668142D+03 0.296698176002033D+03
 0.481605895322718D+02 0.288468242391573D+02 -.241322630186961D+02 0.300821707495920D+02
 0.298362058254313D+03 0.659996571629348D+02 0.204466563371976D+03 -.185855148378997D+03
 0.000000000000000D+00 -.000000000000000D+00 0.000000000000000D+00 -.000000000000000D+00
 0.467717205456713D+03 0.000000000000000D+00 0.000000000000000D+00 0.467717205456713D+03
 0.479888823145209D+03 0.000000000000000D+00 0.000000000000000D+00 -.479888823145209D+03
 0.174672838493572D+03 -.362246083849415D+02 -.319877378755408D+02 -.140925198372628D+03
 0.340774456686198D+03 -.137517001118009D+02 -.167057814635757D+03 0.296698176002033D+03
 0.517721666315074D+02 0.331989048588800D+02 -.259471184697644D+02 0.300821707495920D+02
 0.298011882539066D+03 0.919717965241347D+02 0.193635955482505D+03 -.185855148378997D+03
 0.823746842515796D+02 -.751943928862723D+02 0.313567154985570D+02 -.121716176884965D+02
0.165572126843D-04 0.000000000000D+00 0.000000000000D+00 0.892610110779D-09 0.000000000000D+00  7 -2 2 23 -11 11 23 21 0 0.14829123D-01 0.29607014D+00 0.72773877D+05 0.72773877D+05 0.72773877D+05 0.11332277D+01  1  2  2  2  7  2        2 0.535501888384D-03 0.100000000000D+01
-.675055948036D-06 0.000000000000D+00 -.635840563220D-07 0.892610110779D-09 0.000000000000D+00  7 -2 2 23 -11 11 23 21 2 0.14829123D-01 0.29607014D+00 0.72773877D+05 0.72773877D+05 0.72773877D+05 0.11332277D+01  1  2  3  2  7  2        2 -.280380545085D-04 0.100000000000D+01
0.981605716544D-06 0.000000000000D+00 0.000000000000D+00 0.892610110779D-09 0.000000000000D+00  7 -2 2 23 -11 11 23 21 2 0.14829123D-01 0.29607014D+00 0.72773877D+05 0.72773877D+05 0.72773877D+05 0.11332277D+01  1  2 15  2  7  2        2 0.407704200909D-04 0.100000000000D+01
0.157607081969D-04 0.000000000000D+00 0.000000000000D+00 0.892610110779D-09 0.000000000000D+00  7 -2 2 23 -11 11 23 21 2 0.14829123D-01 0.34135618D+00 0.98403994D+05 0.98403994D+05 0.98403994D+05 0.11222959D+01  1  2 12  2  7  2        2 0.441130383809D-03 0.100000000000D+01
-.147544938616D-04 0.000000000000D+00 0.000000000000D+00 0.892610110779D-09 0.000000000000D+00  7 -2 2 23 -11 11 23 21 2 0.14829123D-01 0.29607014D+00 0.72773877D+05 0.72773877D+05 0.72773877D+05 0.11332277D+01  1  2  4  2  7  2        2 -.612819284596D-03 0.100000000000D+01
-.407507627811D-04 0.000000000000D+00 -.121898602978D-04 0.892610110779D-09 0.000000000000D+00  7 -2 2 23 -11 11 23 21 2 0.14829123D-01 0.34311869D+00 0.72773877D+05 0.72773877D+05 0.72773877D+05 0.11332277D+01  1  2  5  2  7  2        2 -.115835574706D-02 0.100000000000D+01
0.422199177451D-04 0.000000000000D+00 0.120584842582D-04 0.892610110779D-09 0.000000000000D+00  7 -2 2 23 -11 11 23 21 2 0.14829123D-01 0.29607014D+00 0.72773877D+05 0.72773877D+05 0.72773877D+05 0.11332277D+01  1  2  6  2  7  2        2 0.175357962333D-02 0.100000000000D+01
0.344492620063D-06 0.000000000000D+00 0.000000000000D+00 0.892610110779D-09 0.000000000000D+00  7 -2 21 23 -11 11 23 -2 2 0.14829123D-01 0.34135618D+00 0.98403994D+05 0.98403994D+05 0.98403994D+05 0.11222959D+01  1  2 12  4  7  2        2 0.161406762119D-05 0.100000000000D+01
-.834817586848D-06 0.000000000000D+00 -.274269098305D-06 0.892610110779D-09 0.000000000000D+00  7 -2 21 23 -11 11 23 -2 2 0.14829123D-01 0.34311869D+00 0.72773877D+05 0.72773877D+05 0.72773877D+05 0.11332277D+01  1  2  5  4  7  2        2 -.399678252331D-05 0.100000000000D+01
  </mgrwgt>
  </event>
  <event>
  8     66 0.53686478E-06 0.64419936E+03 0.75467711E-02 0.82283272E-01
       -2 -1    0    0    0  501 0.00000000E+00 0.00000000E+00 0.52106775E+03 0.52106785E+03 0.32000000E+00 0.0000E+00 0.9000E+01
        2 -1    0    0  501    0 0.00000000E+00 0.00000000E+00 -.16640962E+04 0.16640962E+04 0.32000000E+00 0.0000E+00 0.9000E+01
       25  2    1    2    0    0 -.49073420E+03 -.37640055E+03 -.13600643E+04 0.15234967E+04 0.29794300E+03 0.0000E+00 0.0000E+00
       23  2    1    2    0    0 0.49073420E+03 0.37640055E+03 0.21703585E+03 0.66166732E+03 0.90562983E+02 0.0000E+00 0.0000E+00
       23  1    3    3    0    0 -.13110038E+03 -.19705395E+03 -.70872201E+03 0.75274146E+03 0.91188000E+02 0.0000E+00 0.9000E+01
      -13  1    4    4    0    0 0.22849021E+03 0.13027939E+03 0.12035139E+03 0.28924896E+03 0.10565837E+00 0.0000E+00 0.9000E+01
       13  1    4    4    0    0 0.26224399E+03 0.24612116E+03 0.96684466E+02 0.37241836E+03 0.10565837E+00 0.0000E+00 0.9000E+01
       23  1    3    3    0    0 -.35963382E+03 -.17934660E+03 -.65134227E+03 0.77075527E+03 0.91188000E+02 0.0000E+00 0.9000E+01
#aMCatNLO 1  0  0  2  1 0.15671760D+04 0.00000000D+00  -5  7  0 0.00000000D+00 0.00000000D+00 0.00000000D+00 0.00000000D+00 0.00000000D+00
  <mgrwgt>
 0.2517376052D-03    3    2    0
 0.931185796479008D+03 0.000000000000000D+00 0.000000000000000D+00 0.931185796479008D+03
 0.931185796479008D+03 0.000000000000000D+00 0.000000000000000D+00 -.931185796479008D+03
 0.448231801886739D+03 -.131100375267079D+03 -.197053945930347D+03 -.369565868116557D+03
 0.413247968125039D+03 0.228490164332937D+03 0.130279227818364D+03 0.318737275450537D+03
 0.496307242687968D+03 0.262244035234086D+03 0.246121318959589D+03 0.342013510672122D+03
 0.504584580258269D+03 -.359633824299944D+03 -.179346600847606D+03 -.291184918006103D+03
 0.000000000000000D+00 -.000000000000000D+00 -.000000000000000D+00 0.000000000000000D+00
 0.222032978803440D+04 0.000000000000000D+00 0.000000000000000D+00 0.222032978803440D+04
 0.182899102093605D+04 0.000000000000000D+00 0.000000000000000D+00 -.182899102093605D+04
 0.454589970842173D+03 0.195341164096702D+03 -.153621902666544D+03 -.369565868116557D+03
 0.745145889966735D+03 0.647341243967426D+03 0.186006076329219D+03 0.318737275450537D+03
 0.894711852678022D+03 0.765207553053495D+03 0.313039068791983D+03 0.342013510672122D+03
 0.339575405886010D+03 -.544031645283044D+02 -.138736599906924D+03 -.291184918006103D+03
 0.161529768959751D+04 -.155348679658932D+04 -.206686642547735D+03 0.391338767098353D+03
0.135540041650D-03 0.000000000000D+00 0.000000000000D+00 0.251247603981D-06 0.000000000000D+00  7 -2 2 23 -13 13 23 21 0 0.80164279D-01 0.25601481D+00 0.41499282D+06 0.41499282D+06 0.41499282D+06 0.10742775D+01  1  2  2  2  7  2        2 0.247247583580D-03 0.100000000000D+01
-.628710542650D-05 0.000000000000D+00 -.520509448448D-06 0.251247603981D-06 0.000000000000D+00  7 -2 2 23 -13 13 23 21 2 0.80164279D-01 0.25601481D+00 0.41499282D+06 0.41499282D+06 0.41499282D+06 0.10742775D+01  1  2  3  2  7  2        2 -.132357371978D-04 0.100000000000D+01
0.841990988746D-05 0.000000000000D+00 0.000000000000D+00 0.251247603981D-06 0.000000000000D+00  7 -2 2 23 -13 13 23 21 2 0.80164279D-01 0.25601481D+00 0.41499282D+06 0.41499282D+06 0.41499282D+06 0.10742775D+01  1  2 15  2  7  2        2 0.177257588253D-04 0.100000000000D+01
  </mgrwgt>
  </event>
  <event>
  8     66 0.53686478E-06 0.78149226E+03 0.75467711E-02 0.88039452E-01
       -2 -1    0    0    0  501 0.00000000E+00 0.00000000E+00 0.20387837E+04 0.20387837E+04 0.32000000E+00 0.0000E+00 0.9000E+01
        2 -1    0    0  501    0 0.00000000E+00 0.00000000E+00 -.39953706E+03 0.39953719E+03 0.32000000E+00 0.0000E+00 0.9000E+01
       25  2    1    2    0    0 -.74513332E+03 0.16705123E+03 0.26285156E+03 0.86154868E+03 0.30007568E+03 0.0000E+00 0.0000E+00
       23  2    1    2    0    0 0.74513332E+03 -.16705123E+03 0.13763951E+04 0.15767722E+04 0.92830411E+02 0.0000E+00 0.0000E+00
       23  1    3    3    0    0 -.39511796E+03 0.15260346E+03 0.36914911E+02 0.43483788E+03 0.91188000E+02 0.0000E+00 0.9000E+01
      -13  1    4    4    0    0 0.49020729E+03 -.71066964E+02 0.93468836E+03 0.10578261E+04 0.10565837E+00 0.0000E+00 0.9000E+01
       13  1    4    4    0    0 0.25492603E+03 -.95984266E+02 0.44170670E+03 0.51894612E+03 0.10565837E+00 0.0000E+00 0.9000E+01
       23  1    3    3    0    0 -.35001536E+03 0.14447769E+02 0.22593665E+03 0.42671081E+03 0.91188000E+02 0.0000E+00 0.9000E+01
#aMCatNLO 1  0  0  2  2 0.28309705D+03 0.00000000D+00  -5  7  0 0.00000000D+00 0.00000000D+00 0.00000000D+00 0.00000000D+00 0.00000000D+00
  <mgrwgt>
 0.1001069243D-03    4    2    0
 0.902535223223128D+03 0.000000000000000D+00 0.000000000000000D+00 0.902535223223128D+03
 0.902535223223128D+03 0.000000000000000D+00 0.000000000000000D+00 -.902535223223128D+03
 0.553862949164804D+03 -.395117958917870D+03 0.152603461022352D+03 -.345025937196192D+03
 0.580107767810797D+03 0.490207594756662D+03 -.710669317794541D+02 0.301945404874406D+03
 0.299872122521115D+03 0.254925723778482D+03 -.959842981381109D+02 0.125392103947059D+03
 0.371227606949539D+03 -.350015359617274D+03 0.144477688952132D+02 -.823115716252724D+02
 0.000000000000000D+00 0.000000000000000D+00 0.000000000000000D+00 0.000000000000000D+00
 0.122003396772295D+04 0.000000000000000D+00 0.000000000000000D+00 0.122003396772295D+04
 0.978945068367244D+03 0.000000000000000D+00 0.000000000000000D+00 -.978945068367244D+03
 0.541641099960495D+03 -.401824595630653D+03 0.674827891433529D+02 -.345025937196192D+03
 0.592271436538637D+03 0.483030331085687D+03 -.162160803728964D+03 0.301945404874406D+03
 0.315404454720040D+03 0.251159022519152D+03 -.143791292268342D+03 0.125392103947059D+03
 0.377818267580928D+03 -.354600991743140D+03 -.437531005211381D+02 -.823115716252724D+02
 0.371843777290095D+03 0.222362337689534D+02 0.282222407375092D+03 0.241088899355707D+03
0.543397768218D-03 0.000000000000D+00 0.000000000000D+00 0.148411275955D-05 0.000000000000D+00  7 -2 2 23 -13 13 23 21 0 0.31365904D+00 0.61467252D-01 0.61073015D+06 0.61073015D+06 0.61073015D+06 0.10624239D+01  1  2  2  2  7  2        2 0.115701147596D-03 0.100000000000D+01
-.294276210237D-04 0.000000000000D+00 -.208679050988D-05 0.148411275955D-05 0.000000000000D+00  7 -2 2 23 -13 13 23 21 2 0.31365904D+00 0.61467252D-01 0.61073015D+06 0.61073015D+06 0.61073015D+06 0.10624239D+01  1  2  3  2  7  2        2 -.707246179664D-05 0.100000000000D+01
0.336035927645D-04 0.000000000000D+00 0.000000000000D+00 0.148411275955D-05 0.000000000000D+00  7 -2 2 23 -13 13 23 21 2 0.31365904D+00 0.61467252D-01 0.61073015D+06 0.61073015D+06 0.61073015D+06 0.10624239D+01  1  2 15  2  7  2        2 0.807609034606D-05 0.100000000000D+01
-.690615667645D-04 0.000000000000D+00 0.000000000000D+00 0.148411275955D-05 0.000000000000D+00  7 -2 2 23 -13 13 23 21 2 0.31365904D+00 0.61467252D-01 0.61073015D+06 0.61073015D+06 0.61073015D+06 0.10624239D+01  1  2  4  2  7  2        2 -.165978517993D-04 0.100000000000D+01
  </mgrwgt>
  </event>
  <event>
  7     66 0.53686478E-06 0.28976720E+03 0.75467711E-02 0.91957480E-01
       -2 -1    0    0    0  501 0.00000000E+00 0.00000000E+00 0.73576253E+02 0.73576948E+02 0.32000000E+00 0.0000E+00 0.9000E+01
        2 -1    0    0  501    0 0.00000000E+00 0.00000000E+00 -.14538336E+04 0.14538337E+04 0.32000000E+00 0.0000E+00 0.9000E+01
       23  2    1    2    0    0 0.74751742E+02 -.19912751E+03 -.80078338E+03 0.83350743E+03 0.90780137E+02 0.0000E+00 0.0000E+00
       23  1    1    2    0    0 0.71387678E+02 0.14034463E+03 -.39428495E+03 0.43424497E+03 0.91188000E+02 0.0000E+00 0.9000E+01
      -11  1    3    3    0    0 0.63104438E+02 -.19154170E+03 -.79151113E+03 0.81679879E+03 0.51099893E-03 0.0000E+00 0.9000E+01
       11  1    3    3    0    0 0.11647304E+02 -.75858071E+01 -.92722482E+01 0.16708643E+02 0.51099893E-03 0.0000E+00 0.9000E+01
       23  1    1    2    0    0 -.14613942E+03 0.58782881E+02 -.18518906E+03 0.25965823E+03 0.91188000E+02 0.0000E+00 0.9000E+01
#aMCatNLO 1  0  0  1  1 0.52808586D+03 0.00000000D+00  -5  7  0 0.00000000D+00 0.00000000D+00 0.00000000D+00 0.00000000D+00 0.00000000D+00
  <mgrwgt>
 0.2534037694D-03    3    2    0
 0.327059917786198D+03 0.000000000000000D+00 0.000000000000000D+00 0.327059917786198D+03
 0.327059917786198D+03 0.000000000000000D+00 0.000000000000000D+00 -.327059917786198D+03
 0.182008936945613D+03 0.713876777321535D+02 0.140344628428942D+03 -.438024237053261D+01
 0.237109556170929D+03 0.631044377410933D+02 -.191541702042387D+03 -.124701836167960D+03
 0.194503651840319D+02 0.116473040736971D+02 -.758580705869149D+01 0.136056071116045D+02
 0.215550977271821D+03 -.146139419546944D+03 0.587828806721362D+02 0.115476471426888D+03
 0.000000000000000D+00 0.000000000000000D+00 -.000000000000000D+00 -.000000000000000D+00
 0.618965602211404D+03 0.000000000000000D+00 0.000000000000000D+00 0.618965602211404D+03
 0.771349219895738D+03 0.000000000000000D+00 0.000000000000000D+00 -.771349219895738D+03
 0.293508936533103D+03 -.251729849117382D+02 0.277811768627972D+03 -.438024237053261D+01
 0.148914508194583D+03 -.152832350059553D+02 -.799462665477668D+02 -.124701836167960D+03
 0.145815588056071D+02 0.473663821912921D+01 0.225245881363394D+01 0.136056071116045D+02
 0.383677718017007D+03 -.267821322834883D+03 0.232013498617011D+03 0.115476471426888D+03
 0.549632100556842D+03 0.303540904533448D+03 -.432131459510850D+03 -.152383617684334D+03
0.284931990898D-05 0.000000000000D+00 0.000000000000D+00 0.771568132241D-09 0.000000000000D+00  7 -2 2 23 -11 11 23 21 0 0.11319480D-01 0.22366677D+00 0.83965029D+05 0.83965029D+05 0.83965029D+05 0.11280044D+01  1  2  2  1  7  1       -2 0.250384091278D-03 0.100000000000D+01
-.155474626371D-06 0.000000000000D+00 -.109421386936D-07 0.771568132241D-09 0.000000000000D+00  7 -2 2 23 -11 11 23 21 2 0.11319480D-01 0.22366677D+00 0.83965029D+05 0.83965029D+05 0.83965029D+05 0.11280044D+01  1  2  3  1  7  1       -2 -.173838756967D-04 0.100000000000D+01
0.182481453711D-06 0.000000000000D+00 0.000000000000D+00 0.771568132241D-09 0.000000000000D+00  7 -2 2 23 -11 11 23 21 2 0.11319480D-01 0.22366677D+00 0.83965029D+05 0.83965029D+05 0.83965029D+05 0.11280044D+01  1  2 15  1  7  1       -2 0.204035538294D-04 0.100000000000D+01
  </mgrwgt>
  </event>
  <event>
  8     66 0.53686478E-06 0.21380759E+03 0.75467711E-02 0.10266310E+00
       -2 -1    0    0    0  501 0.00000000E+00 0.00000000E+00 0.32007164E+03 0.32007180E+03 0.32000000E+00 0.0000E+00 0.9000E+01
        2 -1    0    0  501    0 0.00000000E+00 0.00000000E+00 -.20970411E+03 0.20970435E+03 0.32000000E+00 0.0000E+00 0.9000E+01
       25  2    1    2    0    0 0.11873663E+03 0.80796389E+01 0.17865472E+03 0.36892752E+03 0.30004389E+03 0.0000E+00 0.0000E+00
       23  2    1    2    0    0 -.11873663E+03 -.80796389E+01 -.68287182E+02 0.16084864E+03 0.83937333E+02 0.0000E+00 0.0000E+00
       23  1    3    3    0    0 -.37896735E+02 -.34546935E+02 0.14644193E+03 0.17997262E+03 0.91188000E+02 0.0000E+00 0.9000E+01
      -13  1    4    4    0    0 -.36170182E+02 -.34632918E+02 -.52754194E+02 0.72737454E+02 0.10565837E+00 0.0000E+00 0.9000E+01
       13  1    4    4    0    0 -.82566453E+02 0.26553279E+02 -.15532988E+02 0.88111183E+02 0.10565837E+00 0.0000E+00 0.9000E+01
       23  1    3    3    0    0 0.15663337E+03 0.42626574E+02 0.32212786E+02 0.18895489E+03 0.91188000E+02 0.0000E+00 0.9000E+01
#aMCatNLO 1  0  0  1  2 0.78113125D+02 0.00000000D+00  -5  7  0 0.00000000D+00 0.00000000D+00 0.00000000D+00 0.00000000D+00 0.00000000D+00
  <mgrwgt>
 0.2046342663D-03    4    2    0
 0.259076137320060D+03 0.000000000000000D+00 0.000000000000000D+00 0.259076137320060D+03
 0.259076137320060D+03 0.000000000000000D+00 0.000000000000000D+00 -.259076137320060D+03
 0.152817562454658D+03 -.378967331485887D+02 -.345469344713465D+02 0.111392562524975D+03
 0.856059405394130D+02 -.361701109111510D+02 -.346330125861261D+02 -.694309338229134D+02
 0.933963819782035D+02 -.825665259752722D+02 0.265533735407783D+02 -.346492612994430D+02
 0.186332389667846D+03 0.156633370035012D+03 0.426265735166943D+02 -.731236740261885D+01
 0.000000000000000D+00 0.000000000000000D+00 0.000000000000000D+00 -.000000000000000D+00
 0.279726616640542D+03 0.000000000000000D+00 0.000000000000000D+00 0.279726616640542D+03
 0.348073024880684D+03 0.000000000000000D+00 0.000000000000000D+00 -.348073024880684D+03
 0.161951788286406D+03 -.591509496983983D+02 -.447883081736950D+02 0.111392562524975D+03
 0.937518551026893D+02 -.482809133749196D+02 -.404686195385682D+02 -.694309338229134D+02
 0.103927357152495D+03 -.958904454484615D+02 0.201332244759965D+02 -.346492612994430D+02
 0.164376098678247D+03 0.132952429881165D+03 0.312158796823613D+02 -.731236740261885D+01
 0.103792542301389D+03 0.703698786406140D+02 0.339078235539054D+02 -.683464082401422D+02
0.322105394494D-05 0.000000000000D+00 0.000000000000D+00 0.519954367303D-08 0.000000000000D+00  7 -2 2 23 -13 13 23 21 0 0.49241822D-01 0.32262201D-01 0.45713686D+05 0.45713686D+05 0.45713686D+05 0.11507349D+01  1  2  2  1  7  1       -2 0.250446961815D-03 0.100000000000D+01
-.170922993264D-06 0.000000000000D+00 -.123696952716D-07 0.519954367303D-08 0.000000000000D+00  7 -2 2 23 -13 13 23 21 2 0.49241822D-01 0.32262201D-01 0.45713686D+05 0.45713686D+05 0.45713686D+05 0.11507349D+01  1  2  3  1  7  1       -2 -.175982241329D-04 0.100000000000D+01
0.196787590608D-06 0.000000000000D+00 0.000000000000D+00 0.519954367303D-08 0.000000000000D+00  7 -2 2 23 -13 13 23 21 2 0.49241822D-01 0.32262201D-01 0.45713686D+05 0.45713686D+05 0.45713686D+05 0.11507349D+01  1  2 15  1  7  1       -2 0.202612419778D-04 0.100000000000D+01
-.470821030482D-06 0.000000000000D+00 0.000000000000D+00 0.519954367303D-08 0.000000000000D+00  7 -2 2 23 -13 13 23 21 2 0.49241822D-01 0.32262201D-01 0.45713686D+05 0.45713686D+05 0.45713686D+05 0.11507349D+01  1  2  4  1  7  1       -2 -.484757133179D-04 0.100000000000D+01
  </mgrwgt>
  </event>
  <event>
  8     66 0.53686478E-06 0.32183182E+03 0.75467711E-02 0.99027332E-01
       -2 -1    0    0    0  501 0.00000000E+00 0.00000000E+00 0.24296376E+03 0.24296397E+03 0.32000000E+00 0.0000E+00 0.9000E+01
        2 -1    0    0  501    0 0.00000000E+00 0.00000000E+00 -.68403300E+03 0.68403307E+03 0.32000000E+00 0.0000E+00 0.9000E+01
       25  2    1    2    0    0 0.17673999E+03 -.22262458E+03 -.25497500E+02 0.41547291E+03 0.30194186E+03 0.0000E+00 0.0000E+00
       23  2    1    2    0    0 -.17673999E+03 0.22262458E+03 -.41557173E+03 0.51152413E+03 0.90323568E+02 0.0000E+00 0.0000E+00
       23  1    3    3    0    0 0.18970702E+03 -.64127937E+02 -.61899423E+02 0.22857807E+03 0.91188000E+02 0.0000E+00 0.9000E+01
      -13  1    4    4    0    0 -.12860167E+03 0.16858722E+03 -.36863379E+03 0.42526571E+03 0.10565837E+00 0.0000E+00 0.9000E+01
       13  1    4    4    0    0 -.48138320E+02 0.54037362E+02 -.46937939E+02 0.86258423E+02 0.10565837E+00 0.0000E+00 0.9000E+01
       23  1    3    3    0    0 -.12967025E+02 -.15849664E+03 0.36401923E+02 0.18689484E+03 0.91188000E+02 0.0000E+00 0.9000E+01
#aMCatNLO 1  0  0  2  2 0.24444961D+01 0.00000000D+00  -5  7  0 0.00000000D+00 0.00000000D+00 0.00000000D+00 0.00000000D+00 0.00000000D+00
  <mgrwgt>
 0.2773105229D-03   10    2    0
 0.407670654672408D+03 0.000000000000000D+00 0.000000000000000D+00 0.407670654672408D+03
 0.407670654672408D+03 0.000000000000000D+00 0.000000000000000D+00 -.407670654672408D+03
 0.226395083304932D+03 0.189707014462354D+03 -.641279378641089D+02 0.532760607564465D+02
 0.284086267462819D+03 -.128601782300264D+03 0.168587375741036D+03 -.189063179098687D+03
 0.726789946592020D+02 -.481382095217387D+02 0.540372050463926D+02 -.670294856668527D+01
 0.232180963917863D+03 -.129670226403507D+02 -.158496642923320D+03 0.142490066908925D+03
 0.000000000000000D+00 0.000000000000000D+00 -.000000000000000D+00 -.000000000000000D+00
 0.408176926259942D+03 0.000000000000000D+00 0.000000000000000D+00 0.408176926259942D+03
 0.410633973181623D+03 0.000000000000000D+00 0.000000000000000D+00 -.410633973181623D+03
 0.225805143707699D+03 0.189113234170231D+03 -.638009215670555D+02 0.532760607564465D+02
 0.284669111048086D+03 -.129348610175672D+03 0.168998680881325D+03 -.189063179098687D+03
 0.728838973671111D+02 -.483293469236825D+02 0.541424713313153D+02 -.670294856668527D+01
 0.231986821667439D+03 -.135765174323804D+02 -.158160972082427D+03 0.142490066908925D+03
 0.346592565123037D+01 0.214124036150394D+01 -.117925856315780D+01 -.245704692168101D+01
0.345902501886D-05 0.000000000000D+00 0.000000000000D+00 0.585795800943D-07 0.000000000000D+00  7 -2 2 23 -13 13 23 21 0 0.37379062D-01 0.10523587D+00 0.11825347D+06 0.11825347D+06 0.11825347D+06 0.11157954D+01  1  2  2  2  7  2        2 0.121172610489D-03 0.100000000000D+01
-.185402361403D-06 0.000000000000D+00 -.132835668546D-07 0.585795800943D-07 0.000000000000D+00  7 -2 2 23 -13 13 23 21 2 0.37379062D-01 0.10523587D+00 0.11825347D+06 0.11825347D+06 0.11825347D+06 0.11157954D+01  1  2  3  2  7  2        2 -.808602570289D-05 0.100000000000D+01
0.224786582457D-06 0.000000000000D+00 0.000000000000D+00 0.585795800943D-07 0.000000000000D+00  7 -2 2 23 -13 13 23 21 2 0.37379062D-01 0.10523587D+00 0.11825347D+06 0.11825347D+06 0.11825347D+06 0.11157954D+01  1  2 15  2  7  2        2 0.980370513977D-05 0.100000000000D+01
-.205313928000D-03 0.000000000000D+00 0.000000000000D+00 0.585795800943D-07 0.000000000000D+00  7 -2 2 23 -13 13 23 21 2 0.37379062D-01 0.10523587D+00 0.11825347D+06 0.11825347D+06 0.11825347D+06 0.11157954D+01  1  2  4  2  7  2        2 -.895443664476D-02 0.100000000000D+01
-.664338160732D-03 0.000000000000D+00 -.551635697458D-04 0.585795800943D-07 0.000000000000D+00  7 -2 2 23 -13 13 23 21 2 0.37379062D-01 0.10608024D+00 0.11825347D+06 0.11825347D+06 0.11825347D+06 0.11157954D+01  1  2  5  2  7  2        2 -.286979811589D-01 0.100000000000D+01
0.664759541655D-03 0.000000000000D+00 0.551618082457D-04 0.585795800943D-07 0.000000000000D+00  7 -2 2 23 -13 13 23 21 2 0.37379062D-01 0.10523587D+00 0.11825347D+06 0.11825347D+06 0.11825347D+06 0.11157954D+01  1  2  6  2  7  2        2 0.289924178926D-01 0.100000000000D+01
0.205318601619D-03 0.000000000000D+00 0.000000000000D+00 0.585795800943D-07 0.650640545731D-07  7 -2 2 23 -13 13 23 21 2 0.37425482D-01 0.10600082D+00 0.11914149D+06 0.11914149D+06 0.11914149D+06 0.11155331D+01  1  2 11  2  7  2        2 0.885192353145D-02 0.100000000000D+01
0.129267819000D-08 0.000000000000D+00 0.000000000000D+00 0.585795800943D-07 0.000000000000D+00  7 -2 21 23 -13 13 23 -2 2 0.37379062D-01 0.10606588D+00 0.11914149D+06 0.11914149D+06 0.11914149D+06 0.11155331D+01  1  2 12  4  7  2        2 0.706666208565D-07 0.100000000000D+01
-.982330589182D-06 0.000000000000D+00 -.816768013404D-07 0.585795800943D-07 0.000000000000D+00  7 -2 21 23 -13 13 23 -2 2 0.37379062D-01 0.10608024D+00 0.11825347D+06 0.11825347D+06 0.11825347D+06 0.11157954D+01  1  2  5  4  7  2        2 -.537306295207D-04 0.100000000000D+01
0.295744552247D-06 0.000000000000D+00 0.000000000000D+00 0.585795800943D-07 0.875117974154D-10  7 -2 21 23 -13 13 23 -2 2 0.37425482D-01 0.10600082D+00 0.11914149D+06 0.11914149D+06 0.11914149D+06 0.11155331D+01  1  2 11  4  7  2        2 0.161565754173D-04 0.100000000000D+01
  </mgrwgt>
  </event>
  <event>
  8     66 0.53686478E-06 0.17106359E+03 0.75467711E-02 0.10511971E+00
       -2 -1    0    0    0  501 0.00000000E+00 0.00000000E+00 0.11484378E+03 0.11484423E+03 0.32000000E+00 0.0000E+00 0.9000E+01
        2 -1    0    0  501    0 0.00000000E+00 0.00000000E+00 -.73257234E+03 0.73257241E+03 0.32000000E+00 0.0000E+00 0.9000E+01
       25  2    1    2    0    0 -.80708548E+02 0.47131227E+02 -.12582042E+03 0.33842944E+03 0.29994747E+03 0.0000E+00 0.0000E+00
       23  2    1    2    0    0 0.80708548E+02 -.47131227E+02 -.49190814E+03 0.50898720E+03 0.91428304E+02 0.0000E+00 0.0000E+00
       23  1    3    3    0    0 -.89653342E+02 0.77158304E+02 -.17510119E+03 0.23014518E+03 0.91188000E+02 0.0000E+00 0.9000E+01
      -11  1    4    4    0    0 0.14904368E+02 0.82763180E+00 -.56535302E+01 0.15962066E+02 0.51099893E-03 0.0000E+00 0.9000E+01
       11  1    4    4    0    0 0.65804180E+02 -.47958858E+02 -.48625461E+03 0.49302514E+03 0.51099893E-03 0.0000E+00 0.9000E+01
       23  1    3    3    0    0 0.89447940E+01 -.30027078E+02 0.49280770E+02 0.10828426E+03 0.91188000E+02 0.0000E+00 0.9000E+01
#aMCatNLO 1  0  0  1  1 0.84124419D+02 0.00000000D+00  -5  7  0 0.00000000D+00 0.00000000D+00 0.00000000D+00 0.00000000D+00 0.00000000D+00
  <mgrwgt>
 0.2300027163D-03    4    2    0
 0.290054473781479D+03 0.000000000000000D+00 0.000000000000000D+00 0.290054473781479D+03
 0.290054473781479D+03 0.000000000000000D+00 0.000000000000000D+00 -.290054473781479D+03
 0.149737130948428D+03 -.896533422681572D+02 0.771583041570422D+02 -.107159395493191D+02
 0.172970500006044D+02 0.149043677988159D+02 0.827631800285310D+00 0.873858025334700D+01
 0.202417749335152D+03 0.658041804460332D+02 -.479588583624276D+02 -.185317843140662D+03
 0.210657017278773D+03 0.894479402330806D+01 -.300270775949000D+02 0.187295202436634D+03
 0.000000000000000D+00 0.000000000000000D+00 0.000000000000000D+00 -.000000000000000D+00
 0.303702360523299D+03 0.000000000000000D+00 0.000000000000000D+00 0.303702360523299D+03
 0.459777789997542D+03 0.000000000000000D+00 0.000000000000000D+00 -.459777789997542D+03
 0.154043353763675D+03 -.106416063069639D+03 0.630467576889941D+02 -.107159395493191D+02
 0.157472222543532D+02 0.130809724927515D+02 -.707377217395966D+00 0.873858025334700D+01
 0.201713827868219D+03 0.435040488159751D+02 -.667320245726128D+02 -.185317843140662D+03
 0.214672454140610D+03 -.145250453404747D+02 -.497849517909767D+02 0.187295202436634D+03
 0.177303292493983D+03 0.643560871013877D+02 0.541775958919913D+02 -.156075429474243D+03
0.204873861551D-05 0.000000000000D+00 0.000000000000D+00 0.860670959303D-06 0.000000000000D+00  7 -2 2 23 -11 11 23 21 0 0.17668314D-01 0.11270348D+00 0.29262753D+05 0.29262753D+05 0.29262753D+05 0.11683399D+01  1  2  2  1  7  1       -2 0.239811283162D-03 0.100000000000D+01
-.752338310797D-07 0.000000000000D+00 -.786769572881D-08 0.860670959303D-06 0.000000000000D+00  7 -2 2 23 -11 11 23 21 2 0.17668314D-01 0.11270348D+00 0.29262753D+05 0.29262753D+05 0.29262753D+05 0.11683399D+01  1  2  3  1  7  1       -2 -.120208345099D-04 0.100000000000D+01
0.125259919590D-06 0.000000000000D+00 0.000000000000D+00 0.860670959303D-06 0.000000000000D+00  7 -2 2 23 -11 11 23 21 2 0.17668314D-01 0.11270348D+00 0.29262753D+05 0.29262753D+05 0.29262753D+05 0.11683399D+01  1  2 15  1  7  1       -2 0.200139849654D-04 0.100000000000D+01
-.111414177809D-06 0.000000000000D+00 0.000000000000D+00 0.860670959303D-06 0.000000000000D+00  7 -2 2 23 -11 11 23 21 2 0.17668314D-01 0.11270348D+00 0.29262753D+05 0.29262753D+05 0.29262753D+05 0.11683399D+01  1  2  4  1  7  1       -2 -.178017173162D-04 0.100000000000D+01
  </mgrwgt>
  </event>
  <event>
  9     66 0.53686478E-06 0.29579091E+03 0.75467711E-02 0.97655913E-01
       -2 -1    0    0    0  501 0.00000000E+00 0.00000000E+00 0.12405315E+03 0.12405356E+03 0.32000000E+00 0.0000E+00 0.9000E+01
        2 -1    0    0  502    0 0.00000000E+00 0.00000000E+00 -.19042141E+04 0.19042142E+04 0.32000000E+00 0.0000E+00 0.9000E+01
       25  2    1    2    0    0 -.13430515E+03 0.33554073E+02 -.11280244E+04 0.11768178E+04 0.30544619E+03 0.0000E+00 0.0000E+00
       23  2    1    2    0    0 0.27627517E+03 0.25209180E+02 -.15220678E+03 0.32844037E+03 0.87992610E+02 0.0000E+00 0.0000E+00
       23  1    3    3    0    0 -.54054997E+02 -.10591856E+03 -.53843033E+03 0.55889459E+03 0.91188000E+02 0.0000E+00 0.9000E+01
      -13  1    4    4    0    0 0.25904400E+02 0.20660209E+02 -.45390858E+02 0.56198073E+02 0.10565837E+00 0.0000E+00 0.9000E+01
       13  1    4    4    0    0 0.25037077E+03 0.45489706E+01 -.10681593E+03 0.27224230E+03 0.10565837E+00 0.0000E+00 0.9000E+01
       23  1    3    3    0    0 -.80250148E+02 0.13947263E+03 -.58959406E+03 0.61792322E+03 0.91188000E+02 0.0000E+00 0.9000E+01
       21  1    1    2  502  501 -.14197002E+03 -.58763253E+02 -.49992982E+03 0.52300955E+03 0.75000000E+00 0.0000E+00 0.9000E+01
#aMCatNLO 2  0  0  2  1 0.15365093D+03 0.00000000D+00  -5  7  0 0.00000000D+00 0.00000000D+00 0.00000000D+00 0.00000000D+00 0.00000000D+00
  <mgrwgt>
 0.3180910466D-04    2    2    0
 0.388330305716695D+03 0.000000000000000D+00 0.000000000000000D+00 0.388330305716695D+03
 0.388330305716695D+03 0.000000000000000D+00 0.000000000000000D+00 -.388330305716695D+03
 0.213560021016657D+03 -.907615048631815D+02 -.121111866514749D+03 -.119945388643829D+03
 0.277982373786444D+02 0.203600100053940D+02 0.183654704914882D+02 0.457400126431936D+01
 0.305453519608677D+03 0.191502564659276D+03 -.198175069958667D+02 0.237141069380056D+03
 0.229848833429412D+03 -.121101069801489D+03 0.122563903019128D+03 -.121769682000546D+03
 0.000000000000000D+00 -.000000000000000D+00 -.000000000000000D+00 -.000000000000000D+00
 0.436456814863945D+03 0.000000000000000D+00 0.000000000000000D+00 0.436456814863945D+03
 0.541229780187864D+03 0.000000000000000D+00 0.000000000000000D+00 -.541229780187864D+03
 0.191944867139635D+03 -.540549969656960D+02 -.105918561750864D+03 -.119945388643829D+03
 0.334482862761581D+02 0.259040763530284D+02 0.206602322238234D+02 0.457400126431936D+01
 0.344880070084822D+03 0.250371090645784D+03 0.454894755251006D+01 0.237141069380056D+03
 0.221440305695970D+03 -.802501483127927D+02 0.139472634892961D+03 -.121769682000546D+03
 0.185973065855224D+03 -.141970021720323D+03 -.587632529184303D+02 -.104772965323918D+03
-.166479565598D-05 0.000000000000D+00 0.000000000000D+00 0.150144640707D-08 0.000000000000D+00  7 -2 2 23 -13 13 23 21 2 0.16980657D-01 0.30196069D+00 0.14899769D+06 0.14899769D+06 0.14899769D+06 0.11077817D+01  1  2 13  2  7  2        2 -.495973126768D-04 0.100000000000D+01
0.307693608004D-05 0.000000000000D+00 0.000000000000D+00 0.150144640707D-08 0.449760011409D-12  7 -2 2 23 -13 13 23 21 2 0.19085102D-01 0.29295557D+00 0.14899769D+06 0.14899769D+06 0.14899769D+06 0.11077817D+01  1  2  1  2  7  2        2 0.814064173337D-04 0.100000000000D+01
  </mgrwgt>
  </event>
  <event>
  8     66 0.53686478E-06 0.31065409E+03 0.75467711E-02 0.87073266E-01
       -2 -1    0    0    0  501 0.00000000E+00 0.00000000E+00 0.42314860E+03 0.42314872E+03 0.32000000E+00 0.0000E+00 0.9000E+01
        2 -1    0    0  501    0 0.00000000E+00 0.00000000E+00 -.31942816E+03 0.31942832E+03 0.32000000E+00 0.0000E+00 0.9000E+01
       25  2    1    2    0    0 0.15466524E+03 0.22555213E+03 0.18672819E+03 0.44716364E+03 0.30048760E+03 0.0000E+00 0.0000E+00
       23  2    1    2    0    0 -.15466524E+03 -.22555213E+03 -.83007754E+02 0.29541340E+03 0.74724105E+02 0.0000E+00 0.0000E+00
       23  1    3    3    0    0 0.59883196E+02 0.17439501E+03 0.22101825E+03 0.30193366E+03 0.91188000E+02 0.0000E+00 0.9000E+01
      -11  1    4    4    0    0 -.33172424E+02 -.32926114E+02 -.44319979E+02 0.64411173E+02 0.51099893E-03 0.0000E+00 0.9000E+01
       11  1    4    4    0    0 -.12149282E+03 -.19262602E+03 -.38687775E+02 0.23100223E+03 0.51099893E-03 0.0000E+00 0.9000E+01
       23  1    3    3    0    0 0.94782045E+02 0.51157119E+02 -.34290055E+02 0.14522998E+03 0.91188000E+02 0.0000E+00 0.9000E+01
#aMCatNLO 1  0  0  1  2 0.94942171D+03 0.00000000D+00  -5  7  0 0.00000000D+00 0.00000000D+00 0.00000000D+00 0.00000000D+00 0.00000000D+00
  <mgrwgt>
 0.2106275096D-02    3    2    0
 0.367648857429721D+03 0.000000000000000D+00 0.000000000000000D+00 0.367648857429721D+03
 0.367648857429721D+03 0.000000000000000D+00 0.000000000000000D+00 -.367648857429721D+03
 0.273746115072272D+03 0.598831963722198D+02 0.174395010695780D+03 0.180615800000517D+03
 0.713005693926200D+02 -.331724236874250D+02 -.329261137250789D+02 -.538445218882752D+02
 0.238746377170967D+03 -.121492817286029D+03 -.192626015766506D+03 -.716557465252238D+02
 0.151504653223582D+03 0.947820446012343D+02 0.511571187958042D+02 -.551155315870175D+02
 0.000000000000000D+00 0.000000000000000D+00 0.000000000000000D+00 -.000000000000000D+00
 0.876031880099616D+03 0.000000000000000D+00 0.000000000000000D+00 0.876031880099616D+03
 0.141809602758229D+04 0.000000000000000D+00 0.000000000000000D+00 -.141809602758229D+04
 0.308778304894426D+03 -.213918301410628D+03 0.929821667914910D+02 0.180615800000517D+03
 0.169618354743262D+03 -.146410530128366D+03 -.665966245087902D+02 -.538445218882752D+02
 0.611165150445763D+03 -.520973150243868D+03 -.311408528839988D+03 -.716557465252238D+02
 0.111298008553201D+03 -.287419828033439D+02 0.144281657296165D+02 -.551155315870175D+02
 0.109326808904525D+04 0.910043964586206D+03 0.270594820827671D+03 -.542064147482673D+03
0.752726235883D-04 0.000000000000D+00 0.000000000000D+00 0.210351913099D-08 0.000000000000D+00  7 -2 2 23 -11 11 23 21 0 0.65099806D-01 0.49142815D-01 0.96505965D+05 0.96505965D+05 0.96505965D+05 0.11229918D+01  1  2  2  1  7  1       -2 0.209205632507D-02 0.100000000000D+01
-.403754143042D-05 0.000000000000D+00 -.289066694316D-06 0.210351913099D-08 0.000000000000D+00  7 -2 2 23 -11 11 23 21 2 0.65099806D-01 0.49142815D-01 0.96505965D+05 0.96505965D+05 0.96505965D+05 0.11229918D+01  1  2  3  1  7  1       -2 -.141516295617D-03 0.100000000000D+01
0.444321115273D-05 0.000000000000D+00 0.000000000000D+00 0.210351913099D-08 0.000000000000D+00  7 -2 2 23 -11 11 23 21 2 0.65099806D-01 0.49142815D-01 0.96505965D+05 0.96505965D+05 0.96505965D+05 0.11229918D+01  1  2 15  1  7  1       -2 0.155735066454D-03 0.100000000000D+01
  </mgrwgt>
  </event>
  <event>
  9     66 0.53686478E-06 0.18843115E+03 0.75467711E-02 0.10397213E+00
       -2 -1    0    0    0  501 0.00000000E+00 0.00000000E+00 0.14395140E+03 0.14395176E+03 0.32000000E+00 0.0000E+00 0.9000E+01
        2 -1    0    0  502    0 0.00000000E+00 0.00000000E+00 -.12870502E+04 0.12870502E+04 0.32000000E+00 0.0000E+00 0.9000E+01
       25  2    1    2    0    0 0.59613161E+02 -.41161516E+02 -.67064941E+02 0.31529383E+03 0.29944030E+03 0.0000E+00 0.0000E+00
       23  2    1    2    0    0 0.18711254E+02 0.50286785E+01 -.10021610E+03 0.13608520E+03 0.90002875E+02 0.0000E+00 0.0000E+00
       23  1    3    3    0    0 -.70906064E+01 0.86280624E+02 0.14293372E+02 0.12654712E+03 0.91188000E+02 0.0000E+00 0.9000E+01
      -13  1    4    4    0    0 -.35781658E+02 -.11474802E+01 -.28246547E+02 0.45601780E+02 0.10565837E+00 0.0000E+00 0.9000E+01
       13  1    4    4    0    0 0.54492912E+02 0.61761587E+01 -.71969548E+02 0.90483421E+02 0.10565837E+00 0.0000E+00 0.9000E+01
       23  1    3    3    0    0 0.66703767E+02 -.12744214E+03 -.81358313E+02 0.18874670E+03 0.91188000E+02 0.0000E+00 0.9000E+01
       21  1    1    2  502  501 -.78324414E+02 0.36132837E+02 -.97581773E+03 0.97962294E+03 0.75000000E+00 0.0000E+00 0.9000E+01
#aMCatNLO 2  0  0  2  1 0.86257149D+02 0.00000000D+00  -5  7  0 0.00000000D+00 0.00000000D+00 0.00000000D+00 0.00000000D+00 0.00000000D+00
  <mgrwgt>
 0.2120015407D-03    2    2    0
 0.205133971634249D+03 0.000000000000000D+00 0.000000000000000D+00 0.205133971634249D+03
 0.205133971634249D+03 0.000000000000000D+00 0.000000000000000D+00 -.205133971634249D+03
 0.154008334318694D+03 -.350360941233854D+02 0.991724553558382D+02 0.658833203693487D+02
 0.453840944823443D+02 -.436386675108338D+02 0.247722155895250D+01 -.122166322367957D+02
 0.603464926879641D+02 0.423075287660699D+02 0.117975851194698D+02 -.413834408283740D+02
 0.150529021779496D+03 0.363672328681492D+02 -.113447262034261D+03 -.122832473041791D+02
 0.000000000000000D+00 -.000000000000000D+00 0.000000000000000D+00 -.000000000000000D+00
 0.212426174298886D+03 0.000000000000000D+00 0.000000000000000D+00 0.212426174298886D+03
 0.872174040250015D+03 0.000000000000000D+00 0.000000000000000D+00 -.872174040250015D+03
 0.141952366100409D+03 -.709058905361352D+01 0.862805571463642D+02 0.658833203693487D+02
 0.378270650309313D+02 -.357816179878839D+02 -.114741440392486D+01 -.122166322367957D+02
 0.687037468191781D+02 0.544928429557418D+02 0.617622204904061D+01 -.413834408283740D+02
 0.170754321658706D+03 0.667037785317166D+02 -.127442201748011D+03 -.122832473041791D+02
 0.665362714939677D+03 -.783244144459610D+02 0.361328369565313D+02 -.659747865951128D+03
-.146094615138D-04 0.000000000000D+00 0.000000000000D+00 0.273081935523D-07 0.000000000000D+00  7 -2 2 23 -13 13 23 21 2 0.21386133D-01 0.19511680D+00 0.55919980D+05 0.55919980D+05 0.55919980D+05 0.11430452D+01  1  2 13  2  7  2        2 -.769541624389D-03 0.100000000000D+01
0.202229837901D-04 0.000000000000D+00 0.000000000000D+00 0.273081935523D-07 0.538712206935D-10  7 -2 2 23 -13 13 23 21 2 0.22146378D-01 0.19800755D+00 0.55919980D+05 0.55919980D+05 0.55919980D+05 0.11430452D+01  1  2  1  2  7  2        2 0.981543165090D-03 0.100000000000D+01
  </mgrwgt>
  </event>
  <event>
  8     66 0.53686478E-06 0.24560019E+03 0.75467711E-02 0.90114502E-01
       -2 -1    0    0    0  501 0.00000000E+00 0.00000000E+00 0.39370001E+03 0.39370014E+03 0.32000000E+00 0.0000E+00 0.9000E+01
        2 -1    0    0  501    0 0.00000000E+00 0.00000000E+00 -.14587561E+04 0.14587561E+04 0.32000000E+00 0.0000E+00 0.9000E+01
       25  2    1    2    0    0 -.62350095E+03 -.51293071E+02 -.99886351E+03 0.12161418E+04 0.29981356E+03 0.0000E+00 0.0000E+00
       23  2    1    2    0    0 0.62350095E+03 0.51293071E+02 -.66192558E+02 0.63631444E+03 0.95552099E+02 0.0000E+00 0.0000E+00
       23  1    3    3    0    0 -.42147704E+03 0.72707572E+02 -.68014157E+03 0.80860194E+03 0.91188000E+02 0.0000E+00 0.9000E+01
      -11  1    4    4    0    0 0.56445367E+03 0.32350126E+02 -.33891913E+02 0.56639486E+03 0.51099893E-03 0.0000E+00 0.9000E+01
       11  1    4    4    0    0 0.59047276E+02 0.18942945E+02 -.32300646E+02 0.69919580E+02 0.51099893E-03 0.0000E+00 0.9000E+01
       23  1    3    3    0    0 -.20202391E+03 -.12400064E+03 -.31872194E+03 0.40753987E+03 0.91188000E+02 0.0000E+00 0.9000E+01
#aMCatNLO 1  0  0  1  2 0.19060977D+03 0.00000000D+00  -5  7  0 0.00000000D+00 0.00000000D+00 0.00000000D+00 0.00000000D+00 0.00000000D+00
  <mgrwgt>
 0.2899173148D-03    7    2    0
 0.757834039216567D+03 0.000000000000000D+00 0.000000000000000D+00 0.757834039216567D+03
 0.757834039216567D+03 0.000000000000000D+00 0.000000000000000D+00 -.757834039216567D+03
 0.510343138895792D+03 -.421477038037547D+03 0.727075720560524D+02 -.263069541085280D+03
 0.668434551952755D+03 0.564453670858727D+03 0.323501258708211D+02 0.356581369472005D+03
 0.627584405831659D+02 0.590472763622402D+02 0.189429452347620D+02 0.965431740025129D+01
 0.274131947001421D+03 -.202023909183420D+03 -.124000643161636D+03 -.103166145786976D+03
 0.000000000000000D+00 0.000000000000000D+00 -.000000000000000D+00 0.000000000000000D+00
 0.185145487630485D+04 0.000000000000000D+00 0.000000000000000D+00 0.185145487630485D+04
 0.772154319690854D+03 0.000000000000000D+00 0.000000000000000D+00 -.772154319690854D+03
 0.566075273575585D+03 -.482198791434201D+03 0.102003461226812D+03 -.263069541085280D+03
 0.611533934189388D+03 0.492249470456238D+03 0.671858500442793D+02 0.356581369472005D+03
 0.575998780602804D+02 0.522577528282421D+02 0.222186268125807D+02 0.965431740025129D+01
 0.292397475781008D+03 -.233982355363435D+03 -.108581933309114D+03 -.103166145786976D+03
 0.109600263438944D+04 0.171673923513155D+03 -.828260047745577D+02 0.107930055661399D+04
0.712121943949D-04 0.000000000000D+00 0.000000000000D+00 0.423892830193D-06 0.000000000000D+00  7 -2 2 23 -11 11 23 21 0 0.60569245D-01 0.22442402D+00 0.43473252D+06 0.43473252D+06 0.43473252D+06 0.10728304D+01  1  2  2  1  7  1       -2 0.309148299461D-03 0.100000000000D+01
-.386299893483D-05 0.000000000000D+00 -.273473577078D-06 0.423892830193D-06 0.000000000000D+00  7 -2 2 23 -11 11 23 21 2 0.60569245D-01 0.22442402D+00 0.43473252D+06 0.43473252D+06 0.43473252D+06 0.10728304D+01  1  2  3  1  7  1       -2 -.193018625785D-04 0.100000000000D+01
0.442812088994D-05 0.000000000000D+00 0.000000000000D+00 0.423892830193D-06 0.000000000000D+00  7 -2 2 23 -11 11 23 21 2 0.60569245D-01 0.22442402D+00 0.43473252D+06 0.43473252D+06 0.43473252D+06 0.10728304D+01  1  2 15  1  7  1       -2 0.221255512467D-04 0.100000000000D+01
0.536904746362D-03 0.000000000000D+00 0.000000000000D+00 0.423892830193D-06 0.000000000000D+00  7 -2 2 23 -11 11 23 21 2 0.14763035D+00 0.22442402D+00 0.57686687D+06 0.57686687D+06 0.57686687D+06 0.10641486D+01  1  2 12  1  7  1       -2 0.307431994889D-03 0.100000000000D+01
-.552675241536D-03 0.000000000000D+00 -.208303141107D-04 0.423892830193D-06 0.000000000000D+00  7 -2 2 23 -11 11 23 21 2 0.14878965D+00 0.22442402D+00 0.43473252D+06 0.43473252D+06 0.43473252D+06 0.10728304D+01  1  2  5  1  7  1       -2 -.320528764160D-03 0.100000000000D+01
0.524502004011D-04 0.000000000000D+00 0.000000000000D+00 0.423892830193D-06 0.000000000000D+00  7 21 2 23 -11 11 23 2 2 0.14763035D+00 0.22442402D+00 0.57686687D+06 0.57686687D+06 0.57686687D+06 0.10641486D+01  1  2 12  3  7  1       -2 0.251030989996D-03 0.100000000000D+01
-.532300957928D-04 0.000000000000D+00 -.205516820709D-05 0.423892830193D-06 0.000000000000D+00  7 21 2 23 -11 11 23 2 2 0.14878965D+00 0.22442402D+00 0.43473252D+06 0.43473252D+06 0.43473252D+06 0.10728304D+01  1  2  5  3  7  1       -2 -.259988894033D-03 0.100000000000D+01
  </mgrwgt>
  </event>
  <event>
  8     66 0.53686478E-06 0.57686028E+03 0.75467711E-02 0.88145724E-01
       -2 -1    0    0    0  501 0.00000000E+00 0.00000000E+00 0.29403772E+03 0.29403789E+03 0.32000000E+00 0.0000E+00 0.9000E+01
        2 -1    0    0  501    0 0.00000000E+00 0.00000000E+00 -.48411064E+04 0.48411065E+04 0.32000000E+00 0.0000E+00 0.9000E+01
       25  2    1    2    0    0 0.68330394E+03 0.13833257E+00 -.25589608E+03 0.78896707E+03 0.30013654E+03 0.0000E+00 0.0000E+00
       23  2    1    2    0    0 -.68330394E+03 -.13833257E+00 -.42911726E+04 0.43461773E+04 0.90498174E+02 0.0000E+00 0.0000E+00
       23  1    3    3    0    0 0.52050055E+03 -.23581831E+02 -.86793527E+02 0.53602733E+03 0.91188000E+02 0.0000E+00 0.9000E+01
      -11  1    4    4    0    0 -.13530953E+03 -.56149309E+00 -.11005883E+04 0.11088749E+04 0.51099893E-03 0.0000E+00 0.9000E+01
       11  1    4    4    0    0 -.54799441E+03 0.42316053E+00 -.31905844E+04 0.32373024E+04 0.51099893E-03 0.0000E+00 0.9000E+01
       23  1    3    3    0    0 0.16280339E+03 0.23720164E+02 -.16910255E+03 0.25293974E+03 0.91188000E+02 0.0000E+00 0.9000E+01
#aMCatNLO 1  0  0  2  1 0.41316334D+03 0.00000000D+00  -5  7  0 0.00000000D+00 0.00000000D+00 0.00000000D+00 0.00000000D+00 0.00000000D+00
  <mgrwgt>
 0.2335766534D-03    9    2    0
 0.119309193004729D+04 0.000000000000000D+00 0.000000000000000D+00 0.119309193004729D+04
 0.119309193004729D+04 0.000000000000000D+00 0.000000000000000D+00 -.119309193004729D+04
 0.988155857174239D+03 0.520500551110850D+03 -.235818314901875D+02 0.834661500394396D+03
 0.289073329529270D+03 -.135309526437472D+03 -.561493094485548D+00 -.255449420876051D+03
 0.886858979219969D+03 -.547994411795085D+03 0.423160526613028D+00 -.697295342447956D+03
 0.222095694171106D+03 0.162803387121708D+03 0.237201640580600D+02 0.118083262929611D+03
 0.000000000000000D+00 -.000000000000000D+00 -.000000000000000D+00 -.000000000000000D+00
 0.135992393680449D+04 0.000000000000000D+00 0.000000000000000D+00 0.135992393680449D+04
 0.149710781850178D+04 0.000000000000000D+00 0.000000000000000D+00 -.149710781850178D+04
 0.107162687837936D+04 0.660472372982525D+03 0.847663813507752D+02 0.834661500394396D+03
 0.274788430069120D+03 -.969924959990446D+02 0.290986321640293D+02 -.255449420876051D+03
 0.825068163393175D+03 -.431660996174564D+03 0.904735542960404D+02 -.697295342447956D+03
 0.250205475420918D+03 0.194898449401250D+03 0.485640404362347D+02 0.118083262929611D+03
 0.435342808043696D+03 -.326717330210166D+03 -.252902608247080D+03 -.137183881697290D+03
0.585494423559D-02 0.000000000000D+00 0.000000000000D+00 0.110319881383D-04 0.000000000000D+00  7 -2 2 23 -11 11 23 21 0 0.45236586D-01 0.74478562D+00 0.49025371D+06 0.49025371D+06 0.49025371D+06 0.10691151D+01  1  2  2  2  7  2        2 0.168529592701D-03 0.100000000000D+01
-.212936330120D-03 0.000000000000D+00 -.224845275069D-04 0.110319881383D-04 0.000000000000D+00  7 -2 2 23 -11 11 23 21 2 0.45236586D-01 0.74478562D+00 0.49025371D+06 0.49025371D+06 0.49025371D+06 0.10691151D+01  1  2  3  2  7  2        2 -.700570944473D-05 0.100000000000D+01
0.333730960817D-03 0.000000000000D+00 0.000000000000D+00 0.110319881383D-04 0.000000000000D+00  7 -2 2 23 -11 11 23 21 2 0.45236586D-01 0.74478562D+00 0.49025371D+06 0.49025371D+06 0.49025371D+06 0.10691151D+01  1  2 15  2  7  2        2 0.109799118961D-04 0.100000000000D+01
0.682245506029D-03 0.000000000000D+00 0.000000000000D+00 0.110319881383D-04 0.000000000000D+00  7 -2 2 23 -11 11 23 21 2 0.45236586D-01 0.97595720D+00 0.85392359D+06 0.85392359D+06 0.85392359D+06 0.10524599D+01  1  2 12  2  7  2        2 0.154316904116D-08 0.100000000000D+01
-.191588023564D-02 0.000000000000D+00 0.000000000000D+00 0.110319881383D-04 0.000000000000D+00  7 -2 2 23 -11 11 23 21 2 0.45236586D-01 0.74478562D+00 0.49025371D+06 0.49025371D+06 0.49025371D+06 0.10691151D+01  1  2  4  2  7  2        2 -.630333971389D-04 0.100000000000D+01
-.264906403203D-02 0.000000000000D+00 -.105467695400D-02 0.110319881383D-04 0.000000000000D+00  7 -2 2 23 -11 11 23 21 2 0.45236586D-01 0.93847777D+00 0.49025371D+06 0.49025371D+06 0.49025371D+06 0.10691151D+01  1  2  5  2  7  2        2 -.192886900494D-06 0.100000000000D+01
0.377798667336D-02 0.000000000000D+00 0.158570533188D-02 0.110319881383D-04 0.000000000000D+00  7 -2 2 23 -11 11 23 21 2 0.45236586D-01 0.74478562D+00 0.49025371D+06 0.49025371D+06 0.49025371D+06 0.10691151D+01  1  2  6  2  7  2        2 0.124297610016D-03 0.100000000000D+01
0.244519266737D-04 0.000000000000D+00 0.000000000000D+00 0.110319881383D-04 0.000000000000D+00  7 -2 21 23 -11 11 23 -2 2 0.45236586D-01 0.97595720D+00 0.85392359D+06 0.85392359D+06 0.85392359D+06 0.10524599D+01  1  2 12  4  7  2        2 0.336171526188D-12 0.100000000000D+01
-.690614975978D-04 0.000000000000D+00 -.336772469635D-04 0.110319881383D-04 0.000000000000D+00  7 -2 21 23 -11 11 23 -2 2 0.45236586D-01 0.93847777D+00 0.49025371D+06 0.49025371D+06 0.49025371D+06 0.10691151D+01  1  2  5  4  7  2        2 -.112527086802D-10 0.100000000000D+01
  </mgrwgt>
  </event>
  <event>
  8     66 0.53686478E-06 0.51592179E+03 0.75467711E-02 0.82325206E-01
       -2 -1    0    0    0  501 0.00000000E+00 0.00000000E+00 0.12351369E+04 0.12351369E+04 0.32000000E+00 0.0000E+00 0.9000E+01
        2 -1    0    0  501    0 0.00000000E+00 0.00000000E+00 -.12606212E+04 0.12606213E+04 0.32000000E+00 0.0000E+00 0.9000E+01
       25  2    1    2    0    0 -.87785380E+03 0.84054805E+03 0.16335864E+03 0.12624011E+04 0.29970334E+03 0.0000E+00 0.0000E+00
       23  2    1    2    0    0 0.87785380E+03 -.84054805E+03 -.18884297E+03 0.12333571E+04 0.91432262E+02 0.0000E+00 0.0000E+00
       23  1    3    3    0    0 -.54161668E+03 0.61318417E+03 0.19237452E+03 0.84537960E+03 0.91188000E+02 0.0000E+00 0.9000E+01
      -13  1    4    4    0    0 0.61211300E+00 -.11407784E+02 -.45433509E+01 0.12294934E+02 0.10565837E+00 0.0000E+00 0.9000E+01
       13  1    4    4    0    0 0.87724168E+03 -.82914027E+03 -.18429962E+03 0.12210622E+04 0.10565837E+00 0.0000E+00 0.9000E+01
       23  1    3    3    0    0 -.33623712E+03 0.22736388E+03 -.29015879E+02 0.41702147E+03 0.91188000E+02 0.0000E+00 0.9000E+01
#aMCatNLO 1  0  0  2  1 0.87959658D+03 0.00000000D+00  -5  7  0 0.00000000D+00 0.00000000D+00 0.00000000D+00 0.00000000D+00 0.00000000D+00
  <mgrwgt>
 0.3916765817D-03    7    2    0
 0.124781404521824D+04 0.000000000000000D+00 0.000000000000000D+00 0.124781404521824D+04
 0.124781404521824D+04 0.000000000000000D+00 0.000000000000000D+00 -.124781404521824D+04
 0.847388121807408D+03 -.541616679711926D+03 0.613184172258156D+03 0.201017215148841D+03
 0.122475687575373D+02 0.610942349745201D+00 -.114066916566806D+02 -.441781341449627D+01
 0.121924548854554D+04 0.877242854959003D+03 -.829141357272981D+03 -.171840462119798D+03
 0.416746911325989D+03 -.336237117596822D+03 0.227363876671506D+03 -.247589396145473D+02
 0.000000000000000D+00 0.000000000000000D+00 0.000000000000000D+00 -.000000000000000D+00
 0.145675666477338D+04 0.000000000000000D+00 0.000000000000000D+00 0.145675666477338D+04
 0.276967352180974D+04 0.000000000000000D+00 0.000000000000000D+00 -.276967352180974D+04
 0.890711619753943D+03 -.759083577532934D+03 0.410409721807730D+03 0.201017215148841D+03
 0.155702902507534D+02 -.286956188019092D+01 -.146520468789571D+02 -.441781341449627D+01
 0.126591943972977D+04 0.566304941211822D+03 -.111907175686962D+04 -.171840462119798D+03
 0.473899499789940D+03 -.447672674170121D+03 0.123457102945481D+03 -.247589396145473D+02
 0.158032933705871D+04 0.643320872371424D+03 0.599856978995367D+03 -.131291685703637D+04
0.141389504400D-02 0.000000000000D+00 0.000000000000D+00 0.103138993325D-04 0.000000000000D+00  7 -2 2 23 -13 13 23 21 0 0.19002107D+00 0.19394173D+00 0.15100837D+07 0.15100837D+07 0.15100837D+07 0.10361523D+01  1  2  2  2  7  2        2 0.417805079116D-03 0.100000000000D+01
-.785273365838D-04 0.000000000000D+00 -.542972925609D-05 0.103138993325D-04 0.000000000000D+00  7 -2 2 23 -13 13 23 21 2 0.19002107D+00 0.19394173D+00 0.15100837D+07 0.15100837D+07 0.15100837D+07 0.10361523D+01  1  2  3  2  7  2        2 -.249129181798D-04 0.100000000000D+01
0.834397804422D-04 0.000000000000D+00 0.000000000000D+00 0.103138993325D-04 0.000000000000D+00  7 -2 2 23 -13 13 23 21 2 0.19002107D+00 0.19394173D+00 0.15100837D+07 0.15100837D+07 0.15100837D+07 0.10361523D+01  1  2 15  2  7  2        2 0.264713985412D-04 0.100000000000D+01
0.225854932791D-03 0.000000000000D+00 0.000000000000D+00 0.103138993325D-04 0.000000000000D+00  7 -2 2 23 -13 13 23 21 2 0.19002107D+00 0.42788135D+00 0.30445253D+07 0.30445253D+07 0.30445253D+07 0.10171180D+01  1  2 12  2  7  2        2 0.859601293054D-05 0.100000000000D+01
-.103559740262D-02 0.000000000000D+00 -.391011163562D-03 0.103138993325D-04 0.000000000000D+00  7 -2 2 23 -13 13 23 21 2 0.19002107D+00 0.44791592D+00 0.15100837D+07 0.15100837D+07 0.15100837D+07 0.10361523D+01  1  2  5  2  7  2        2 -.361732305890D-04 0.100000000000D+01
0.193750278492D-04 0.000000000000D+00 0.000000000000D+00 0.103138993325D-04 0.000000000000D+00  7 -2 21 23 -13 13 23 -2 2 0.19002107D+00 0.42788135D+00 0.30445253D+07 0.30445253D+07 0.30445253D+07 0.10171180D+01  1  2 12  4  7  2        2 0.565535212050D-07 0.100000000000D+01
-.696524614917D-04 0.000000000000D+00 -.356360907079D-04 0.103138993325D-04 0.000000000000D+00  7 -2 21 23 -13 13 23 -2 2 0.19002107D+00 0.44791592D+00 0.15100837D+07 0.15100837D+07 0.15100837D+07 0.10361523D+01  1  2  5  4  7  2        2 -.166313629109D-06 0.100000000000D+01
  </mgrwgt>
  </event>
  <event>
  8     66 0.53686478E-06 0.18606444E+03 0.75467711E-02 0.99948927E-01
       -2 -1    0    0    0  501 0.00000000E+00 0.00000000E+00 0.56264445E+02 0.56265355E+02 0.32000000E+00 0.0000E+00 0.9000E+01
        2 -1    0    0  501    0 0.00000000E+00 0.00000000E+00 -.14155798E+04 0.14155798E+04 0.32000000E+00 0.0000E+00 0.9000E+01
       25  2    1    2    0    0 0.92409084E+00 -.12887941E+03 -.12147213E+04 0.12566421E+04 0.29494192E+03 0.0000E+00 0.0000E+00
       23  2    1    2    0    0 -.92409084E+00 0.12887941E+03 -.14459400E+03 0.21520305E+03 0.93777247E+02 0.0000E+00 0.0000E+00
       23  1    3    3    0    0 -.18512030E+02 -.53626822E+02 -.10355264E+04 0.10410805E+04 0.91188000E+02 0.0000E+00 0.9000E+01
      -13  1    4    4    0    0 -.32673610E+02 0.82275793E+02 -.41669341E+02 0.97842813E+02 0.10565837E+00 0.0000E+00 0.9000E+01
       13  1    4    4    0    0 0.31749519E+02 0.46603617E+02 -.10292465E+03 0.11736024E+03 0.10565837E+00 0.0000E+00 0.9000E+01
       23  1    3    3    0    0 0.19436121E+02 -.75252589E+02 -.17919494E+03 0.21556158E+03 0.91188000E+02 0.0000E+00 0.9000E+01
#aMCatNLO 1  0  0  2  1 0.20974465D+03 0.00000000D+00  -5  7  0 0.00000000D+00 0.00000000D+00 0.00000000D+00 0.00000000D+00 0.00000000D+00
  <mgrwgt>
 0.5921887602D-03    6    2    0
 0.282218896060021D+03 0.000000000000000D+00 0.000000000000000D+00 0.282218896060021D+03
 0.282218896060021D+03 0.000000000000000D+00 0.000000000000000D+00 -.282218896060021D+03
 0.220932162453576D+03 -.185120296500637D+02 -.536268262885799D+02 -.193073139827535D+03
 0.154787235078526D+03 -.326736797547287D+02 0.822758479347140D+02 0.126973239862438D+03
 0.581622308078404D+02 0.317495888667803D+02 0.466035695659636D+02 0.142448588285498D+02
 0.130556163780100D+03 0.194361205380120D+02 -.752525912120977D+02 0.518550411365477D+02
 0.000000000000000D+00 0.000000000000000D+00 -.000000000000000D+00 -.000000000000000D+00
 0.369444420646011D+03 0.000000000000000D+00 0.000000000000000D+00 0.369444420646011D+03
 0.461936901227502D+03 0.000000000000000D+00 0.000000000000000D+00 -.461936901227502D+03
 0.224704933241956D+03 -.695213848457052D+02 0.816060080779972D+01 -.193073139827535D+03
 0.196435713154696D+03 -.728760244256247D+02 0.130972786583112D+03 0.126973239862438D+03
 0.678917905128806D+02 0.173209553228155D+02 0.640809154327916D+02 0.142448588285498D+02
 0.113116082805293D+03 -.845555252388757D+01 -.414675196443743D+02 0.518550411365477D+02
 0.229232802158688D+03 0.133532006472402D+03 -.161746783179329D+03 -.924924805814918D+02
0.291368920669D-05 0.000000000000D+00 0.000000000000D+00 0.110099752925D-08 0.000000000000D+00  7 -2 2 23 -13 13 23 21 0 0.86561412D-02 0.21778157D+00 0.34619976D+05 0.34619976D+05 0.34619976D+05 0.11616080D+01  1  2  2  2  7  2        2 0.407445341280D-03 0.100000000000D+01
-.127715405347D-06 0.000000000000D+00 -.111893337457D-07 0.110099752925D-08 0.000000000000D+00  7 -2 2 23 -13 13 23 21 2 0.86561412D-02 0.21778157D+00 0.34619976D+05 0.34619976D+05 0.34619976D+05 0.11616080D+01  1  2  3  2  7  2        2 -.240984227042D-04 0.100000000000D+01
0.187298939318D-06 0.000000000000D+00 0.000000000000D+00 0.110099752925D-08 0.000000000000D+00  7 -2 2 23 -13 13 23 21 2 0.86561412D-02 0.21778157D+00 0.34619976D+05 0.34619976D+05 0.34619976D+05 0.11616080D+01  1  2 15  2  7  2        2 0.353411477609D-04 0.100000000000D+01
-.619168947628D-06 0.000000000000D+00 -.846794592187D-06 0.110099752925D-08 0.000000000000D+00  7 -2 2 23 -13 13 23 21 2 0.86561412D-02 0.39873727D+00 0.34619976D+05 0.34619976D+05 0.34619976D+05 0.11616080D+01  1  2  5  2  7  2        2 -.274569759600D-04 0.100000000000D+01
0.106487509614D-05 0.000000000000D+00 0.712465420724D-06 0.110099752925D-08 0.000000000000D+00  7 -2 2 23 -13 13 23 21 2 0.86561412D-02 0.21778157D+00 0.34619976D+05 0.34619976D+05 0.34619976D+05 0.11616080D+01  1  2  6  2  7  2        2 0.200929638238D-03 0.100000000000D+01
0.522005115073D-08 0.000000000000D+00 -.559725210162D-07 0.110099752925D-08 0.000000000000D+00  7 -2 21 23 -13 13 23 -2 2 0.86561412D-02 0.39873727D+00 0.34619976D+05 0.34619976D+05 0.34619976D+05 0.11616080D+01  1  2  5  4  7  2        2 0.280315706419D-07 0.100000000000D+01
  </mgrwgt>
  </event>
  <event>
  8     66 0.53686478E-06 0.18665015E+03 0.75467711E-02 0.10229582E+00
       -2 -1    0    0    0  501 0.00000000E+00 0.00000000E+00 0.20684566E+02 0.20687041E+02 0.32000000E+00 0.0000E+00 0.9000E+01
        2 -1    0    0  501    0 0.00000000E+00 0.00000000E+00 -.23894695E+04 0.23894695E+04 0.32000000E+00 0.0000E+00 0.9000E+01
       25  2    1    2    0    0 -.40675002E+02 0.49527944E+02 -.12963104E+04 0.13318163E+04 0.29867461E+03 0.0000E+00 0.0000E+00
       23  2    1    2    0    0 0.40675002E+02 -.49527944E+02 -.10724745E+04 0.10783402E+04 0.92242220E+02 0.0000E+00 0.0000E+00
       23  1    3    3    0    0 -.50525619E+02 0.12961474E+03 -.51835317E+03 0.54438781E+03 0.91188000E+02 0.0000E+00 0.9000E+01
      -13  1    4    4    0    0 0.41330502E+02 -.61128154E+01 -.88159750E+03 0.88258696E+03 0.10565837E+00 0.0000E+00 0.9000E+01
       13  1    4    4    0    0 -.65549981E+00 -.43415129E+02 -.19087699E+03 0.19575326E+03 0.10565837E+00 0.0000E+00 0.9000E+01
       23  1    3    3    0    0 0.98506172E+01 -.80086800E+02 -.77795723E+03 0.78742850E+03 0.91188000E+02 0.0000E+00 0.9000E+01
#aMCatNLO 1  0  0  2  1 0.14416665D+03 0.00000000D+00  -5  7  0 0.00000000D+00 0.00000000D+00 0.00000000D+00 0.00000000D+00 0.00000000D+00
  <mgrwgt>
 0.3049132013D-03    7    2    0
 0.222324416587616D+03 0.000000000000000D+00 0.000000000000000D+00 0.222324416587616D+03
 0.222324416587616D+03 0.000000000000000D+00 0.000000000000000D+00 -.222324416587616D+03
 0.189346399610743D+03 -.505256226648440D+02 0.129614741287937D+03 0.904653966815048D+02
 0.873900962140234D+02 0.413305621317933D+02 -.611277803510417D+01 -.767557652222932D+02
 0.441909286027037D+02 -.655549720513577D+00 -.434151788281736D+02 0.821770482865480D+01
 0.123721408747762D+03 0.985061025356431D+01 -.800867844246597D+02 -.219273362878665D+02
 0.000000000000000D+00 0.000000000000000D+00 0.000000000000000D+00 -.000000000000000D+00
 0.303774169868845D+03 0.000000000000000D+00 0.000000000000000D+00 0.303774169868845D+03
 0.307887356204568D+03 0.000000000000000D+00 0.000000000000000D+00 -.307887356204568D+03
 0.178982271153778D+03 -.896968195293184D+02 0.865441772330610D+02 0.904653966815048D+02
 0.843187520056943D+02 0.230695859144768D+02 -.261915759486246D+02 -.767557652222932D+02
 0.570123265711674D+02 -.114183627904626D+02 -.552493954681128D+02 0.821770482865480D+01
 0.147122858568725D+03 -.189532677954815D+02 -.111757996280466D+03 -.219273362878665D+02
 0.144225317774048D+03 0.969988642007857D+02 0.106654790464143D+03 -.411318633572222D+01
0.126439699680D-05 0.000000000000D+00 0.000000000000D+00 0.129871852373D-07 0.000000000000D+00  7 -2 2 23 -13 13 23 21 0 0.31824329D-02 0.36761088D+00 0.34838279D+05 0.34838279D+05 0.34838279D+05 0.11613586D+01  1  2  2  2  7  2        2 0.236486417987D-03 0.100000000000D+01
-.676316338453D-07 0.000000000000D+00 -.485561739107D-08 0.129871852373D-07 0.000000000000D+00  7 -2 2 23 -13 13 23 21 2 0.31824329D-02 0.36761088D+00 0.34838279D+05 0.34838279D+05 0.34838279D+05 0.11613586D+01  1  2  3  2  7  2        2 -.170610330652D-04 0.100000000000D+01
0.828511479172D-07 0.000000000000D+00 0.000000000000D+00 0.129871852373D-07 0.000000000000D+00  7 -2 2 23 -13 13 23 21 2 0.31824329D-02 0.36761088D+00 0.34838279D+05 0.34838279D+05 0.34838279D+05 0.11613586D+01  1  2 15  2  7  2        2 0.209003700448D-04 0.100000000000D+01
-.338152025499D-06 0.000000000000D+00 0.000000000000D+00 0.129871852373D-07 0.000000000000D+00  7 -2 2 23 -13 13 23 21 2 0.31824329D-02 0.36761088D+00 0.34838279D+05 0.34838279D+05 0.34838279D+05 0.11613586D+01  1  2  4  2  7  2        2 -.853036154840D-04 0.100000000000D+01
-.567819543667D-06 0.000000000000D+00 -.357375820978D-06 0.129871852373D-07 0.000000000000D+00  7 -2 2 23 -13 13 23 21 2 0.31824329D-02 0.56260015D+00 0.34838279D+05 0.34838279D+05 0.34838279D+05 0.11613586D+01  1  2  5  2  7  2        2 -.233566370649D-04 0.100000000000D+01
0.686848769672D-06 0.000000000000D+00 0.327291641898D-06 0.129871852373D-07 0.000000000000D+00  7 -2 2 23 -13 13 23 21 2 0.31824329D-02 0.36761088D+00 0.34838279D+05 0.34838279D+05 0.34838279D+05 0.11613586D+01  1  2  6  2  7  2        2 0.173267284906D-03 0.100000000000D+01
-.150495675939D-07 0.000000000000D+00 -.178074964807D-07 0.129871852373D-07 0.000000000000D+00  7 -2 21 23 -13 13 23 -2 2 0.31824329D-02 0.56260015D+00 0.34838279D+05 0.34838279D+05 0.34838279D+05 0.11613586D+01  1  2  5  4  7  2        2 -.195860639038D-07 0.100000000000D+01
  </mgrwgt>
  </event>
  <event>
  8     66 0.53686478E-06 0.83470673E+02 0.75467711E-02 0.10183282E+00
       -2 -1    0    0    0  501 0.00000000E+00 0.00000000E+00 0.10482975E+03 0.10483024E+03 0.32000000E+00 0.0000E+00 0.9000E+01
        2 -1    0    0  501    0 0.00000000E+00 0.00000000E+00 -.11328093E+04 0.11328093E+04 0.32000000E+00 0.0000E+00 0.9000E+01
       25  2    1    2    0    0 -.64331279E+02 -.19990818E+03 -.29645472E+03 0.47110375E+03 0.29991925E+03 0.0000E+00 0.0000E+00
       23  2    1    2    0    0 0.64331279E+02 0.19990818E+03 -.73152481E+03 0.76653580E+03 0.91360830E+02 0.0000E+00 0.0000E+00
       23  1    3    3    0    0 -.12985307E+03 -.81052769E+02 -.69204301E+02 0.19114355E+03 0.91188000E+02 0.0000E+00 0.9000E+01
      -11  1    4    4    0    0 -.31608188E+01 0.26791618E+02 -.23217076E+03 0.23373285E+03 0.51099893E-03 0.0000E+00 0.9000E+01
       11  1    4    4    0    0 0.67492098E+02 0.17311656E+03 -.49935404E+03 0.53280295E+03 0.51099893E-03 0.0000E+00 0.9000E+01
       23  1    3    3    0    0 0.65521786E+02 -.11885541E+03 -.22725042E+03 0.27996020E+03 0.91188000E+02 0.0000E+00 0.9000E+01
#aMCatNLO 1  0  0  2  1 0.14416665D+03 0.00000000D+00  -5  7  0 0.00000000D+00 0.00000000D+00 0.00000000D+00 0.00000000D+00 0.00000000D+00
  <mgrwgt>
 0.2527730371D-05    1    2    0
 0.344604760767993D+03 0.000000000000000D+00 0.000000000000000D+00 0.344604760767993D+03
 0.344604760767993D+03 0.000000000000000D+00 0.000000000000000D+00 -.344604760767993D+03
 0.240023110267269D+03 -.129853065168792D+03 -.810527686134119D+02 0.160824352275219D+03
 0.734322835144719D+02 -.316081885138446D+01 0.267916177883823D+02 -.682972818098916D+02
 0.211970775485096D+03 0.674920978241723D+02 0.173116557327744D+03 -.102015116380051D+03
 0.163783352269149D+03 0.655217861960037D+02 -.118855406502714D+03 0.948804591472353D+01
 0.000000000000000D+00 0.000000000000000D+00 0.000000000000000D+00 0.000000000000000D+00
 0.410399476189597D+03 0.000000000000000D+00 0.000000000000000D+00 0.410399476189597D+03
 0.373565060890689D+03 0.000000000000000D+00 0.000000000000000D+00 -.373565060890689D+03
 0.258387357981820D+03 -.146498097400450D+03 -.105463788070263D+03 0.160824352275219D+03
 0.715284269374516D+02 -.800196054383899D+01 0.196917694730930D+02 -.682972818098916D+02
 0.191924434872284D+03 0.540035191869126D+02 0.153334681812169D+03 -.102015116380051D+03
 0.172230324443731D+03 0.543001950869482D+02 -.135312597758791D+03 0.948804591472353D+01
 0.898939928450002D+02 0.461963436704286D+02 0.677499345437924D+02 0.368344152989080D+02
0.260652300763D-07 0.000000000000D+00 0.000000000000D+00 0.732339594938D-06 0.000000000000D+00  7 -2 2 23 -11 11 23 21 2 0.16127695D-01 0.17427839D+00 0.76859053D+05 0.76859053D+05 0.76859053D+05 0.11312245D+01  1  2 14  2  7  2        2 0.252773037056D-05 0.100000000000D+01
  </mgrwgt>
  </event>
  <event>
  8     66 0.53686478E-06 0.12453245E+03 0.75467711E-02 0.97795761E-01
       -2 -1    0    0    0  501 0.00000000E+00 0.00000000E+00 0.49633467E+02 0.49634499E+02 0.32000000E+00 0.0000E+00 0.9000E+01
        2 -1    0    0  501    0 0.00000000E+00 0.00000000E+00 -.35774519E+04 0.35774519E+04 0.32000000E+00 0.0000E+00 0.9000E+01
       25  2    1    2    0    0 -.10321149E+03 -.16522548E+03 -.65049024E+03 0.74191276E+03 0.29890620E+03 0.0000E+00 0.0000E+00
       23  2    1    2    0    0 0.10321149E+03 0.16522548E+03 -.28773282E+04 0.28851736E+04 0.85190491E+02 0.0000E+00 0.0000E+00
       23  1    3    3    0    0 -.12040611E+02 0.42942187E+02 -.11692333E+03 0.15483967E+03 0.91188000E+02 0.0000E+00 0.9000E+01
      -13  1    4    4    0    0 0.88754264E+02 0.15703617E+03 -.28115077E+04 0.28172882E+04 0.10565837E+00 0.0000E+00 0.9000E+01
       13  1    4    4    0    0 0.14457226E+02 0.81893176E+01 -.65820528E+02 0.67885414E+02 0.10565837E+00 0.0000E+00 0.9000E+01
       23  1    3    3    0    0 -.91170878E+02 -.20816767E+03 -.53356691E+03 0.58707309E+03 0.91188000E+02 0.0000E+00 0.9000E+01
#aMCatNLO 1  0  0  2  1 0.17839164D+03 0.00000000D+00  -5  7  0 0.00000000D+00 0.00000000D+00 0.00000000D+00 0.00000000D+00 0.00000000D+00
  <mgrwgt>
 0.3294935299D-03    9    2    0
 0.421382531563650D+03 0.000000000000000D+00 0.000000000000000D+00 0.421382531563650D+03
 0.421382531563650D+03 0.000000000000000D+00 0.000000000000000D+00 -.421382531563650D+03
 0.176956311012267D+03 -.120406114768531D+02 0.429421865314198D+02 0.144945772460719D+03
 0.356042024004053D+03 0.887543782835167D+02 0.157036395497328D+03 -.306966046463800D+03
 0.166392146566578D+02 0.144571111216555D+02 0.818908858344842D+01 0.891196150617354D+00
 0.293127513454322D+03 -.911708779283191D+02 -.208167670612197D+03 0.161129077852463D+03
 0.000000000000000D+00 -.000000000000000D+00 -.000000000000000D+00 -.000000000000000D+00
 0.475717729626126D+03 0.000000000000000D+00 0.000000000000000D+00 0.475717729626126D+03
 0.607523209037120D+03 0.000000000000000D+00 0.000000000000000D+00 -.607523209037120D+03
 0.179844313519000D+03 0.248088122120620D+02 0.490303135163579D+02 0.144945772460719D+03
 0.387885194873444D+03 0.165585211520275D+03 0.169730104713864D+03 -.306966046463800D+03
 0.203097244077499D+02 0.182730997069584D+02 0.881955225844444D+01 0.891196150617354D+00
 0.273399405553105D+03 -.326614779038499D+02 -.198500961570322D+03 0.161129077852463D+03
 0.221802300309948D+03 -.176005645535446D+03 -.290790089183441D+02 -.131805479410994D+03
0.304406296218D-04 0.000000000000D+00 0.000000000000D+00 0.123044747668D-07 0.000000000000D+00  7 -2 2 23 -13 13 23 21 0 0.76359985D-02 0.55037729D+00 0.73814693D+05 0.73814693D+05 0.73814693D+05 0.11327058D+01  1  2  2  2  7  2        2 0.279466572730D-03 0.100000000000D+01
-.129508414069D-05 0.000000000000D+00 -.116900032950D-06 0.123044747668D-07 0.000000000000D+00  7 -2 2 23 -13 13 23 21 2 0.76359985D-02 0.55037729D+00 0.73814693D+05 0.73814693D+05 0.73814693D+05 0.11327058D+01  1  2  3  2  7  2        2 -.152548679953D-04 0.100000000000D+01
0.184809461060D-05 0.000000000000D+00 0.000000000000D+00 0.123044747668D-07 0.000000000000D+00  7 -2 2 23 -13 13 23 21 2 0.76359985D-02 0.55037729D+00 0.73814693D+05 0.73814693D+05 0.73814693D+05 0.11327058D+01  1  2 15  2  7  2        2 0.217688090232D-04 0.100000000000D+01
0.401181789620D-05 0.000000000000D+00 0.000000000000D+00 0.123044747668D-07 0.000000000000D+00  7 -2 2 23 -13 13 23 21 2 0.76359985D-02 0.81657714D+00 0.14559592D+06 0.14559592D+06 0.14559592D+06 0.11085747D+01  1  2 12  2  7  2        2 0.734794070170D-06 0.100000000000D+01
-.140699627410D-04 0.000000000000D+00 0.000000000000D+00 0.123044747668D-07 0.000000000000D+00  7 -2 2 23 -13 13 23 21 2 0.76359985D-02 0.55037729D+00 0.73814693D+05 0.73814693D+05 0.73814693D+05 0.11327058D+01  1  2  4  2  7  2        2 -.165730872281D-03 0.100000000000D+01
-.154674600275D-04 0.000000000000D+00 -.662009862120D-05 0.123044747668D-07 0.000000000000D+00  7 -2 2 23 -13 13 23 21 2 0.76359985D-02 0.80283168D+00 0.73814693D+05 0.73814693D+05 0.73814693D+05 0.11327058D+01  1  2  5  2  7  2        2 -.436669599140D-05 0.100000000000D+01
0.180724492337D-04 0.000000000000D+00 0.663339882884D-05 0.123044747668D-07 0.000000000000D+00  7 -2 2 23 -13 13 23 21 2 0.76359985D-02 0.55037729D+00 0.73814693D+05 0.73814693D+05 0.73814693D+05 0.11327058D+01  1  2  6  2  7  2        2 0.212876382894D-03 0.100000000000D+01
0.189039626069D-06 0.000000000000D+00 0.000000000000D+00 0.123044747668D-07 0.000000000000D+00  7 -2 21 23 -13 13 23 -2 2 0.76359985D-02 0.81657714D+00 0.14559592D+06 0.14559592D+06 0.14559592D+06 0.11085747D+01  1  2 12  4  7  2        2 0.167440343309D-09 0.100000000000D+01
-.497186639505D-06 0.000000000000D+00 -.302096607598D-06 0.123044747668D-07 0.000000000000D+00  7 -2 21 23 -13 13 23 -2 2 0.76359985D-02 0.80283168D+00 0.73814693D+05 0.73814693D+05 0.73814693D+05 0.11327058D+01  1  2  5  4  7  2        2 -.760039566188D-09 0.100000000000D+01
  </mgrwgt>
  </event>
  <event>
  8     66 0.53686478E-06 0.17182608E+03 0.75467711E-02 0.10180862E+00
       -2 -1    0    0    0  501 0.00000000E+00 0.00000000E+00 0.24154746E+03 0.24154768E+03 0.32000000E+00 0.0000E+00 0.9000E+01
        2 -1    0    0  501    0 0.00000000E+00 0.00000000E+00 -.33477967E+03 0.33477982E+03 0.32000000E+00 0.0000E+00 0.9000E+01
       25  2    1    2    0    0 -.18567607E+03 -.37710081E+02 -.95495333E+02 0.36846935E+03 0.30125181E+03 0.0000E+00 0.0000E+00
       23  2    1    2    0    0 0.18567607E+03 0.37710081E+02 0.22631300E+01 0.20785814E+03 0.85453111E+02 0.0000E+00 0.0000E+00
       23  1    3    3    0    0 -.22442910E+03 -.67586045E+02 -.55689694E+02 0.25759054E+03 0.91188000E+02 0.0000E+00 0.9000E+01
      -11  1    4    4    0    0 0.93876665E+02 -.35233615E+01 -.35421804E+02 0.10039894E+03 0.51099893E-03 0.0000E+00 0.9000E+01
       11  1    4    4    0    0 0.91799400E+02 0.41233442E+02 0.37684934E+02 0.10745921E+03 0.51099893E-03 0.0000E+00 0.9000E+01
       23  1    3    3    0    0 0.38753031E+02 0.29875964E+02 -.39805639E+02 0.11087881E+03 0.91188000E+02 0.0000E+00 0.9000E+01
#aMCatNLO 1  0  0  1  2 0.60241129D+01 0.00000000D+00  -5  7  0 0.00000000D+00 0.00000000D+00 0.00000000D+00 0.00000000D+00 0.00000000D+00
  <mgrwgt>
 0.1851137083D-03   11    2    0
 0.284368219405152D+03 0.000000000000000D+00 0.000000000000000D+00 0.284368219405152D+03
 0.284368219405152D+03 0.000000000000000D+00 0.000000000000000D+00 -.284368219405152D+03
 0.251899522587058D+03 -.224429096452322D+03 -.675860448797404D+02 -.142065245114992D+02
 0.959323354706168D+02 0.938766650285759D+02 -.352336145619232D+01 -.194363236237859D+02
 0.115071129253111D+03 0.917994004483401D+02 0.412334421871105D+02 0.558035671826955D+02
 0.105833451499518D+03 0.387530309754063D+02 0.298759641488222D+02 -.221607190474104D+02
 0.000000000000000D+00 0.000000000000000D+00 0.000000000000000D+00 0.000000000000000D+00
 0.289249997914221D+03 0.000000000000000D+00 0.000000000000000D+00 0.289249997914221D+03
 0.286248701749527D+03 0.000000000000000D+00 0.000000000000000D+00 -.286248701749527D+03
 0.253543763833970D+03 -.225529867331081D+03 -.700260125812203D+02 -.142065245114992D+02
 0.955628281472371D+02 0.934596206139074D+02 -.444778171613020D+01 -.194363236237859D+02
 0.114279615162986D+03 0.912999129148079D+02 0.401262785869207D+02 0.558035671826955D+02
 0.105382134773105D+03 0.382930387809208D+02 0.288563458802652D+02 -.221607190474104D+02
 0.673035774644913D+01 0.247729502144456D+01 0.549116983016458D+01 0.300129616469353D+01
0.170658071086D-05 0.000000000000D+00 0.000000000000D+00 0.198809961856D-08 0.000000000000D+00  7 -2 2 23 -11 11 23 21 0 0.37161176D-01 0.51504592D-01 0.75504950D+05 0.75504950D+05 0.75504950D+05 0.11318753D+01  1  2  2  1  7  1       -2 0.134894689141D-03 0.100000000000D+01
-.946744731708D-07 0.000000000000D+00 -.655371928272D-08 0.198809961856D-08 0.000000000000D+00  7 -2 2 23 -11 11 23 21 2 0.37161176D-01 0.51504592D-01 0.75504950D+05 0.75504950D+05 0.75504950D+05 0.11318753D+01  1  2  3  1  7  1       -2 -.958733843641D-05 0.100000000000D+01
0.105461779557D-06 0.000000000000D+00 0.000000000000D+00 0.198809961856D-08 0.000000000000D+00  7 -2 2 23 -11 11 23 21 2 0.37161176D-01 0.51504592D-01 0.75504950D+05 0.75504950D+05 0.75504950D+05 0.11318753D+01  1  2 15  1  7  1       -2 0.106797295919D-04 0.100000000000D+01
0.130312689752D-05 0.000000000000D+00 0.000000000000D+00 0.198809961856D-08 0.000000000000D+00  7 -2 2 23 -11 11 23 21 2 0.37920522D-01 0.51504592D-01 0.77142078D+05 0.77142078D+05 0.77142078D+05 0.11310901D+01  1  2 12  1  7  1       -2 0.126995564662D-03 0.100000000000D+01
-.523864693024D-05 0.000000000000D+00 0.000000000000D+00 0.198809961856D-08 0.000000000000D+00  7 -2 2 23 -11 11 23 21 2 0.37161176D-01 0.51504592D-01 0.75504950D+05 0.75504950D+05 0.75504950D+05 0.11318753D+01  1  2  4  1  7  1       -2 -.530498659110D-03 0.100000000000D+01
-.807408492401D-04 0.000000000000D+00 -.939866368736D-05 0.198809961856D-08 0.000000000000D+00  7 -2 2 23 -11 11 23 21 2 0.38018435D-01 0.51504592D-01 0.75504950D+05 0.75504950D+05 0.75504950D+05 0.11318753D+01  1  2  5  1  7  1       -2 -.784262630916D-02 0.100000000000D+01
0.809365945197D-04 0.000000000000D+00 0.939621990005D-05 0.198809961856D-08 0.000000000000D+00  7 -2 2 23 -11 11 23 21 2 0.37161176D-01 0.51504592D-01 0.75504950D+05 0.75504950D+05 0.75504950D+05 0.11318753D+01  1  2  6  1  7  1       -2 0.819615359413D-02 0.100000000000D+01
0.398162137350D-05 0.000000000000D+00 0.000000000000D+00 0.198809961856D-08 0.373890094558D-09  7 -2 2 23 -11 11 23 21 2 0.37799126D-01 0.51845184D-01 0.77142078D+05 0.77142078D+05 0.77142078D+05 0.11310901D+01  1  2 11  1  7  1       -2 0.387526140772D-03 0.100000000000D+01
0.565560049861D-07 0.000000000000D+00 0.000000000000D+00 0.198809961856D-08 0.000000000000D+00  7 21 2 23 -11 11 23 2 2 0.37920522D-01 0.51504592D-01 0.77142078D+05 0.77142078D+05 0.77142078D+05 0.11310901D+01  1  2 12  3  7  1       -2 0.629589891479D-04 0.100000000000D+01
-.331971944250D-06 0.000000000000D+00 -.388506631963D-07 0.198809961856D-08 0.000000000000D+00  7 21 2 23 -11 11 23 2 2 0.38018435D-01 0.51504592D-01 0.75504950D+05 0.75504950D+05 0.75504950D+05 0.11318753D+01  1  2  5  3  7  1       -2 -.368380822354D-03 0.100000000000D+01
0.152797950740D-07 0.000000000000D+00 0.000000000000D+00 0.198809961856D-08 0.115624465084D-11  7 21 2 23 -11 11 23 2 2 0.37799126D-01 0.51845184D-01 0.77142078D+05 0.77142078D+05 0.77142078D+05 0.11310901D+01  1  2 11  3  7  1       -2 0.169981299293D-04 0.100000000000D+01
  </mgrwgt>
  </event>
  <event>
  8     66 0.53686478E-06 0.13125220E+03 0.75467711E-02 0.10233642E+00
       -2 -1    0    0    0  501 0.00000000E+00 0.00000000E+00 0.27418058E+02 0.27419926E+02 0.32000000E+00 0.0000E+00 0.9000E+01
        2 -1    0    0  501    0 0.00000000E+00 0.00000000E+00 -.22110339E+04 0.22110339E+04 0.32000000E+00 0.0000E+00 0.9000E+01
       25  2    1    2    0    0 -.89148868E+02 -.57538414E+02 -.18395845E+04 0.18669882E+04 0.30052562E+03 0.0000E+00 0.0000E+00
       23  2    1    2    0    0 0.89148868E+02 0.57538414E+02 -.34403129E+03 0.37146559E+03 0.91492985E+02 0.0000E+00 0.0000E+00
       23  1    3    3    0    0 0.56758377E+02 -.87578176E+02 -.64656808E+03 0.66125410E+03 0.91188000E+02 0.0000E+00 0.9000E+01
      -11  1    4    4    0    0 0.94036282E+02 0.71589533E+02 -.25320712E+03 0.27943108E+03 0.51099893E-03 0.0000E+00 0.9000E+01
       11  1    4    4    0    0 -.48874150E+01 -.14051119E+02 -.90824176E+02 0.92034514E+02 0.51099893E-03 0.0000E+00 0.9000E+01
       23  1    3    3    0    0 -.14590724E+03 0.30039762E+02 -.11930164E+04 0.12057341E+04 0.91188000E+02 0.0000E+00 0.9000E+01
#aMCatNLO 1  0  0  2  1 0.82229158D+02 0.00000000D+00  -5  7  0 0.00000000D+00 0.00000000D+00 0.00000000D+00 0.00000000D+00 0.00000000D+00
  <mgrwgt>
 0.4018460667D-03    7    2    0
 0.246220168843635D+03 0.000000000000000D+00 0.000000000000000D+00 0.246220168843635D+03
 0.246220168843635D+03 0.000000000000000D+00 0.000000000000000D+00 -.246220168843635D+03
 0.138758902357929D+03 0.567583774325256D+02 -.875781755929179D+02 -.687978129160743D+01
 0.147401614626083D+03 0.940362825123528D+02 0.715895332660081D+02 0.880871857445138D+02
 0.156159060984887D+02 -.488741497050072D+01 -.140511194552759D+02 -.474718234708850D+01
 0.190663914604769D+03 -.145907244974378D+03 0.300397617821857D+02 -.764602221058179D+02
 0.000000000000000D+00 0.000000000000000D+00 -.000000000000000D+00 -.000000000000000D+00
 0.255240611724742D+03 0.000000000000000D+00 0.000000000000000D+00 0.255240611724742D+03
 0.550878670298518D+03 0.000000000000000D+00 0.000000000000000D+00 -.550878670298518D+03
 0.130744559712106D+03 0.344230187196958D+02 -.868712434693756D+02 -.687978129160743D+01
 0.134126080550473D+03 0.707044039121050D+02 0.723280060479846D+02 0.880871857445138D+02
 0.165736025147239D+02 -.755515146688380D+01 -.139666834428219D+02 -.474718234708850D+01
 0.217814328071988D+03 -.179760272339944D+03 0.311112374111009D+02 -.764602221058179D+02
 0.306860711173970D+03 0.821880011750268D+02 -.260131654688803D+01 -.295638058573776D+03
0.257270911418D-05 0.000000000000D+00 0.000000000000D+00 0.175122292852D-06 0.000000000000D+00  7 -2 2 23 -11 11 23 21 0 0.42183082D-02 0.34015920D+00 0.49798641D+05 0.49798641D+05 0.49798641D+05 0.11474496D+01  1  2  2  2  7  2        2 0.396358713632D-03 0.100000000000D+01
-.141247199948D-06 0.000000000000D+00 -.987988040832D-08 0.175122292852D-06 0.000000000000D+00  7 -2 2 23 -11 11 23 21 2 0.42183082D-02 0.34015920D+00 0.49798641D+05 0.49798641D+05 0.49798641D+05 0.11474496D+01  1  2  3  2  7  2        2 -.286513300682D-04 0.100000000000D+01
0.172677942852D-06 0.000000000000D+00 0.000000000000D+00 0.175122292852D-06 0.000000000000D+00  7 -2 2 23 -11 11 23 21 2 0.42183082D-02 0.34015920D+00 0.49798641D+05 0.49798641D+05 0.49798641D+05 0.11474496D+01  1  2 15  2  7  2        2 0.350269084130D-04 0.100000000000D+01
0.642724338396D-05 0.000000000000D+00 0.000000000000D+00 0.175122292852D-06 0.000000000000D+00  7 -2 2 23 -11 11 23 21 2 0.42183082D-02 0.75923312D+00 0.71227788D+05 0.71227788D+05 0.71227788D+05 0.11340182D+01  1  2 12  2  7  2        2 0.106577877510D-04 0.100000000000D+01
-.710602548093D-05 0.000000000000D+00 -.584228567004D-06 0.175122292852D-06 0.000000000000D+00  7 -2 2 23 -11 11 23 21 2 0.42183082D-02 0.76319361D+00 0.49798641D+05 0.49798641D+05 0.49798641D+05 0.11474496D+01  1  2  5  2  7  2        2 -.115459468697D-04 0.100000000000D+01
0.559967192592D-06 0.000000000000D+00 0.000000000000D+00 0.175122292852D-06 0.000000000000D+00  7 -2 21 23 -11 11 23 -2 2 0.42183082D-02 0.75923312D+00 0.71227788D+05 0.71227788D+05 0.71227788D+05 0.11340182D+01  1  2 12  4  7  2        2 0.690910971850D-08 0.100000000000D+01
-.586478559705D-06 0.000000000000D+00 -.512534056359D-07 0.175122292852D-06 0.000000000000D+00  7 -2 21 23 -11 11 23 -2 2 0.42183082D-02 0.76319361D+00 0.49798641D+05 0.49798641D+05 0.49798641D+05 0.11474496D+01  1  2  5  4  7  2        2 -.697526398142D-08 0.100000000000D+01
  </mgrwgt>
  </event>
  <event>
  9     66 -.53686478E-06 0.19769028E+03 0.75467711E-02 0.10531367E+00
       21 -1    0    0  502  501 0.00000000E+00 0.00000000E+00 0.13380496E+02 0.13401498E+02 0.75000000E+00 0.0000E+00 0.9000E+01
        2 -1    0    0  501    0 0.00000000E+00 0.00000000E+00 -.43726404E+04 0.43726404E+04 0.32000000E+00 0.0000E+00 0.9000E+01
       25  2    1    2    0    0 -.61407694E+02 0.78497938E+00 -.22323504E+04 0.22533295E+04 0.30055581E+03 0.0000E+00 0.0000E+00
       23  2    1    2    0    0 0.33583770E+02 0.17088610E+02 -.19631236E+04 0.19656210E+04 0.91606146E+02 0.0000E+00 0.0000E+00
       23  1    3    3    0    0 0.87394580E+02 -.26404085E+02 -.10380045E+04 0.10459940E+04 0.91188000E+02 0.0000E+00 0.9000E+01
      -11  1    4    4    0    0 -.93785813E+01 -.27377104E+02 -.31175194E+03 0.31309222E+03 0.51099893E-03 0.0000E+00 0.9000E+01
       11  1    4    4    0    0 0.42962351E+02 0.44465714E+02 -.16513717E+04 0.16525288E+04 0.51099893E-03 0.0000E+00 0.9000E+01
       23  1    3    3    0    0 -.14880227E+03 0.27189065E+02 -.11943459E+04 0.12073354E+04 0.91188000E+02 0.0000E+00 0.9000E+01
        2  1    1    2  502    0 0.27823924E+02 -.17873589E+02 -.16378587E+03 0.16709144E+03 0.32000000E+00 0.0000E+00 0.9000E+01
#aMCatNLO 2  0  0  1  2 0.33070167D+02 0.00000000D+00  -5  7  0 0.00000000D+00 0.00000000D+00 0.00000000D+00 0.00000000D+00 0.00000000D+00
  <mgrwgt>
 -.1159853705D-04    2    2    0
 0.221611739630283D+03 0.000000000000000D+00 0.000000000000000D+00 0.221611739630283D+03
 0.221611739630283D+03 0.000000000000000D+00 0.000000000000000D+00 -.221611739630283D+03
 0.137582547383363D+03 0.958027881496724D+02 -.318053672845448D+02 0.205900557342500D+02
 0.297857868321561D+02 -.753002940276994D+01 -.285645800942362D+02 -.381530057060095D+01
 0.993871351311265D+02 0.491559588103092D+02 0.404870513746564D+02 -.763039514966160D+02
 0.176468009913921D+03 -.137428717557212D+03 0.198828960041246D+02 0.595291963329670D+02
 0.000000000000000D+00 0.000000000000000D+00 -.000000000000000D+00 0.000000000000000D+00
 0.253517567948340D+03 0.000000000000000D+00 0.000000000000000D+00 0.253517567948340D+03
 0.230965701861881D+03 0.000000000000000D+00 0.000000000000000D+00 -.230965701861881D+03
 0.130668244232223D+03 0.873945798908376D+02 -.264040852387749D+02 0.205900557342500D+02
 0.291893834063224D+02 -.937858131375917D+01 -.273771035308425D+02 -.381530057060095D+01
 0.982102659399425D+02 0.429623513670515D+02 0.444657136118415D+02 -.763039514966160D+02
 0.186387603097960D+03 -.148802274159659D+03 0.271890645934665D+02 0.595291963329670D+02
 0.400277731337720D+02 0.278239242155287D+02 -.178735894356907D+02 0.225518660864595D+02
-.114023976862D-06 0.000000000000D+00 0.000000000000D+00 0.937995112996D-07 0.000000000000D+00  7 21 2 23 -11 11 23 2 2 0.20942803D-02 0.64546923D+00 0.46117710D+05 0.46117710D+05 0.46117710D+05 0.11503958D+01  1  2 13  3  7  1       -2 -.578191336060D-04 0.100000000000D+01
0.127746004424D-06 0.000000000000D+00 0.000000000000D+00 0.937995112996D-07 0.132508082345D-10  7 21 2 23 -11 11 23 2 2 0.20601487D-02 0.67271370D+00 0.46117710D+05 0.46117710D+05 0.46117710D+05 0.11503958D+01  1  2  1  3  7  1       -2 0.462205965603D-04 0.100000000000D+01
  </mgrwgt>
  </event>
  <event>
  9     66 0.53686478E-06 0.40518647E+03 0.75467711E-02 0.95089819E-01
       21 -1    0    0  502  501 0.00000000E+00 0.00000000E+00 0.36710861E+03 0.36710938E+03 0.75000000E+00 0.0000E+00 0.9000E+01
        2 -1    0    0  501    0 0.00000000E+00 0.00000000E+00 -.79464199E+03 0.79464206E+03 0.32000000E+00 0.0000E+00 0.9000E+01
       25  2    1    2    0    0 -.32606584E+03 -.25719019E+03 -.43501643E+03 0.67171740E+03 0.29916424E+03 0.0000E+00 0.0000E+00
       23  2    1    2    0    0 0.18681496E+03 0.23220160E+03 0.92180603E+02 0.32514312E+03 0.91669923E+02 0.0000E+00 0.0000E+00
       23  1    3    3    0    0 -.23867723E+03 -.37460533E+02 -.21148307E+03 0.33378204E+03 0.91188000E+02 0.0000E+00 0.9000E+01
      -13  1    4    4    0    0 0.16641773E+03 0.15617038E+03 0.42744987E+02 0.23218784E+03 0.10565837E+00 0.0000E+00 0.9000E+01
       13  1    4    4    0    0 0.20397232E+02 0.76031217E+02 0.49435616E+02 0.92955281E+02 0.10565837E+00 0.0000E+00 0.9000E+01
       23  1    3    3    0    0 -.87388615E+02 -.21972966E+03 -.22353336E+03 0.33793536E+03 0.91188000E+02 0.0000E+00 0.9000E+01
        2  1    1    2  502    0 0.13925088E+03 0.24988595E+02 -.84697552E+02 0.16489092E+03 0.32000000E+00 0.0000E+00 0.9000E+01
#aMCatNLO 2  0  0  1  2 0.14147522D+03 0.00000000D+00  -5  7  0 0.00000000D+00 0.00000000D+00 0.00000000D+00 0.00000000D+00 0.00000000D+00
  <mgrwgt>
 0.5328201370D-04    1    2    0
 0.462649775252202D+03 0.000000000000000D+00 0.000000000000000D+00 0.462649775252202D+03
 0.462649775252202D+03 0.000000000000000D+00 0.000000000000000D+00 -.462649775252202D+03
 0.244307981255095D+03 -.199601887930346D+03 -.304484562940476D+02 -.102971433926554D+03
 0.295244831770658D+03 0.208175702812445D+03 0.163663925923883D+03 0.130562271721239D+03
 0.123583530126294D+03 0.384029617332910D+02 0.792622765116669D+02 0.866925196933159D+02
 0.262163207352358D+03 -.469767766153897D+02 -.212477746141503D+03 -.114283357488001D+03
 0.000000000000000D+00 0.000000000000000D+00 0.000000000000000D+00 -.000000000000000D+00
 0.525413270183003D+03 0.000000000000000D+00 0.000000000000000D+00 0.525413270183003D+03
 0.555220486498120D+03 0.000000000000000D+00 0.000000000000000D+00 -.555220486498120D+03
 0.278008053104857D+03 -.238677226646860D+03 -.374605328636103D+02 -.102971433926554D+03
 0.262927087020347D+03 0.166417925233336D+03 0.156170485217361D+03 0.130562271721239D+03
 0.117099794569882D+03 0.203970384660791D+02 0.760311103387681D+02 0.866925196933159D+02
 0.278017678685807D+03 -.873886148542699D+02 -.219729657791038D+03 -.114283357488001D+03
 0.144581143300231D+03 0.139250877801714D+03 0.249885950985189D+02 -.298072163151165D+02
0.335620786277D-06 0.000000000000D+00 0.000000000000D+00 0.301901331853D-06 0.241111612785D-11  7 21 2 23 -13 13 23 2 2 0.56478294D-01 0.12225264D+00 0.23044414D+06 0.23044414D+06 0.23044414D+06 0.10931303D+01  1  2  1  3  7  1       -2 0.532820136961D-04 0.100000000000D+01
  </mgrwgt>
  </event>
  <event>
  8     66 0.53686478E-06 0.19188009E+03 0.75467711E-02 0.91472552E-01
       -2 -1    0    0    0  501 0.00000000E+00 0.00000000E+00 0.32477947E+02 0.32479523E+02 0.32000000E+00 0.0000E+00 0.9000E+01
        2 -1    0    0  501    0 0.00000000E+00 0.00000000E+00 -.18670749E+04 0.18670749E+04 0.32000000E+00 0.0000E+00 0.9000E+01
       25  2    1    2    0    0 0.95152711E+02 0.62528210E+02 -.15156252E+04 0.15491379E+04 0.29957403E+03 0.0000E+00 0.0000E+00
       23  2    1    2    0    0 -.95152711E+02 -.62528210E+02 -.31897175E+03 0.35041658E+03 0.89916524E+02 0.0000E+00 0.0000E+00
       23  1    3    3    0    0 0.20219436E+02 -.48606999E+02 -.22555079E+03 0.24891741E+03 0.91188000E+02 0.0000E+00 0.9000E+01
      -11  1    4    4    0    0 -.57599715E+01 0.20053120E+01 0.51962907E+01 0.80124893E+01 0.51099893E-03 0.0000E+00 0.9000E+01
       11  1    4    4    0    0 -.89392739E+02 -.64533522E+02 -.32416804E+03 0.34240409E+03 0.51099893E-03 0.0000E+00 0.9000E+01
       23  1    3    3    0    0 0.74933275E+02 0.11113521E+03 -.12900744E+04 0.13002205E+04 0.91188000E+02 0.0000E+00 0.9000E+01
#aMCatNLO 1  0  0  2  1 0.60566353D+03 0.00000000D+00  -5  7  0 0.00000000D+00 0.00000000D+00 0.00000000D+00 0.00000000D+00 0.00000000D+00
  <mgrwgt>
 0.3094063476D-03    3    2    0
 0.246252479456667D+03 0.000000000000000D+00 0.000000000000000D+00 0.246252479456667D+03
 0.246252479456667D+03 0.000000000000000D+00 0.000000000000000D+00 -.246252479456667D+03
 0.119871644451366D+03 0.202194361733709D+02 -.486069988391762D+02 0.572930524946428D+02
 0.502599181763788D+02 -.575997150697215D+01 0.200531196481506D+01 0.498884839142154D+02
 0.113090231876712D+03 -.893927394068797D+02 -.645335220143866D+02 0.251746543904967D+02
 0.209283164408877D+03 0.749332747404810D+02 0.111135208888748D+03 -.132356190799355D+03
 0.000000000000000D+00 0.000000000000000D+00 -.000000000000000D+00 0.000000000000000D+00
 0.761799824308740D+03 0.000000000000000D+00 0.000000000000000D+00 0.761799824308740D+03
 0.637184617968655D+03 0.000000000000000D+00 0.000000000000000D+00 -.637184617968655D+03
 0.126905909211524D+03 0.566746886761589D+00 0.671345170729329D+02 0.572930524946428D+02
 0.832803924062159D+02 -.163947565275828D+02 0.646372562109165D+02 0.498884839142154D+02
 0.119413001380767D+03 -.107908660865373D+03 0.445131731661977D+02 0.251746543904967D+02
 0.451034701437459D+03 0.223473662765277D+02 0.420831895813952D+03 -.132356190799355D+03
 0.618350437841430D+03 0.101389304229667D+03 -.597116842263999D+03 0.124615206340085D+03
0.167083360092D-05 0.000000000000D+00 0.000000000000D+00 0.722473113125D-07 0.000000000000D+00  7 -2 2 23 -11 11 23 21 0 0.49967306D-02 0.28724242D+00 0.36817968D+05 0.36817968D+05 0.36817968D+05 0.11591729D+01  1  2  2  2  7  2        2 0.306250522527D-03 0.100000000000D+01
-.857992391457D-07 0.000000000000D+00 -.641644096812D-08 0.722473113125D-07 0.000000000000D+00  7 -2 2 23 -11 11 23 21 2 0.49967306D-02 0.28724242D+00 0.36817968D+05 0.36817968D+05 0.36817968D+05 0.11591729D+01  1  2  3  2  7  2        2 -.211311686205D-04 0.100000000000D+01
0.986128888530D-07 0.000000000000D+00 0.000000000000D+00 0.722473113125D-07 0.000000000000D+00  7 -2 2 23 -11 11 23 21 2 0.49967306D-02 0.28724242D+00 0.36817968D+05 0.36817968D+05 0.36817968D+05 0.11591729D+01  1  2 15  2  7  2        2 0.242869937223D-04 0.100000000000D+01
  </mgrwgt>
  </event>
  <event>
  8     66 0.53686478E-06 0.13667816E+03 0.75467711E-02 0.10742383E+00
       -2 -1    0    0    0  501 0.00000000E+00 0.00000000E+00 0.42489538E+02 0.42490743E+02 0.32000000E+00 0.0000E+00 0.9000E+01
        2 -1    0    0  501    0 0.00000000E+00 0.00000000E+00 -.15731248E+04 0.15731248E+04 0.32000000E+00 0.0000E+00 0.9000E+01
       25  2    1    2    0    0 -.54323245E+02 -.54405628E+01 -.54106356E+03 0.62082750E+03 0.29949355E+03 0.0000E+00 0.0000E+00
       23  2    1    2    0    0 0.54323245E+02 0.54405628E+01 -.98957170E+03 0.99478808E+03 0.85851935E+02 0.0000E+00 0.0000E+00
       23  1    3    3    0    0 0.62065014E+01 0.81391509E+02 -.41492926E+03 0.43260217E+03 0.91188000E+02 0.0000E+00 0.9000E+01
      -13  1    4    4    0    0 -.54662455E+01 0.34116859E+02 -.40360612E+03 0.40508240E+03 0.10565837E+00 0.0000E+00 0.9000E+01
       13  1    4    4    0    0 0.59789491E+02 -.28676296E+02 -.58596558E+03 0.58970568E+03 0.10565837E+00 0.0000E+00 0.9000E+01
       23  1    3    3    0    0 -.60529747E+02 -.86832072E+02 -.12613430E+03 0.18822532E+03 0.91188000E+02 0.0000E+00 0.9000E+01
#aMCatNLO 1  0  0  2  1 0.82858025D+01 0.00000000D+00  -5  7  0 0.00000000D+00 0.00000000D+00 0.00000000D+00 0.00000000D+00 0.00000000D+00
  <mgrwgt>
 0.3177588607D-03   11    2    0
 0.258538866303066D+03 0.000000000000000D+00 0.000000000000000D+00 0.258538866303066D+03
 0.258538866303066D+03 0.000000000000000D+00 0.000000000000000D+00 -.258538866303066D+03
 0.123411720511357D+03 0.620650046998690D+01 0.813915088564999D+02 -.158777534163873D+02
 0.709441610795152D+02 -.546633689753287D+01 0.341169468485819D+02 -.619614968341624D+02
 0.107987875660684D+03 0.597895848951280D+02 -.286763838371106D+02 -.852305804145574D+02
 0.214733975354577D+03 -.605297484675820D+02 -.868320718679712D+02 0.163069830665107D+03
 0.000000000000000D+00 0.000000000000000D+00 -.000000000000000D+00 -.000000000000000D+00
 0.261687933712719D+03 0.000000000000000D+00 0.000000000000000D+00 0.261687933712719D+03
 0.264080502438010D+03 0.000000000000000D+00 0.000000000000000D+00 -.264080502438010D+03
 0.124520716661253D+03 0.524508395758013D+01 0.831296792641380D+02 -.158777534163873D+02
 0.714740611231451D+02 -.601859715058692D+01 0.351153928049242D+02 -.619614968341624D+02
 0.107135906357718D+03 0.589553916826445D+02 -.271682238071132D+02 -.852305804145574D+02
 0.214013431246050D+03 -.621923176782031D+02 -.838262689040534D+02 0.163069830665107D+03
 0.862432076256243D+01 0.401043918856539D+01 -.725057935789560D+01 -.239256872529143D+01
0.573755411164D-06 0.000000000000D+00 0.000000000000D+00 0.706319458623D-08 0.000000000000D+00  7 -2 2 23 -13 13 23 21 0 0.65369472D-02 0.24201929D+00 0.32934828D+05 0.32934828D+05 0.32934828D+05 0.11635937D+01  1  2  2  2  7  2        2 0.100772496543D-03 0.100000000000D+01
-.270212491293D-07 0.000000000000D+00 -.220337185214D-08 0.706319458623D-08 0.000000000000D+00  7 -2 2 23 -13 13 23 21 2 0.65369472D-02 0.24201929D+00 0.32934828D+05 0.32934828D+05 0.32934828D+05 0.11635937D+01  1  2  3  2  7  2        2 -.642574294460D-05 0.100000000000D+01
0.351576545535D-07 0.000000000000D+00 0.000000000000D+00 0.706319458623D-08 0.000000000000D+00  7 -2 2 23 -13 13 23 21 2 0.65369472D-02 0.24201929D+00 0.32934828D+05 0.32934828D+05 0.32934828D+05 0.11635937D+01  1  2 15  2  7  2        2 0.836060722488D-05 0.100000000000D+01
0.720407166598D-06 0.000000000000D+00 0.000000000000D+00 0.706319458623D-08 0.000000000000D+00  7 -2 2 23 -13 13 23 21 2 0.65369472D-02 0.24865589D+00 0.34397593D+05 0.34397593D+05 0.34397593D+05 0.11618639D+01  1  2 12  2  7  2        2 0.162127084595D-03 0.100000000000D+01
-.659488687557D-06 0.000000000000D+00 0.000000000000D+00 0.706319458623D-08 0.000000000000D+00  7 -2 2 23 -13 13 23 21 2 0.65369472D-02 0.24201929D+00 0.32934828D+05 0.32934828D+05 0.32934828D+05 0.11635937D+01  1  2  4  2  7  2        2 -.156828604067D-03 0.100000000000D+01
-.161011065169D-04 0.000000000000D+00 -.225420649512D-05 0.706319458623D-08 0.000000000000D+00  7 -2 2 23 -13 13 23 21 2 0.65369472D-02 0.24883237D+00 0.32934828D+05 0.32934828D+05 0.32934828D+05 0.11635937D+01  1  2  5  2  7  2        2 -.362979194732D-02 0.100000000000D+01
0.161583289999D-04 0.000000000000D+00 0.225333808211D-05 0.706319458623D-08 0.000000000000D+00  7 -2 2 23 -13 13 23 21 2 0.65369472D-02 0.24201929D+00 0.32934828D+05 0.32934828D+05 0.32934828D+05 0.11635937D+01  1  2  6  2  7  2        2 0.384250439611D-02 0.100000000000D+01
0.797990397779D-08 0.000000000000D+00 0.000000000000D+00 0.706319458623D-08 0.740974212689D-09  7 -2 2 23 -13 13 23 21 2 0.66165688D-02 0.24720684D+00 0.34397593D+05 0.34397593D+05 0.34397593D+05 0.11618639D+01  1  2 11  2  7  2        2 0.178403234065D-05 0.100000000000D+01
0.182906204647D-07 0.000000000000D+00 0.000000000000D+00 0.706319458623D-08 0.000000000000D+00  7 -2 21 23 -13 13 23 -2 2 0.65369472D-02 0.24865589D+00 0.34397593D+05 0.34397593D+05 0.34397593D+05 0.11618639D+01  1  2 12  4  7  2        2 0.140633844288D-05 0.100000000000D+01
-.797999836525D-07 0.000000000000D+00 -.112603348159D-07 0.706319458623D-08 0.000000000000D+00  7 -2 21 23 -13 13 23 -2 2 0.65369472D-02 0.24883237D+00 0.32934828D+05 0.32934828D+05 0.32934828D+05 0.11635937D+01  1  2  5  4  7  2        2 -.615321353879D-05 0.100000000000D+01
0.442056455841D-10 0.000000000000D+00 0.000000000000D+00 0.706319458623D-08 0.286787123960D-11  7 -2 21 23 -13 13 23 -2 2 0.66165688D-02 0.24720684D+00 0.34397593D+05 0.34397593D+05 0.34397593D+05 0.11618639D+01  1  2 11  4  7  2        2 0.341336567675D-08 0.100000000000D+01
  </mgrwgt>
  </event>
  <event>
  8     66 0.53686478E-06 0.40296329E+03 0.75467711E-02 0.86625277E-01
       -2 -1    0    0    0  501 0.00000000E+00 0.00000000E+00 0.32982324E+03 0.32982340E+03 0.32000000E+00 0.0000E+00 0.9000E+01
        2 -1    0    0  501    0 0.00000000E+00 0.00000000E+00 -.90218899E+03 0.90218905E+03 0.32000000E+00 0.0000E+00 0.9000E+01
       25  2    1    2    0    0 -.12318160E+03 0.31696776E+03 -.71883554E+03 0.84989226E+03 0.29991675E+03 0.0000E+00 0.0000E+00
       23  2    1    2    0    0 0.12318160E+03 -.31696776E+03 0.14646979E+03 0.38212019E+03 0.94446667E+02 0.0000E+00 0.0000E+00
       23  1    3    3    0    0 -.74795489E+02 -.21851532E+01 -.19140309E+03 0.22483224E+03 0.91188000E+02 0.0000E+00 0.9000E+01
      -13  1    4    4    0    0 0.12536870E+03 -.20331235E+03 0.10767680E+03 0.26200673E+03 0.10565837E+00 0.0000E+00 0.9000E+01
       13  1    4    4    0    0 -.21871038E+01 -.11365540E+03 0.38792995E+02 0.12011346E+03 0.10565837E+00 0.0000E+00 0.9000E+01
       23  1    3    3    0    0 -.48386111E+02 0.31915291E+03 -.52743245E+03 0.62506003E+03 0.91188000E+02 0.0000E+00 0.9000E+01
#aMCatNLO 1  0  0  1  2 0.96199603D+03 0.00000000D+00  -5  7  0 0.00000000D+00 0.00000000D+00 0.00000000D+00 0.00000000D+00 0.00000000D+00
  <mgrwgt>
 0.2199697777D-03    5    2    0
 0.545493383595523D+03 0.000000000000000D+00 0.000000000000000D+00 0.545493383595523D+03
 0.545493383595523D+03 0.000000000000000D+00 0.000000000000000D+00 -.545493383595523D+03
 0.153478984496083D+03 -.747954892480591D+02 -.218515318660334D+01 -.981906677421197D+02
 0.352365717282006D+03 0.125368863147675D+03 -.203312463042329D+03 0.259052676574445D+03
 0.155991613101578D+03 -.218726266669878D+01 -.113655292273409D+03 0.106822627651192D+03
 0.429150452311379D+03 -.483861112329167D+02 0.319152908502342D+03 -.267684636483517D+03
 0.000000000000000D+00 0.000000000000000D+00 -.000000000000000D+00 0.000000000000000D+00
 0.188484573578242D+04 0.000000000000000D+00 0.000000000000000D+00 0.188484573578242D+04
 0.927135566839014D+03 0.000000000000000D+00 0.000000000000000D+00 -.927135566839014D+03
 0.265776659791155D+03 -.223321971404899D+03 0.529893517787246D+02 -.981906677421197D+02
 0.303730599511410D+03 -.107061347911387D+03 -.116969464487846D+03 0.259052676574445D+03
 0.174882704152189D+03 -.119403569822910D+03 -.701118673750909D+02 0.106822627651192D+03
 0.710150683233569D+03 -.451997588109901D+03 0.469086193877654D+03 -.267684636483517D+03
 0.135744065593311D+04 0.901784477249097D+03 -.334994213793441D+03 0.957710168943409D+03
0.155844035412D-04 0.000000000000D+00 0.000000000000D+00 0.233604547029D-06 0.000000000000D+00  7 -2 2 23 -13 13 23 21 0 0.50742054D-01 0.13879832D+00 0.16237942D+06 0.16237942D+06 0.16237942D+06 0.11048443D+01  1  2  2  1  7  1       -2 0.213643993842D-03 0.100000000000D+01
-.769252798677D-06 0.000000000000D+00 -.598482130659D-07 0.233604547029D-06 0.000000000000D+00  7 -2 2 23 -13 13 23 21 2 0.50742054D-01 0.13879832D+00 0.16237942D+06 0.16237942D+06 0.16237942D+06 0.11048443D+01  1  2  3  1  7  1       -2 -.128727629005D-04 0.100000000000D+01
0.877518410644D-06 0.000000000000D+00 0.000000000000D+00 0.233604547029D-06 0.000000000000D+00  7 -2 2 23 -13 13 23 21 2 0.50742054D-01 0.13879832D+00 0.16237942D+06 0.16237942D+06 0.16237942D+06 0.11048443D+01  1  2 15  1  7  1       -2 0.146844918348D-04 0.100000000000D+01
0.662143944755D-05 0.000000000000D+00 -.606564474419D-05 0.233604547029D-06 0.000000000000D+00  7 -2 2 23 -13 13 23 21 2 0.24552968D+00 0.13879832D+00 0.16237942D+06 0.16237942D+06 0.16237942D+06 0.11048443D+01  1  2  5  1  7  1       -2 0.195125396590D-05 0.100000000000D+01
0.113512665976D-05 0.000000000000D+00 -.116313775833D-05 0.233604547029D-06 0.000000000000D+00  7 21 2 23 -13 13 23 2 2 0.24552968D+00 0.13879832D+00 0.16237942D+06 0.16237942D+06 0.16237942D+06 0.11048443D+01  1  2  5  3  7  1       -2 0.256280095421D-05 0.100000000000D+01
  </mgrwgt>
  </event>
  <event>
  8     66 0.53686478E-06 0.25021553E+03 0.75467711E-02 0.97115217E-01
       -2 -1    0    0    0  501 0.00000000E+00 0.00000000E+00 0.23781681E+03 0.23781703E+03 0.32000000E+00 0.0000E+00 0.9000E+01
        2 -1    0    0  501    0 0.00000000E+00 0.00000000E+00 -.76121584E+03 0.76121590E+03 0.32000000E+00 0.0000E+00 0.9000E+01
       25  2    1    2    0    0 -.33046657E+03 -.15405219E+03 -.32997330E+03 0.57625753E+03 0.30041660E+03 0.0000E+00 0.0000E+00
       23  2    1    2    0    0 0.33046657E+03 0.15405219E+03 -.19342572E+03 0.42277540E+03 0.91571262E+02 0.0000E+00 0.0000E+00
       23  1    3    3    0    0 -.90633923E+02 -.35177150E+02 -.24846662E+03 0.28196250E+03 0.91188000E+02 0.0000E+00 0.9000E+01
      -11  1    4    4    0    0 0.31785244E+03 0.12473733E+03 -.16180635E+03 0.37785033E+03 0.51099893E-03 0.0000E+00 0.9000E+01
       11  1    4    4    0    0 0.12614130E+02 0.29314856E+02 -.31619375E+02 0.44925070E+02 0.51099893E-03 0.0000E+00 0.9000E+01
       23  1    3    3    0    0 -.23983265E+03 -.11887504E+03 -.81506681E+02 0.29429503E+03 0.91188000E+02 0.0000E+00 0.9000E+01
#aMCatNLO 1  0  0  2  1 0.17363828D+02 0.00000000D+00  -5  7  0 0.00000000D+00 0.00000000D+00 0.00000000D+00 0.00000000D+00 0.00000000D+00
  <mgrwgt>
 0.3783793377D-03    9    2    0
 0.425476279502774D+03 0.000000000000000D+00 0.000000000000000D+00 0.425476279502774D+03
 0.425476279502774D+03 0.000000000000000D+00 0.000000000000000D+00 -.425476279502774D+03
 0.178203399561864D+03 -.906339226700471D+02 -.351771503587828D+02 -.118276203969695D+03
 0.344079858507207D+03 0.317852441514561D+03 0.124737330465919D+03 0.424425828833262D+02
 0.332945406649112D+02 0.126141302421549D+02 0.293148559739816D+02 -.948943494345645D+01
 0.295374760271566D+03 -.239832649086669D+03 -.118875036081118D+03 0.853230560298253D+02
 0.000000000000000D+00 0.000000000000000D+00 -.000000000000000D+00 -.000000000000000D+00
 0.432383582080296D+03 0.000000000000000D+00 0.000000000000000D+00 0.432383582080296D+03
 0.436619045768098D+03 0.000000000000000D+00 0.000000000000000D+00 -.436619045768098D+03
 0.179471397996420D+03 -.937798965953168D+02 -.333286952021838D+02 -.118276203969695D+03
 0.339848892297839D+03 0.311836859674679D+03 0.128271858575817D+03 0.424425828833262D+02
 0.333825784729312D+02 0.120276632065915D+02 0.296594417975814D+02 -.948943494345645D+01
 0.298426827696126D+03 -.245055506065363D+03 -.115806283083231D+03 0.853230560298253D+02
 0.178729313850789D+02 0.149708797794085D+02 -.879632208798380D+01 -.423546368780172D+01
0.477213591177D-05 0.000000000000D+00 0.000000000000D+00 0.632890712995D-06 0.000000000000D+00  7 -2 2 23 -11 11 23 21 0 0.36587224D-01 0.11711015D+00 0.15580482D+06 0.15580482D+06 0.15580482D+06 0.11062530D+01  1  2  2  2  7  2        2 0.151923634056D-03 0.100000000000D+01
-.263304038939D-06 0.000000000000D+00 -.183262584334D-07 0.632890712995D-06 0.000000000000D+00  7 -2 2 23 -11 11 23 21 2 0.36587224D-01 0.11711015D+00 0.15580482D+06 0.15580482D+06 0.15580482D+06 0.11062530D+01  1  2  3  2  7  2        2 -.102583843064D-04 0.100000000000D+01
0.307417221392D-06 0.000000000000D+00 0.000000000000D+00 0.632890712995D-06 0.000000000000D+00  7 -2 2 23 -11 11 23 21 2 0.36587224D-01 0.11711015D+00 0.15580482D+06 0.15580482D+06 0.15580482D+06 0.11062530D+01  1  2 15  2  7  2        2 0.119770437709D-04 0.100000000000D+01
0.842621850720D-05 0.000000000000D+00 0.000000000000D+00 0.632890712995D-06 0.000000000000D+00  7 -2 2 23 -11 11 23 21 2 0.36587224D-01 0.12110752D+00 0.16301855D+06 0.16301855D+06 0.16301855D+06 0.11047107D+01  1  2 12  2  7  2        2 0.313618716656D-03 0.100000000000D+01
-.747765462854D-05 0.000000000000D+00 0.000000000000D+00 0.632890712995D-06 0.000000000000D+00  7 -2 2 23 -11 11 23 21 2 0.36587224D-01 0.11711015D+00 0.15580482D+06 0.15580482D+06 0.15580482D+06 0.11062530D+01  1  2  4  2  7  2        2 -.291331098447D-03 0.100000000000D+01
-.113102953152D-03 0.000000000000D+00 -.161331273734D-04 0.632890712995D-06 0.000000000000D+00  7 -2 2 23 -11 11 23 21 2 0.36587224D-01 0.12161926D+00 0.15580482D+06 0.15580482D+06 0.15580482D+06 0.11062530D+01  1  2  5  2  7  2        2 -.420242097443D-02 0.100000000000D+01
0.113642862112D-03 0.000000000000D+00 0.161216203317D-04 0.632890712995D-06 0.000000000000D+00  7 -2 2 23 -11 11 23 21 2 0.36587224D-01 0.11711015D+00 0.15580482D+06 0.15580482D+06 0.15580482D+06 0.11062530D+01  1  2  6  2  7  2        2 0.442755135058D-02 0.100000000000D+01
0.154187272036D-06 0.000000000000D+00 0.000000000000D+00 0.632890712995D-06 0.000000000000D+00  7 -2 21 23 -11 11 23 -2 2 0.36587224D-01 0.12110752D+00 0.16301855D+06 0.16301855D+06 0.16301855D+06 0.11047107D+01  1  2 12  4  7  2        2 0.591962209663D-05 0.100000000000D+01
-.749453133813D-06 0.000000000000D+00 -.108077199915D-06 0.632890712995D-06 0.000000000000D+00  7 -2 21 23 -11 11 23 -2 2 0.36587224D-01 0.12161926D+00 0.15580482D+06 0.15580482D+06 0.15580482D+06 0.11062530D+01  1  2  5  4  7  2        2 -.286005723081D-04 0.100000000000D+01
  </mgrwgt>
  </event>
  <event>
  8     66 0.53686478E-06 0.30279432E+03 0.75467711E-02 0.96362736E-01
       -2 -1    0    0    0  501 0.00000000E+00 0.00000000E+00 0.69028296E+02 0.69029038E+02 0.32000000E+00 0.0000E+00 0.9000E+01
        2 -1    0    0  501    0 0.00000000E+00 0.00000000E+00 -.20800457E+04 0.20800458E+04 0.32000000E+00 0.0000E+00 0.9000E+01
       25  2    1    2    0    0 0.85682217E+02 -.25023798E+03 -.16196097E+04 0.16683098E+04 0.30026926E+03 0.0000E+00 0.0000E+00
       23  2    1    2    0    0 -.85682217E+02 0.25023798E+03 -.39140774E+03 0.48076496E+03 0.89299728E+02 0.0000E+00 0.0000E+00
       23  1    3    3    0    0 0.14592597E+02 -.85084852E+02 -.21247433E+03 0.24680553E+03 0.91188000E+02 0.0000E+00 0.9000E+01
      -11  1    4    4    0    0 -.10194388E+03 0.23487027E+03 -.36872663E+03 0.44890525E+03 0.51099893E-03 0.0000E+00 0.9000E+01
       11  1    4    4    0    0 0.16261667E+02 0.15367713E+02 -.22681111E+02 0.31859711E+02 0.51099893E-03 0.0000E+00 0.9000E+01
       23  1    3    3    0    0 0.71089620E+02 -.16515313E+03 -.14071354E+04 0.14215043E+04 0.91188000E+02 0.0000E+00 0.9000E+01
#aMCatNLO 1  0  0  1  1 0.21628303D+03 0.00000000D+00  -5  7  0 0.00000000D+00 0.00000000D+00 0.00000000D+00 0.00000000D+00 0.00000000D+00
  <mgrwgt>
 0.4995310646D-03    4    2    0
 0.378923257875645D+03 0.000000000000000D+00 0.000000000000000D+00 0.378923257875645D+03
 0.378923257875645D+03 0.000000000000000D+00 0.000000000000000D+00 -.378923257875645D+03
 0.136061791130798D+03 0.145925973822919D+02 -.850848522089472D+02 0.523945005505424D+02
 0.294538907786007D+03 -.101943883855144D+03 0.234870270346970D+03 0.145590414696310D+03
 0.301601880058654D+02 0.162616667324167D+02 0.153677134657908D+02 0.202244534775680D+02
 0.297085628828620D+03 0.710896197404355D+02 -.165153131603814D+03 -.218209368724421D+03
 0.000000000000000D+00 0.000000000000000D+00 0.000000000000000D+00 -.000000000000000D+00
 0.444638757811636D+03 0.000000000000000D+00 0.000000000000000D+00 0.444638757811636D+03
 0.625233951155575D+03 0.000000000000000D+00 0.000000000000000D+00 -.625233951155575D+03
 0.153992104944712D+03 -.163951680036995D+02 -.111284912811634D+03 0.523945005505424D+02
 0.285238180358327D+03 -.163884084027159D+03 0.182500021055520D+03 0.145590414696310D+03
 0.249887150758151D+02 0.103698607849282D+02 0.103862096057786D+02 0.202244534775680D+02
 0.323886125042171D+03 0.474840770835752D+01 -.221244422926224D+03 -.218209368724421D+03
 0.281767583546185D+03 0.165160983537573D+03 0.139643105076560D+03 -.180595193343938D+03
0.123256110330D-04 0.000000000000D+00 0.000000000000D+00 0.249918815166D-06 0.000000000000D+00  7 -2 2 23 -11 11 23 21 0 0.10619797D-01 0.32000709D+00 0.91684400D+05 0.91684400D+05 0.91684400D+05 0.11248293D+01  1  2  2  1  7  1       -2 0.552117019501D-03 0.100000000000D+01
-.642876975865D-06 0.000000000000D+00 -.473335917747D-07 0.249918815166D-06 0.000000000000D+00  7 -2 2 23 -11 11 23 21 2 0.10619797D-01 0.32000709D+00 0.91684400D+05 0.91684400D+05 0.91684400D+05 0.11248293D+01  1  2  3  1  7  1       -2 -.364354228572D-04 0.100000000000D+01
0.766439147886D-06 0.000000000000D+00 0.000000000000D+00 0.249918815166D-06 0.000000000000D+00  7 -2 2 23 -11 11 23 21 2 0.10619797D-01 0.32000709D+00 0.91684400D+05 0.91684400D+05 0.91684400D+05 0.11248293D+01  1  2 15  1  7  1       -2 0.434383801192D-04 0.100000000000D+01
-.105140373353D-05 0.000000000000D+00 0.000000000000D+00 0.249918815166D-06 0.000000000000D+00  7 -2 2 23 -11 11 23 21 2 0.10619797D-01 0.32000709D+00 0.91684400D+05 0.91684400D+05 0.91684400D+05 0.11248293D+01  1  2  4  1  7  1       -2 -.595889121294D-04 0.100000000000D+01
  </mgrwgt>
  </event>
  <event>
  8     66 0.53686478E-06 0.28792744E+03 0.75467711E-02 0.85046803E-01
       -2 -1    0    0    0  501 0.00000000E+00 0.00000000E+00 0.11788518E+03 0.11788561E+03 0.32000000E+00 0.0000E+00 0.9000E+01
        2 -1    0    0  501    0 0.00000000E+00 0.00000000E+00 -.10624240E+04 0.10624241E+04 0.32000000E+00 0.0000E+00 0.9000E+01
       25  2    1    2    0    0 -.16187673E+03 -.12817368E+03 -.87074136E+03 0.94374368E+03 0.29971496E+03 0.0000E+00 0.0000E+00
       23  2    1    2    0    0 0.16187673E+03 0.12817368E+03 -.73797509E+02 0.23656602E+03 0.88796627E+02 0.0000E+00 0.0000E+00
       23  1    3    3    0    0 -.34701808E+02 0.57514224E+02 -.19256777E+03 0.22340479E+03 0.91188000E+02 0.0000E+00 0.9000E+01
      -13  1    4    4    0    0 0.98990619E+02 0.12120341E+03 -.29289680E+02 0.15920837E+03 0.10565837E+00 0.0000E+00 0.9000E+01
       13  1    4    4    0    0 0.62886114E+02 0.69702720E+01 -.44507829E+02 0.77357651E+02 0.10565837E+00 0.0000E+00 0.9000E+01
       23  1    3    3    0    0 -.12717493E+03 -.18568790E+03 -.67817359E+03 0.72033890E+03 0.91188000E+02 0.0000E+00 0.9000E+01
#aMCatNLO 1  0  0  1  2 0.12270933D+04 0.00000000D+00  -5  7  0 0.00000000D+00 0.00000000D+00 0.00000000D+00 0.00000000D+00 0.00000000D+00
  <mgrwgt>
 0.3375479156D-03    5    2    0
 0.353898759737018D+03 0.000000000000000D+00 0.000000000000000D+00 0.353898759737018D+03
 0.353898759737018D+03 0.000000000000000D+00 0.000000000000000D+00 -.353898759737018D+03
 0.115568495918737D+03 -.347018081026297D+02 0.575142238896851D+02 -.229940094306005D+02
 0.226406700809157D+03 0.989906706282889D+02 0.121203569943334D+03 0.163617040472074D+03
 0.696052933137981D+02 0.628860631680866D+02 0.697011043140736D+01 0.290113335972906D+02
 0.296217029432343D+03 -.127174925693746D+03 -.185687904264427D+03 -.169634364638764D+03
 0.000000000000000D+00 0.000000000000000D+00 -.000000000000000D+00 0.000000000000000D+00
 0.283978514106042D+04 0.000000000000000D+00 0.000000000000000D+00 0.283978514106042D+04
 0.884905133182356D+03 0.000000000000000D+00 0.000000000000000D+00 -.884905133182356D+03
 0.310506093912325D+03 -.275654655460546D+03 0.107631637848369D+03 -.229940094306005D+02
 0.327900778815899D+03 -.214480183337457D+03 0.186404495039052D+03 0.163617040472074D+03
 0.350297282802784D+02 0.371307564858580D+01 0.192779007032595D+02 0.290113335972906D+02
 0.743156235634318D+03 -.714959209625829D+03 -.634306717841040D+02 -.169634364638764D+03
 0.230809743759996D+04 0.120138097277525D+04 -.249883361806576D+03 0.195488000787807D+04
0.478336577766D-05 0.000000000000D+00 0.000000000000D+00 0.368154800059D-06 0.000000000000D+00  7 -2 2 23 -13 13 23 21 0 0.18136218D-01 0.16344989D+00 0.82902211D+05 0.82902211D+05 0.82902211D+05 0.11284665D+01  1  2  2  1  7  1       -2 0.329288801477D-03 0.100000000000D+01
-.251991012349D-06 0.000000000000D+00 -.183693840753D-07 0.368154800059D-06 0.000000000000D+00  7 -2 2 23 -13 13 23 21 2 0.18136218D-01 0.16344989D+00 0.82902211D+05 0.82902211D+05 0.82902211D+05 0.11284665D+01  1  2  3  1  7  1       -2 -.220905120891D-04 0.100000000000D+01
0.304598119705D-06 0.000000000000D+00 0.000000000000D+00 0.368154800059D-06 0.000000000000D+00  7 -2 2 23 -13 13 23 21 2 0.18136218D-01 0.16344989D+00 0.82902211D+05 0.82902211D+05 0.82902211D+05 0.11284665D+01  1  2 15  1  7  1       -2 0.267022556993D-04 0.100000000000D+01
0.122993344736D-04 0.000000000000D+00 -.536916428083D-05 0.368154800059D-06 0.000000000000D+00  7 -2 2 23 -13 13 23 21 2 0.30113336D+00 0.16344989D+00 0.82902211D+05 0.82902211D+05 0.82902211D+05 0.11284665D+01  1  2  5  1  7  1       -2 0.140895559558D-05 0.100000000000D+01
0.257208139057D-05 0.000000000000D+00 -.167191837808D-05 0.368154800059D-06 0.000000000000D+00  7 21 2 23 -13 13 23 2 2 0.30113336D+00 0.16344989D+00 0.82902211D+05 0.82902211D+05 0.82902211D+05 0.11284665D+01  1  2  5  3  7  1       -2 0.223841492818D-05 0.100000000000D+01
  </mgrwgt>
  </event>
  <event>
  8     66 0.53686478E-06 0.22697427E+03 0.75467711E-02 0.97179746E-01
       -2 -1    0    0    0  501 0.00000000E+00 0.00000000E+00 0.79249160E+03 0.79249166E+03 0.32000000E+00 0.0000E+00 0.9000E+01
        2 -1    0    0  501    0 0.00000000E+00 0.00000000E+00 -.13650468E+03 0.13650505E+03 0.32000000E+00 0.0000E+00 0.9000E+01
       25  2    1    2    0    0 0.60270243E+01 -.12095983E+03 0.88208123E+02 0.33653232E+03 0.30133988E+03 0.0000E+00 0.0000E+00
       23  2    1    2    0    0 -.60270243E+01 0.12095983E+03 0.56777880E+03 0.59246440E+03 0.11821035E+03 0.0000E+00 0.0000E+00
       23  1    3    3    0    0 0.10275806E+03 -.67743453E+02 -.23434662E+02 0.15496074E+03 0.91188000E+02 0.0000E+00 0.9000E+01
      -13  1    4    4    0    0 0.38524049E+02 0.10223349E+03 0.47985278E+03 0.49213260E+03 0.10565837E+00 0.0000E+00 0.9000E+01
       13  1    4    4    0    0 -.44551074E+02 0.18726339E+02 0.87926017E+02 0.10033180E+03 0.10565837E+00 0.0000E+00 0.9000E+01
       23  1    3    3    0    0 -.96731040E+02 -.53216372E+02 0.11164278E+03 0.18157158E+03 0.91188000E+02 0.0000E+00 0.9000E+01
#aMCatNLO 1  0  0  2  1 0.29540908D+03 0.00000000D+00  -5  7  0 0.00000000D+00 0.00000000D+00 0.00000000D+00 0.00000000D+00 0.00000000D+00
  <mgrwgt>
 0.1798813905D-03    3    2    0
 0.328905780493887D+03 0.000000000000000D+00 0.000000000000000D+00 0.328905780493887D+03
 0.328905780493887D+03 0.000000000000000D+00 0.000000000000000D+00 -.328905780493887D+03
 0.242213720539623D+03 0.102758070924758D+03 -.677435806232779D+02 -.187626813696248D+03
 0.216494378265576D+03 0.385235831992357D+02 0.102233650366015D+03 0.186906474181419D+03
 0.540114145592565D+02 -.445506175960470D+02 0.187263788288983D+02 0.241204915053412D+02
 0.145092047623319D+03 -.967310365279464D+02 -.532164485716359D+02 -.234001519905119D+02
 0.000000000000000D+00 0.000000000000000D+00 -.000000000000000D+00 0.000000000000000D+00
 0.651280281931439D+03 0.000000000000000D+00 0.000000000000000D+00 0.651280281931439D+03
 0.435589647694169D+03 0.000000000000000D+00 0.000000000000000D+00 -.435589647694169D+03
 0.216240991308104D+03 0.516489497185697D+01 -.566958342388109D+02 -.187626813696248D+03
 0.225296735684882D+03 -.555223428300201D+02 0.112879840830859D+03 0.186906474181419D+03
 0.800334358910418D+02 -.730853067103805D+02 0.219565637820646D+02 0.241204915053412D+02
 0.199527011455849D+03 -.170091539976338D+03 -.449118900938405D+02 -.234001519905119D+02
 0.365771755285732D+03 0.293534294544881D+03 -.332286802802720D+02 0.215690634237269D+03
0.102855865283D-04 0.000000000000D+00 0.000000000000D+00 0.347129778003D-09 0.000000000000D+00  7 -2 2 23 -13 13 23 21 0 0.12192182D+00 0.21000753D-01 0.51517321D+05 0.51517321D+05 0.51517321D+05 0.11461551D+01  1  2  2  2  7  2        2 0.176640074895D-03 0.100000000000D+01
-.475826984987D-06 0.000000000000D+00 -.394993605257D-07 0.347129778003D-09 0.000000000000D+00  7 -2 2 23 -13 13 23 21 2 0.12192182D+00 0.21000753D-01 0.51517321D+05 0.51517321D+05 0.51517321D+05 0.11461551D+01  1  2  3  2  7  2        2 -.107348518391D-04 0.100000000000D+01
0.619499712050D-06 0.000000000000D+00 0.000000000000D+00 0.347129778003D-09 0.000000000000D+00  7 -2 2 23 -13 13 23 21 2 0.12192182D+00 0.21000753D-01 0.51517321D+05 0.51517321D+05 0.51517321D+05 0.11461551D+01  1  2 15  2  7  2        2 0.139761674580D-04 0.100000000000D+01
  </mgrwgt>
  </event>
  <event>
  8     66 0.53686478E-06 0.13176427E+03 0.75467711E-02 0.98822711E-01
       -2 -1    0    0    0  501 0.00000000E+00 0.00000000E+00 0.63734574E+02 0.63735377E+02 0.32000000E+00 0.0000E+00 0.9000E+01
        2 -1    0    0  501    0 0.00000000E+00 0.00000000E+00 -.34169511E+04 0.34169511E+04 0.32000000E+00 0.0000E+00 0.9000E+01
       25  2    1    2    0    0 0.23183431E+03 -.11421719E+03 -.30363983E+04 0.30621057E+04 0.29997245E+03 0.0000E+00 0.0000E+00
       23  2    1    2    0    0 -.23183431E+03 0.11421719E+03 -.31681821E+03 0.41858086E+03 0.89685228E+02 0.0000E+00 0.0000E+00
       23  1    3    3    0    0 0.15794087E+03 -.17719885E+03 -.16727072E+04 0.16919248E+04 0.91188000E+02 0.0000E+00 0.9000E+01
      -11  1    4    4    0    0 -.13428387E+03 0.11072421E+03 -.17869856E+03 0.24944976E+03 0.51099893E-03 0.0000E+00 0.9000E+01
       11  1    4    4    0    0 -.97550446E+02 0.34929838E+01 -.13811965E+03 0.16913110E+03 0.51099893E-03 0.0000E+00 0.9000E+01
       23  1    3    3    0    0 0.73893442E+02 0.62981657E+02 -.13636911E+04 0.13701809E+04 0.91188000E+02 0.0000E+00 0.9000E+01
#aMCatNLO 1  0  0  1  2 0.39084574D+02 0.00000000D+00  -5  7  0 0.00000000D+00 0.00000000D+00 0.00000000D+00 0.00000000D+00 0.00000000D+00
  <mgrwgt>
 0.2023659708D-03    9    2    0
 0.466668349749946D+03 0.000000000000000D+00 0.000000000000000D+00 0.466668349749946D+03
 0.466668349749946D+03 0.000000000000000D+00 0.000000000000000D+00 -.466668349749946D+03
 0.300117011344540D+03 0.157940870959523D+03 -.177198849615873D+03 -.159405828405793D+03
 0.288257654523497D+03 -.134283867536976D+03 0.110724209283994D+03 0.229783523754715D+03
 0.134514409905606D+03 -.975504459056228D+02 0.349298377284377D+01 0.925518019285963D+02
 0.210447623726249D+03 0.738934424830762D+02 0.629816565590355D+02 -.162929497277518D+03
 0.000000000000000D+00 0.000000000000000D+00 -.000000000000000D+00 0.000000000000000D+00
 0.487773467001780D+03 0.000000000000000D+00 0.000000000000000D+00 0.487773467001780D+03
 0.485530131437584D+03 0.000000000000000D+00 0.000000000000000D+00 -.485530131437584D+03
 0.292635543500957D+03 0.145704196771768D+03 -.175158153933688D+03 -.159405828405793D+03
 0.294819706875394D+03 -.146320808819420D+03 0.112731595745781D+03 0.229783523754715D+03
 0.138685754584906D+03 -.103190339607613D+03 0.443354217531811D+01 0.925518019285963D+02
 0.208013692365281D+03 0.652548044150785D+02 0.644223120128649D+02 -.162929497277518D+03
 0.391489011128255D+02 0.385521472401867D+02 -.642929600027617D+01 0.224333556419610D+01
0.188435425338D-04 0.000000000000D+00 0.000000000000D+00 0.563828650767D-06 0.000000000000D+00  7 -2 2 23 -11 11 23 21 0 0.98053820D-02 0.52568485D+00 0.10861706D+06 0.10861706D+06 0.10861706D+06 0.11187880D+01  1  2  2  1  7  1       -2 0.149824997764D-03 0.100000000000D+01
-.892871524288D-06 0.000000000000D+00 -.723641649483D-07 0.563828650767D-06 0.000000000000D+00  7 -2 2 23 -11 11 23 21 2 0.98053820D-02 0.52568485D+00 0.10861706D+06 0.10861706D+06 0.10861706D+06 0.11187880D+01  1  2  3  1  7  1       -2 -.888600052989D-05 0.100000000000D+01
0.118569009846D-05 0.000000000000D+00 0.000000000000D+00 0.563828650767D-06 0.000000000000D+00  7 -2 2 23 -11 11 23 21 2 0.98053820D-02 0.52568485D+00 0.10861706D+06 0.10861706D+06 0.10861706D+06 0.11187880D+01  1  2 15  1  7  1       -2 0.118001779166D-04 0.100000000000D+01
0.285863273901D-04 0.000000000000D+00 0.000000000000D+00 0.563828650767D-06 0.000000000000D+00  7 -2 2 23 -11 11 23 21 2 0.10438626D-01 0.52568485D+00 0.12313424D+06 0.12313424D+06 0.12313424D+06 0.11143800D+01  1  2 12  1  7  1       -2 0.254479821112D-03 0.100000000000D+01
-.229434720739D-04 0.000000000000D+00 0.000000000000D+00 0.563828650767D-06 0.000000000000D+00  7 -2 2 23 -11 11 23 21 2 0.98053820D-02 0.52568485D+00 0.10861706D+06 0.10861706D+06 0.10861706D+06 0.11187880D+01  1  2  4  1  7  1       -2 -.228337111735D-03 0.100000000000D+01
-.903371883706D-04 0.000000000000D+00 -.225278141625D-04 0.563828650767D-06 0.000000000000D+00  7 -2 2 23 -11 11 23 21 2 0.10986264D-01 0.52568485D+00 0.10861706D+06 0.10861706D+06 0.10861706D+06 0.11187880D+01  1  2  5  1  7  1       -2 -.753767785396D-03 0.100000000000D+01
0.924454480009D-04 0.000000000000D+00 0.223829418110D-04 0.563828650767D-06 0.000000000000D+00  7 -2 2 23 -11 11 23 21 2 0.98053820D-02 0.52568485D+00 0.10861706D+06 0.10861706D+06 0.10861706D+06 0.11187880D+01  1  2  6  1  7  1       -2 0.920031916772D-03 0.100000000000D+01
0.324212162789D-06 0.000000000000D+00 0.000000000000D+00 0.563828650767D-06 0.000000000000D+00  7 21 2 23 -11 11 23 2 2 0.10438626D-01 0.52568485D+00 0.12313424D+06 0.12313424D+06 0.12313424D+06 0.11143800D+01  1  2 12  3  7  1       -2 0.415862632843D-04 0.100000000000D+01
-.154356338280D-05 0.000000000000D+00 -.408453907380D-06 0.563828650767D-06 0.000000000000D+00  7 21 2 23 -11 11 23 2 2 0.10986264D-01 0.52568485D+00 0.10861706D+06 0.10861706D+06 0.10861706D+06 0.11187880D+01  1  2  5  3  7  1       -2 -.184366308437D-03 0.100000000000D+01
  </mgrwgt>
  </event>
  <event>
  8     66 0.53686478E-06 0.23585197E+03 0.75467711E-02 0.10072721E+00
       -2 -1    0    0    0  501 0.00000000E+00 0.00000000E+00 0.24512770E+03 0.24512791E+03 0.32000000E+00 0.0000E+00 0.9000E+01
        2 -1    0    0  501    0 0.00000000E+00 0.00000000E+00 -.52682886E+03 0.52682895E+03 0.32000000E+00 0.0000E+00 0.9000E+01
       25  2    1    2    0    0 0.22654780E+03 -.29203560E+02 -.34961900E+03 0.51688368E+03 0.30456287E+03 0.0000E+00 0.0000E+00
       23  2    1    2    0    0 -.22654780E+03 0.29203560E+02 0.67917836E+02 0.25507318E+03 0.90954600E+02 0.0000E+00 0.0000E+00
       23  1    3    3    0    0 0.20505544E+03 -.85653389E+02 -.32607537E+03 0.40499955E+03 0.91188000E+02 0.0000E+00 0.9000E+01
      -11  1    4    4    0    0 -.23344910E+03 0.24174761E+02 0.72157571E+02 0.24553944E+03 0.51099893E-03 0.0000E+00 0.9000E+01
       11  1    4    4    0    0 0.69013008E+01 0.50287982E+01 -.42397352E+01 0.95337358E+01 0.51099893E-03 0.0000E+00 0.9000E+01
       23  1    3    3    0    0 0.21492361E+02 0.56449829E+02 -.23543628E+02 0.11188413E+03 0.91188000E+02 0.0000E+00 0.9000E+01
#aMCatNLO 1  0  0  1  2 0.10772732D+02 0.00000000D+00  -5  7  0 0.00000000D+00 0.00000000D+00 0.00000000D+00 0.00000000D+00 0.00000000D+00
  <mgrwgt>
 0.2606548221D-03    9    2    0
 0.359361185724137D+03 0.000000000000000D+00 0.000000000000000D+00 0.359361185724137D+03
 0.359361185724137D+03 0.000000000000000D+00 0.000000000000000D+00 -.359361185724137D+03
 0.307192844316985D+03 0.205055442180023D+03 -.856533887719887D+02 -.191488785258535D+03
 0.292008065098255D+03 -.233449104205692D+03 0.241747613565474D+02 0.173740630657715D+03
 0.857813066481195D+01 0.690130076528834D+01 0.502879821940010D+01 -.817044624347915D+00
 0.110943331368222D+03 0.214923612603811D+02 0.564498291960412D+02 0.185651992251676D+02
 0.000000000000000D+00 0.000000000000000D+00 -.000000000000000D+00 0.000000000000000D+00
 0.367642038332213D+03 0.000000000000000D+00 0.000000000000000D+00 0.367642038332213D+03
 0.362922330229552D+03 0.000000000000000D+00 0.000000000000000D+00 -.362922330229552D+03
 0.303926027863290D+03 0.200632467564984D+03 -.844655974213979D+02 -.191488785258535D+03
 0.295514210768762D+03 -.237701298386275D+03 0.253166895628627D+02 0.173740630657715D+03
 0.849874160419231D+01 0.677770685256789D+01 0.506198940707182D+01 -.817044624347915D+00
 0.110864121436592D+03 0.198870291755085D+02 0.568809416782955D+02 0.185651992251676D+02
 0.117612668889290D+02 0.104040947932152D+02 -.279402322683216D+01 0.471970810266189D+01
0.360940749934D-05 0.000000000000D+00 0.000000000000D+00 0.160537896795D-07 0.000000000000D+00  7 -2 2 23 -11 11 23 21 0 0.37711977D-01 0.81050617D-01 0.87859700D+05 0.87859700D+05 0.87859700D+05 0.11263641D+01  1  2  2  1  7  1       -2 0.168822054742D-03 0.100000000000D+01
-.191480607358D-06 0.000000000000D+00 -.138610751763D-07 0.160537896795D-07 0.000000000000D+00  7 -2 2 23 -11 11 23 21 2 0.37711977D-01 0.81050617D-01 0.87859700D+05 0.87859700D+05 0.87859700D+05 0.11263641D+01  1  2  3  1  7  1       -2 -.113625470061D-04 0.100000000000D+01
0.237786206508D-06 0.000000000000D+00 0.000000000000D+00 0.160537896795D-07 0.000000000000D+00  7 -2 2 23 -11 11 23 21 2 0.37711977D-01 0.81050617D-01 0.87859700D+05 0.87859700D+05 0.87859700D+05 0.11263641D+01  1  2 15  1  7  1       -2 0.141103424839D-04 0.100000000000D+01
0.512276640560D-05 0.000000000000D+00 0.000000000000D+00 0.160537896795D-07 0.000000000000D+00  7 -2 2 23 -11 11 23 21 2 0.38764729D-01 0.81050617D-01 0.91080645D+05 0.91080645D+05 0.91080645D+05 0.11250669D+01  1  2 12  1  7  1       -2 0.288226069419D-03 0.100000000000D+01
-.487641980928D-05 0.000000000000D+00 0.000000000000D+00 0.160537896795D-07 0.000000000000D+00  7 -2 2 23 -11 11 23 21 2 0.37711977D-01 0.81050617D-01 0.87859700D+05 0.87859700D+05 0.87859700D+05 0.11263641D+01  1  2  4  1  7  1       -2 -.289368986598D-03 0.100000000000D+01
-.108270139416D-03 0.000000000000D+00 -.144512258373D-04 0.160537896795D-07 0.000000000000D+00  7 -2 2 23 -11 11 23 21 2 0.38918679D-01 0.81050617D-01 0.87859700D+05 0.87859700D+05 0.87859700D+05 0.11263641D+01  1  2  5  1  7  1       -2 -.606348526702D-02 0.100000000000D+01
0.108678557977D-03 0.000000000000D+00 0.144440607345D-04 0.160537896795D-07 0.000000000000D+00  7 -2 2 23 -11 11 23 21 2 0.37711977D-01 0.81050617D-01 0.87859700D+05 0.87859700D+05 0.87859700D+05 0.11263641D+01  1  2  6  1  7  1       -2 0.644903544336D-02 0.100000000000D+01
0.138814493765D-06 0.000000000000D+00 0.000000000000D+00 0.160537896795D-07 0.000000000000D+00  7 21 2 23 -11 11 23 2 2 0.38764729D-01 0.81050617D-01 0.91080645D+05 0.91080645D+05 0.91080645D+05 0.11250669D+01  1  2 12  3  7  1       -2 0.884230233151D-04 0.100000000000D+01
-.605075575807D-06 0.000000000000D+00 -.814513657025D-07 0.160537896795D-07 0.000000000000D+00  7 21 2 23 -11 11 23 2 2 0.38918679D-01 0.81050617D-01 0.87859700D+05 0.87859700D+05 0.87859700D+05 0.11263641D+01  1  2  5  3  7  1       -2 -.383745310584D-03 0.100000000000D+01
  </mgrwgt>
  </event>
  <event>
  8     66 0.53686478E-06 0.87565437E+03 0.75467711E-02 0.82805540E-01
       -2 -1    0    0    0  501 0.00000000E+00 0.00000000E+00 0.83425168E+03 0.83425174E+03 0.32000000E+00 0.0000E+00 0.9000E+01
        2 -1    0    0  501    0 0.00000000E+00 0.00000000E+00 -.12584382E+04 0.12584383E+04 0.32000000E+00 0.0000E+00 0.9000E+01
       25  2    1    2    0    0 0.22476484E+03 0.81832871E+03 -.75782764E+03 0.11764568E+04 0.29927686E+03 0.0000E+00 0.0000E+00
       23  2    1    2    0    0 -.22476484E+03 -.81832871E+03 0.33364109E+03 0.91623326E+03 0.89363798E+02 0.0000E+00 0.0000E+00
       23  1    3    3    0    0 0.25489091E+03 0.51814863E+03 -.50016604E+03 0.76936902E+03 0.91188000E+02 0.0000E+00 0.9000E+01
      -13  1    4    4    0    0 -.21310926E+03 -.80902472E+03 0.33512299E+03 0.90124580E+03 0.10565837E+00 0.0000E+00 0.9000E+01
       13  1    4    4    0    0 -.11655582E+02 -.93039895E+01 -.14818936E+01 0.14987461E+02 0.10565837E+00 0.0000E+00 0.9000E+01
       23  1    3    3    0    0 -.30126076E+02 0.30018009E+03 -.25766160E+03 0.40708773E+03 0.91188000E+02 0.0000E+00 0.9000E+01
#aMCatNLO 1  0  0  1  1 0.12259651D+04 0.00000000D+00  -5  7  0 0.00000000D+00 0.00000000D+00 0.00000000D+00 0.00000000D+00 0.00000000D+00
  <mgrwgt>
 0.5536629175D-03    3    2    0
 0.102462398485025D+04 0.000000000000000D+00 0.000000000000000D+00 0.102462398485025D+04
 0.102462398485025D+04 0.000000000000000D+00 0.000000000000000D+00 -.102462398485025D+04
 0.682146416160024D+03 0.254890913656008D+03 0.518148625346384D+03 -.351512597104604D+03
 0.989721867261983D+03 -.213109536744939D+03 -.809025842190710D+03 0.528782456736716D+03
 0.149970717143156D+02 -.116553008259065D+02 -.930287152015138D+01 0.158830228278672D+01
 0.362382614564179D+03 -.301260760851625D+02 0.300180088364478D+03 -.178858161914899D+03
 0.000000000000000D+00 -.000000000000000D+00 -.000000000000000D+00 -.000000000000000D+00
 0.139721751167640D+04 0.000000000000000D+00 0.000000000000000D+00 0.139721751167640D+04
 0.304284796132228D+04 0.000000000000000D+00 0.000000000000000D+00 -.304284796132228D+04
 0.111706296452121D+04 0.620547951586444D+03 0.854911427704387D+03 -.351512597104604D+03
 0.731649568208873D+03 0.136728334839532D+03 -.486832174942990D+03 0.528782456736716D+03
 0.857666937682268D+01 -.686436074251224D+01 -.489051173748512D+01 0.158830228278672D+01
 0.530682236376571D+03 0.151373337813590D+03 0.467337410419105D+03 -.178858161914899D+03
 0.205209403451521D+04 -.901785263497054D+03 -.830526151443017D+03 -.164563044964588D+04
0.582819945404D-03 0.000000000000D+00 0.000000000000D+00 0.133390997344D-05 0.000000000000D+00  7 -2 2 23 -13 13 23 21 0 0.12834642D+00 0.19360589D+00 0.76677058D+06 0.76677058D+06 0.76677058D+06 0.10556288D+01  1  2  2  1  7  1       -2 0.549667173433D-03 0.100000000000D+01
-.314071496293D-04 0.000000000000D+00 -.223818205037D-05 0.133390997344D-05 0.000000000000D+00  7 -2 2 23 -13 13 23 21 2 0.12834642D+00 0.19360589D+00 0.76677058D+06 0.76677058D+06 0.76677058D+06 0.10556288D+01  1  2  3  1  7  1       -2 -.330077833303D-04 0.100000000000D+01
0.352091296614D-04 0.000000000000D+00 0.000000000000D+00 0.133390997344D-05 0.000000000000D+00  7 -2 2 23 -13 13 23 21 2 0.12834642D+00 0.19360589D+00 0.76677058D+06 0.76677058D+06 0.76677058D+06 0.10556288D+01  1  2 15  1  7  1       -2 0.370035274398D-04 0.100000000000D+01
  </mgrwgt>
  </event>
  <event>
  8     66 0.53686478E-06 0.34464136E+03 0.75467711E-02 0.89219571E-01
       -2 -1    0    0    0  501 0.00000000E+00 0.00000000E+00 0.37646583E+03 0.37646597E+03 0.32000000E+00 0.0000E+00 0.9000E+01
        2 -1    0    0  501    0 0.00000000E+00 0.00000000E+00 -.20985117E+04 0.20985118E+04 0.32000000E+00 0.0000E+00 0.9000E+01
       25  2    1    2    0    0 -.27031878E+01 -.68682122E+03 -.16068831E+04 0.17727285E+04 0.29793014E+03 0.0000E+00 0.0000E+00
       23  2    1    2    0    0 0.27031878E+01 0.68682122E+03 -.11516278E+03 0.70224920E+03 0.90337043E+02 0.0000E+00 0.0000E+00
       23  1    3    3    0    0 -.41534991E+02 -.15807863E+03 -.63367191E+03 0.66073395E+03 0.91188000E+02 0.0000E+00 0.9000E+01
      -13  1    4    4    0    0 0.35276767E+00 0.84412626E+02 0.15509855E+02 0.85826469E+02 0.10565837E+00 0.0000E+00 0.9000E+01
       13  1    4    4    0    0 0.23504201E+01 0.60240859E+03 -.13067264E+03 0.61642273E+03 0.10565837E+00 0.0000E+00 0.9000E+01
       23  1    3    3    0    0 0.38831803E+02 -.52874258E+03 -.97321122E+03 0.11119946E+04 0.91188000E+02 0.0000E+00 0.9000E+01
#aMCatNLO 1  0  0  2  1 0.23415754D+03 0.00000000D+00  -5  7  0 0.00000000D+00 0.00000000D+00 0.00000000D+00 0.00000000D+00 0.00000000D+00
  <mgrwgt>
 0.3025643825D-03    9    2    0
 0.888829659335668D+03 0.000000000000000D+00 0.000000000000000D+00 0.888829659335668D+03
 0.888829659335668D+03 0.000000000000000D+00 0.000000000000000D+00 -.888829659335668D+03
 0.306070844654869D+03 -.415349911695961D+02 -.158078634740622D+03 -.242177827950511D+03
 0.134517242457283D+03 0.352764936343981D+00 0.844119178276170D+02 0.104734866228371D+03
 0.731641709242896D+03 0.235042286652597D+01 0.602409298928245D+03 0.415207300972654D+03
 0.605429522316288D+03 0.388318033667261D+02 -.528742582015240D+03 -.277764339250513D+03
 0.000000000000000D+00 0.000000000000000D+00 0.000000000000000D+00 -.000000000000000D+00
 0.985776360421216D+03 0.000000000000000D+00 0.000000000000000D+00 0.985776360421216D+03
 0.105005965662888D+04 0.000000000000000D+00 0.000000000000000D+00 -.105005965662888D+04
 0.330170886118188D+03 -.554241943941474D+02 -.197422443052965D+03 -.242177827950511D+03
 0.125178956498603D+03 -.531642196147113D+01 0.683528682919162D+02 0.104734866228371D+03
 0.663033479095210D+03 -.280954378592881D+02 0.516165611012200D+03 0.415207300972654D+03
 0.674631571988661D+03 0.108879766437589D+02 -.607898783010152D+03 -.277764339250513D+03
 0.242821123349429D+03 0.779480775711477D+02 0.220802746759001D+03 -.642832962076589D+02
0.896370866348D-04 0.000000000000D+00 0.000000000000D+00 0.271342199579D-06 0.000000000000D+00  7 -2 2 23 -13 13 23 21 0 0.57917832D-01 0.32284797D+00 0.49839304D+06 0.49839304D+06 0.49839304D+06 0.10686092D+01  1  2  2  2  7  2        2 0.188255237215D-03 0.100000000000D+01
-.465861206331D-05 0.000000000000D+00 -.344230014665D-06 0.271342199579D-06 0.000000000000D+00  7 -2 2 23 -13 13 23 21 2 0.57917832D-01 0.32284797D+00 0.49839304D+06 0.49839304D+06 0.49839304D+06 0.10686092D+01  1  2  3  2  7  2        2 -.111725861299D-04 0.100000000000D+01
0.561312398186D-05 0.000000000000D+00 0.000000000000D+00 0.271342199579D-06 0.000000000000D+00  7 -2 2 23 -13 13 23 21 2 0.57917832D-01 0.32284797D+00 0.49839304D+06 0.49839304D+06 0.49839304D+06 0.10686092D+01  1  2 15  2  7  2        2 0.134617586296D-04 0.100000000000D+01
0.634282219119D-04 0.000000000000D+00 0.000000000000D+00 0.271342199579D-06 0.000000000000D+00  7 -2 2 23 -13 13 23 21 2 0.57917832D-01 0.39641540D+00 0.68795364D+06 0.68795364D+06 0.68795364D+06 0.10588514D+01  1  2 12  2  7  2        2 0.778504348939D-04 0.100000000000D+01
-.651073307548D-04 0.000000000000D+00 0.000000000000D+00 0.271342199579D-06 0.000000000000D+00  7 -2 2 23 -13 13 23 21 2 0.57917832D-01 0.32284797D+00 0.49839304D+06 0.49839304D+06 0.49839304D+06 0.10686092D+01  1  2  4  2  7  2        2 -.156144630775D-03 0.100000000000D+01
-.152538886232D-03 0.000000000000D+00 -.467396903349D-04 0.271342199579D-06 0.000000000000D+00  7 -2 2 23 -13 13 23 21 2 0.57917832D-01 0.39772047D+00 0.49839304D+06 0.49839304D+06 0.49839304D+06 0.10686092D+01  1  2  5  2  7  2        2 -.192641938418D-03 0.100000000000D+01
0.159797521206D-03 0.000000000000D+00 0.457411948661D-04 0.271342199579D-06 0.000000000000D+00  7 -2 2 23 -13 13 23 21 2 0.57917832D-01 0.32284797D+00 0.49839304D+06 0.49839304D+06 0.49839304D+06 0.10686092D+01  1  2  6  2  7  2        2 0.383236797733D-03 0.100000000000D+01
0.185167183214D-05 0.000000000000D+00 0.000000000000D+00 0.271342199579D-06 0.000000000000D+00  7 -2 21 23 -13 13 23 -2 2 0.57917832D-01 0.39641540D+00 0.68795364D+06 0.68795364D+06 0.68795364D+06 0.10588514D+01  1  2 12  4  7  2        2 0.233866264526D-06 0.100000000000D+01
-.392894085264D-05 0.000000000000D+00 -.138109839757D-05 0.271342199579D-06 0.000000000000D+00  7 -2 21 23 -13 13 23 -2 2 0.57917832D-01 0.39772047D+00 0.49839304D+06 0.49839304D+06 0.49839304D+06 0.10686092D+01  1  2  5  4  7  2        2 -.514556904191D-06 0.100000000000D+01
  </mgrwgt>
  </event>
  <event>
  8     66 0.53686478E-06 0.28890956E+03 0.75467711E-02 0.90694416E-01
       -2 -1    0    0    0  501 0.00000000E+00 0.00000000E+00 0.22246889E+03 0.22246912E+03 0.32000000E+00 0.0000E+00 0.9000E+01
        2 -1    0    0  501    0 0.00000000E+00 0.00000000E+00 -.83215643E+03 0.83215649E+03 0.32000000E+00 0.0000E+00 0.9000E+01
       25  2    1    2    0    0 -.11378234E+03 -.18529898E+03 -.70382093E+03 0.79865864E+03 0.30856053E+03 0.0000E+00 0.0000E+00
       23  2    1    2    0    0 0.11378234E+03 0.18529898E+03 0.94133388E+02 0.25596697E+03 0.96829037E+02 0.0000E+00 0.0000E+00
       23  1    3    3    0    0 -.15548201E+03 -.79874473E+02 -.22965767E+03 0.30267555E+03 0.91188000E+02 0.0000E+00 0.9000E+01
      -11  1    4    4    0    0 0.39908720E+02 0.14627899E+03 0.79315326E+02 0.17111742E+03 0.51099893E-03 0.0000E+00 0.9000E+01
       11  1    4    4    0    0 0.73873624E+02 0.39019982E+02 0.14818062E+02 0.84849551E+02 0.51099893E-03 0.0000E+00 0.9000E+01
       23  1    3    3    0    0 0.41699671E+02 -.10542450E+03 -.47416326E+03 0.49598310E+03 0.91188000E+02 0.0000E+00 0.9000E+01
#aMCatNLO 1  0  0  1  1 0.58878187D+03 0.00000000D+00  -5  7  0 0.00000000D+00 0.00000000D+00 0.00000000D+00 0.00000000D+00 0.00000000D+00
  <mgrwgt>
 0.2802159667D-03    3    2    0
 0.430266279690598D+03 0.000000000000000D+00 0.000000000000000D+00 0.430266279690598D+03
 0.430266279690598D+03 0.000000000000000D+00 0.000000000000000D+00 -.430266279690598D+03
 0.208231472212990D+03 -.155482014682520D+03 -.798744733669773D+02 -.670112400318169D+02
 0.265907867645240D+03 0.399087196304553D+02 0.146278993676226D+03 0.218441626486728D+03
 0.114485961355110D+03 0.738736240240519D+02 0.390199816602313D+02 0.782762036138192D+02
 0.271907258167856D+03 0.416996710280131D+02 -.105424501969480D+03 -.229706590068730D+03
 0.000000000000000D+00 -.000000000000000D+00 0.000000000000000D+00 -.000000000000000D+00
 0.647976239078609D+03 0.000000000000000D+00 0.000000000000000D+00 0.647976239078609D+03
 0.120570798882986D+04 0.000000000000000D+00 0.000000000000000D+00 -.120570798882986D+04
 0.161483851978789D+03 -.442188241300544D+02 -.106376559484977D+03 -.670112400318169D+02
 0.325563886441923D+03 0.217907926520957D+03 0.103880871830859D+03 0.218441626486728D+03
 0.181702013192781D+03 0.163009282989534D+03 0.177885132980695D+02 0.782762036138192D+02
 0.373929670175830D+03 0.236059689458974D+03 -.151719650623557D+03 -.229706590068730D+03
 0.811004806119149D+03 -.572758074839411D+03 0.136426824979606D+03 -.557731749751253D+03
0.850034312214D-05 0.000000000000D+00 0.000000000000D+00 0.277650609285D-09 0.000000000000D+00  7 -2 2 23 -11 11 23 21 0 0.34226006D-01 0.12802409D+00 0.83468733D+05 0.83468733D+05 0.83468733D+05 0.11282194D+01  1  2  2  1  7  1       -2 0.275930607832D-03 0.100000000000D+01
-.381156566579D-06 0.000000000000D+00 -.326435557808D-07 0.277650609285D-09 0.000000000000D+00  7 -2 2 23 -11 11 23 21 2 0.34226006D-01 0.12802409D+00 0.83468733D+05 0.83468733D+05 0.83468733D+05 0.11282194D+01  1  2  3  1  7  1       -2 -.157490345567D-04 0.100000000000D+01
0.484870395910D-06 0.000000000000D+00 0.000000000000D+00 0.277650609285D-09 0.000000000000D+00  7 -2 2 23 -11 11 23 21 2 0.34226006D-01 0.12802409D+00 0.83468733D+05 0.83468733D+05 0.83468733D+05 0.11282194D+01  1  2 15  1  7  1       -2 0.200343934495D-04 0.100000000000D+01
  </mgrwgt>
  </event>
  <event>
  8     66 0.53686478E-06 0.10754541E+03 0.75467711E-02 0.10515224E+00
       -2 -1    0    0    0  501 0.00000000E+00 0.00000000E+00 0.10030342E+04 0.10030342E+04 0.32000000E+00 0.0000E+00 0.9000E+01
        2 -1    0    0  501    0 0.00000000E+00 0.00000000E+00 -.55014732E+02 0.55015663E+02 0.32000000E+00 0.0000E+00 0.9000E+01
       25  2    1    2    0    0 0.49592926E+02 -.58634581E+02 0.84587434E+03 0.90060043E+03 0.29946661E+03 0.0000E+00 0.0000E+00
       23  2    1    2    0    0 -.49592926E+02 0.58634581E+02 0.10214508E+03 0.15744945E+03 0.91974113E+02 0.0000E+00 0.0000E+00
       23  1    3    3    0    0 -.56598584E+02 -.11508174E+03 0.46549160E+03 0.49137042E+03 0.91188000E+02 0.0000E+00 0.9000E+01
      -13  1    4    4    0    0 -.61711321E+02 0.22390466E+01 0.46503112E+02 0.77303629E+02 0.10565837E+00 0.0000E+00 0.9000E+01
       13  1    4    4    0    0 0.12118395E+02 0.56395535E+02 0.55641971E+02 0.80145817E+02 0.10565837E+00 0.0000E+00 0.9000E+01
       23  1    3    3    0    0 0.10619151E+03 0.56447157E+02 0.38038274E+03 0.40923001E+03 0.91188000E+02 0.0000E+00 0.9000E+01
#aMCatNLO 1  0  0  1  2 0.69442875D+01 0.00000000D+00  -5  7  0 0.00000000D+00 0.00000000D+00 0.00000000D+00 0.00000000D+00 0.00000000D+00
  <mgrwgt>
 0.1833764335D-03   11    2    0
 0.234908865403056D+03 0.000000000000000D+00 0.000000000000000D+00 0.234908865403056D+03
 0.234908865403056D+03 0.000000000000000D+00 0.000000000000000D+00 -.234908865403056D+03
 0.167297491418526D+03 -.565985801934648D+02 -.115081738048705D+03 0.567978307570379D+02
 0.802550573644896D+02 -.617114174554575D+02 0.223897886009945D+01 -.512597518710323D+02
 0.682149529703178D+02 0.121184888679008D+02 0.563956059407414D+02 -.364137016365796D+02
 0.154050229052778D+03 0.106191508781021D+03 0.564471532478637D+02 0.308756227505740D+02
 0.000000000000000D+00 -.000000000000000D+00 0.000000000000000D+00 0.000000000000000D+00
 0.241837119447117D+03 0.000000000000000D+00 0.000000000000000D+00 0.241837119447117D+03
 0.236681082529882D+03 0.000000000000000D+00 0.000000000000000D+00 -.236681082529882D+03
 0.166559771941118D+03 -.541340813322128D+02 -.115197282714001D+03 0.567978307570379D+02
 0.793511297632109D+02 -.605332215328447D+02 0.218374075239661D+01 -.512597518710323D+02
 0.683622906284636D+02 0.131266875751416D+02 0.563483379204508D+02 -.364137016365796D+02
 0.155595856773961D+03 0.108477283301042D+03 0.563399878293641D+02 0.308756227505740D+02
 0.864915287024550D+01 -.693666801112572D+01 0.325216211789011D+00 0.515603691723506D+01
0.226983471111D-05 0.000000000000D+00 0.000000000000D+00 0.534704380946D-07 0.000000000000D+00  7 -2 2 23 -13 13 23 21 0 0.15431302D+00 0.84638805D-02 0.45736155D+05 0.45736155D+05 0.45736155D+05 0.11507160D+01  1  2  2  1  7  1       -2 0.640540016067D-04 0.100000000000D+01
-.124750767463D-06 0.000000000000D+00 -.871676295187D-08 0.534704380946D-07 0.000000000000D+00  7 -2 2 23 -13 13 23 21 2 0.15431302D+00 0.84638805D-02 0.45736155D+05 0.45736155D+05 0.45736155D+05 0.11507160D+01  1  2  3  1  7  1       -2 -.466156285793D-05 0.100000000000D+01
0.141710957592D-06 0.000000000000D+00 0.000000000000D+00 0.534704380946D-07 0.000000000000D+00  7 -2 2 23 -13 13 23 21 2 0.15431302D+00 0.84638805D-02 0.45736155D+05 0.45736155D+05 0.45736155D+05 0.11507160D+01  1  2 15  1  7  1       -2 0.529531440893D-05 0.100000000000D+01
0.464560696703D-05 0.000000000000D+00 0.000000000000D+00 0.534704380946D-07 0.000000000000D+00  7 -2 2 23 -13 13 23 21 2 0.15943528D+00 0.84638805D-02 0.47187151D+05 0.47187151D+05 0.47187151D+05 0.11495138D+01  1  2 12  1  7  1       -2 0.158287504649D-03 0.100000000000D+01
-.563714003126D-05 0.000000000000D+00 0.000000000000D+00 0.534704380946D-07 0.000000000000D+00  7 -2 2 23 -13 13 23 21 2 0.15431302D+00 0.84638805D-02 0.45736155D+05 0.45736155D+05 0.45736155D+05 0.11507160D+01  1  2  4  1  7  1       -2 -.210643053579D-03 0.100000000000D+01
-.631304479404D-04 0.000000000000D+00 -.755577086415D-05 0.534704380946D-07 0.000000000000D+00  7 -2 2 23 -13 13 23 21 2 0.15954219D+00 0.84638805D-02 0.45736155D+05 0.45736155D+05 0.45736155D+05 0.11507160D+01  1  2  5  1  7  1       -2 -.215193109393D-02 0.100000000000D+01
0.633512580813D-04 0.000000000000D+00 0.755157719671D-05 0.534704380946D-07 0.000000000000D+00  7 -2 2 23 -13 13 23 21 2 0.15431302D+00 0.84638805D-02 0.45736155D+05 0.45736155D+05 0.45736155D+05 0.11507160D+01  1  2  6  1  7  1       -2 0.236724693307D-02 0.100000000000D+01
0.984144353175D-06 0.000000000000D+00 0.000000000000D+00 0.534704380946D-07 0.781697684943D-08  7 -2 2 23 -13 13 23 21 2 0.15886423D+00 0.85277343D-02 0.47187151D+05 0.47187151D+05 0.47187151D+05 0.11495138D+01  1  2 11  1  7  1       -2 0.335425881444D-04 0.100000000000D+01
0.113338121584D-06 0.000000000000D+00 0.000000000000D+00 0.534704380946D-07 0.000000000000D+00  7 21 2 23 -13 13 23 2 2 0.15943528D+00 0.84638805D-02 0.47187151D+05 0.47187151D+05 0.47187151D+05 0.11495138D+01  1  2 12  3  7  1       -2 0.347482719982D-04 0.100000000000D+01
-.372457902274D-06 0.000000000000D+00 -.449387589823D-07 0.534704380946D-07 0.000000000000D+00  7 21 2 23 -13 13 23 2 2 0.15954219D+00 0.84638805D-02 0.45736155D+05 0.45736155D+05 0.45736155D+05 0.11507160D+01  1  2  5  3  7  1       -2 -.114370832629D-03 0.100000000000D+01
0.589176074802D-08 0.000000000000D+00 0.000000000000D+00 0.534704380946D-07 0.413604974008D-10  7 21 2 23 -13 13 23 2 2 0.15886423D+00 0.85277343D-02 0.47187151D+05 0.47187151D+05 0.47187151D+05 0.11495138D+01  1  2 11  3  7  1       -2 0.180836263880D-05 0.100000000000D+01
  </mgrwgt>
  </event>
  <event>
  8     66 0.53686478E-06 0.53040194E+02 0.75467711E-02 0.10521400E+00
       -2 -1    0    0    0  501 0.00000000E+00 0.00000000E+00 0.81047031E+02 0.81047663E+02 0.32000000E+00 0.0000E+00 0.9000E+01
        2 -1    0    0  501    0 0.00000000E+00 0.00000000E+00 -.75466667E+03 0.75466674E+03 0.32000000E+00 0.0000E+00 0.9000E+01
       25  2    1    2    0    0 -.24917056E+02 -.84341956E+02 -.27136285E+03 0.41387462E+03 0.29986660E+03 0.0000E+00 0.0000E+00
       23  2    1    2    0    0 0.24917056E+02 0.84341956E+02 -.40225679E+03 0.42183978E+03 0.91672517E+02 0.0000E+00 0.0000E+00
       23  1    3    3    0    0 0.23508328E+02 0.66095073E+02 -.45989840E+02 0.12390124E+03 0.91188000E+02 0.0000E+00 0.9000E+01
      -13  1    4    4    0    0 0.13465863E+02 0.70001688E+02 -.12439458E+03 0.14337220E+03 0.10565837E+00 0.0000E+00 0.9000E+01
       13  1    4    4    0    0 0.11451193E+02 0.14340269E+02 -.27786221E+03 0.27846758E+03 0.10565837E+00 0.0000E+00 0.9000E+01
       23  1    3    3    0    0 -.48425383E+02 -.15043703E+03 -.22537301E+03 0.28997338E+03 0.91188000E+02 0.0000E+00 0.9000E+01
#aMCatNLO 1  0  0  2  1 0.37205095D+02 0.00000000D+00  -5  7  0 0.00000000D+00 0.00000000D+00 0.00000000D+00 0.00000000D+00 0.00000000D+00
  <mgrwgt>
 0.2691063465D-03    9    2    0
 0.247313132596099D+03 0.000000000000000D+00 0.000000000000000D+00 0.247313132596099D+03
 0.247313132596099D+03 0.000000000000000D+00 0.000000000000000D+00 -.247313132596099D+03
 0.146709535783866D+03 0.235083269122724D+02 0.660950709762001D+02 0.910342611567433D+02
 0.728298759015971D+02 0.134658660065013D+02 0.700017611911204D+02 -.149202783713419D+02
 0.920815172392511D+02 0.114511903297086D+02 0.143401969586921D+02 -.902343327581093D+02
 0.183005336267484D+03 -.484253832484822D+02 -.150437029126013D+03 0.141203499727079D+02
 0.000000000000000D+00 -.000000000000000D+00 -.000000000000000D+00 -.000000000000000D+00
 0.261980683398364D+03 0.000000000000000D+00 0.000000000000000D+00 0.261980683398364D+03
 0.272784988491204D+03 0.000000000000000D+00 0.000000000000000D+00 -.272784988491204D+03
 0.152061154631457D+03 0.307574340887469D+02 0.746598081150365D+02 0.910342611567433D+02
 0.777090782617144D+02 0.171184097397813D+02 0.743171997964662D+02 -.149202783713419D+02
 0.937214393064970D+02 0.159593485557837D+02 0.196665342919186D+02 -.902343327581093D+02
 0.172531876924571D+03 -.397989434860291D+02 -.140244989305000D+03 0.141203499727079D+02
 0.387421227653288D+02 -.240362488982828D+02 -.283985528984213D+02 -.108043050928401D+02
0.769168930427D-06 0.000000000000D+00 0.000000000000D+00 0.268502261662D-06 0.000000000000D+00  7 -2 2 23 -13 13 23 21 0 0.12468828D-01 0.11610262D+00 0.37470515D+05 0.37470515D+05 0.37470515D+05 0.11584808D+01  1  2  2  2  7  2        2 0.150691038838D-03 0.100000000000D+01
-.396129725264D-07 0.000000000000D+00 -.295381121967D-08 0.268502261662D-06 0.000000000000D+00  7 -2 2 23 -13 13 23 21 2 0.12468828D-01 0.11610262D+00 0.37470515D+05 0.37470515D+05 0.37470515D+05 0.11584808D+01  1  2  3  2  7  2        2 -.104155160812D-04 0.100000000000D+01
0.474148078471D-07 0.000000000000D+00 0.000000000000D+00 0.268502261662D-06 0.000000000000D+00  7 -2 2 23 -13 13 23 21 2 0.12468828D-01 0.11610262D+00 0.37470515D+05 0.37470515D+05 0.37470515D+05 0.11584808D+01  1  2 15  2  7  2        2 0.124668678496D-04 0.100000000000D+01
0.117968993970D-05 0.000000000000D+00 0.000000000000D+00 0.268502261662D-06 0.000000000000D+00  7 -2 2 23 -13 13 23 21 2 0.12468828D-01 0.13121939D+00 0.46774716D+05 0.46774716D+05 0.46774716D+05 0.11498513D+01  1  2 12  2  7  2        2 0.262915638598D-03 0.100000000000D+01
-.109500039573D-05 0.000000000000D+00 0.000000000000D+00 0.268502261662D-06 0.000000000000D+00  7 -2 2 23 -13 13 23 21 2 0.12468828D-01 0.11610262D+00 0.37470515D+05 0.37470515D+05 0.37470515D+05 0.11584808D+01  1  2  4  2  7  2        2 -.287910588459D-03 0.100000000000D+01
-.306000624059D-05 0.000000000000D+00 -.747317193953D-06 0.268502261662D-06 0.000000000000D+00  7 -2 2 23 -13 13 23 21 2 0.12468828D-01 0.13350064D+00 0.37470515D+05 0.37470515D+05 0.37470515D+05 0.11584808D+01  1  2  5  2  7  2        2 -.676467247589D-03 0.100000000000D+01
0.314091299419D-05 0.000000000000D+00 0.740090669549D-06 0.268502261662D-06 0.000000000000D+00  7 -2 2 23 -13 13 23 21 2 0.12468828D-01 0.11610262D+00 0.37470515D+05 0.37470515D+05 0.37470515D+05 0.11584808D+01  1  2  6  2  7  2        2 0.825846375927D-03 0.100000000000D+01
0.227577748901D-07 0.000000000000D+00 0.000000000000D+00 0.268502261662D-06 0.000000000000D+00  7 -2 21 23 -13 13 23 -2 2 0.12468828D-01 0.13121939D+00 0.46774716D+05 0.46774716D+05 0.46774716D+05 0.11498513D+01  1  2 12  4  7  2        2 0.491600201537D-05 0.100000000000D+01
-.612869746336D-07 0.000000000000D+00 -.160807284531D-07 0.268502261662D-06 0.000000000000D+00  7 -2 21 23 -13 13 23 -2 2 0.12468828D-01 0.13350064D+00 0.37470515D+05 0.37470515D+05 0.37470515D+05 0.11584808D+01  1  2  5  4  7  2        2 -.129362245621D-04 0.100000000000D+01
  </mgrwgt>
  </event>
  <event>
  8     66 0.53686478E-06 0.66786866E+03 0.75467711E-02 0.87789970E-01
       -2 -1    0    0    0  501 0.00000000E+00 0.00000000E+00 0.48816551E+03 0.48816562E+03 0.32000000E+00 0.0000E+00 0.9000E+01
        2 -1    0    0  501    0 0.00000000E+00 0.00000000E+00 -.21395494E+04 0.21395495E+04 0.32000000E+00 0.0000E+00 0.9000E+01
       25  2    1    2    0    0 -.80398148E+03 -.45069061E+03 -.13336003E+04 0.16484801E+04 0.29914619E+03 0.0000E+00 0.0000E+00
       23  2    1    2    0    0 0.80398148E+03 0.45069061E+03 -.31778358E+03 0.97923500E+03 0.91687158E+02 0.0000E+00 0.0000E+00
       23  1    3    3    0    0 -.17906949E+03 -.20808273E+03 -.46272585E+03 0.54570575E+03 0.91188000E+02 0.0000E+00 0.9000E+01
      -13  1    4    4    0    0 0.56498068E+03 0.31294820E+03 -.26635099E+03 0.69862909E+03 0.10565837E+00 0.0000E+00 0.9000E+01
       13  1    4    4    0    0 0.23900080E+03 0.13774241E+03 -.51432589E+02 0.28060591E+03 0.10565837E+00 0.0000E+00 0.9000E+01
       23  1    3    3    0    0 -.62491199E+03 -.24260788E+03 -.87087449E+03 0.11027743E+04 0.91188000E+02 0.0000E+00 0.9000E+01
#aMCatNLO 1  0  0  1  2 0.28776888D+02 0.00000000D+00  -5  7  0 0.00000000D+00 0.00000000D+00 0.00000000D+00 0.00000000D+00 0.00000000D+00
  <mgrwgt>
 0.1243058313D-03    9    2    0
 0.102198552531661D+04 0.000000000000000D+00 0.000000000000000D+00 0.102198552531661D+04
 0.102198552531661D+04 0.000000000000000D+00 0.000000000000000D+00 -.102198552531661D+04
 0.327705817273487D+03 -.179069493295730D+03 -.208082725896582D+03 -.153985541805529D+03
 0.682960470957394D+03 0.564981111204812D+03 0.312948429510979D+03 0.222023938661427D+03
 0.319190647564461D+03 0.239000367230691D+03 0.137742179813448D+03 0.160588249434554D+03
 0.714114114837881D+03 -.624911985139773D+03 -.242607883427845D+03 -.228626646290452D+03
 0.000000000000000D+00 -.000000000000000D+00 0.000000000000000D+00 0.000000000000000D+00
 0.132835013348121D+04 0.000000000000000D+00 0.000000000000000D+00 0.132835013348121D+04
 0.102276278526616D+04 0.000000000000000D+00 0.000000000000000D+00 -.102276278526616D+04
 0.325557059710889D+03 -.174499379467238D+03 -.208591867684256D+03 -.153985541805529D+03
 0.690445728514208D+03 0.574589222863195D+03 0.311878020473152D+03 0.222023938661427D+03
 0.322351737885941D+03 0.243488486532442D+03 0.137242172774162D+03 0.160588249434554D+03
 0.705819088114930D+03 -.614978378631614D+03 -.243714554807468D+03 -.228626646290452D+03
 0.306939304521401D+03 -.285999512967848D+02 0.318622924441010D+01 0.305587348215048D+03
0.110897357576D-03 0.000000000000D+00 0.000000000000D+00 0.220338736108D-05 0.000000000000D+00  7 -2 2 23 -13 13 23 21 0 0.75102396D-01 0.32916146D+00 0.89067995D+06 0.89067995D+06 0.89067995D+06 0.10512273D+01  1  2  2  1  7  1       -2 0.122083335685D-03 0.100000000000D+01
-.611346255266D-05 0.000000000000D+00 -.425875053036D-06 0.220338736108D-05 0.000000000000D+00  7 -2 2 23 -13 13 23 21 2 0.75102396D-01 0.32916146D+00 0.89067995D+06 0.89067995D+06 0.89067995D+06 0.10512273D+01  1  2  3  1  7  1       -2 -.743730701038D-05 0.100000000000D+01
0.694186613658D-05 0.000000000000D+00 0.000000000000D+00 0.220338736108D-05 0.000000000000D+00  7 -2 2 23 -13 13 23 21 2 0.75102396D-01 0.32916146D+00 0.89067995D+06 0.89067995D+06 0.89067995D+06 0.10512273D+01  1  2 15  1  7  1       -2 0.844509788652D-05 0.100000000000D+01
0.103786915752D-01 0.000000000000D+00 0.000000000000D+00 0.220338736108D-05 0.000000000000D+00  7 -2 2 23 -13 13 23 21 2 0.97638736D-01 0.32916146D+00 0.91839374D+06 0.91839374D+06 0.91839374D+06 0.10503339D+01  1  2 12  1  7  1       -2 0.683896317833D-02 0.100000000000D+01
-.100474650039D-01 0.000000000000D+00 0.000000000000D+00 0.220338736108D-05 0.000000000000D+00  7 -2 2 23 -13 13 23 21 2 0.75102396D-01 0.32916146D+00 0.89067995D+06 0.89067995D+06 0.89067995D+06 0.10512273D+01  1  2  4  1  7  1       -2 -.122232010528D-01 0.100000000000D+01
-.104731828321D-01 0.000000000000D+00 -.592700482737D-04 0.220338736108D-05 0.000000000000D+00  7 -2 2 23 -13 13 23 21 2 0.97645619D-01 0.32916146D+00 0.89067995D+06 0.89067995D+06 0.89067995D+06 0.10512273D+01  1  2  5  1  7  1       -2 -.692624151630D-02 0.100000000000D+01
0.101394016875D-01 0.000000000000D+00 0.572851532834D-04 0.220338736108D-05 0.000000000000D+00  7 -2 2 23 -13 13 23 21 2 0.75102396D-01 0.32916146D+00 0.89067995D+06 0.89067995D+06 0.89067995D+06 0.10512273D+01  1  2  6  1  7  1       -2 0.123350462364D-01 0.100000000000D+01
0.363995319125D-03 0.000000000000D+00 0.000000000000D+00 0.220338736108D-05 0.000000000000D+00  7 21 2 23 -13 13 23 2 2 0.97638736D-01 0.32916146D+00 0.91839374D+06 0.91839374D+06 0.91839374D+06 0.10503339D+01  1  2 12  3  7  1       -2 0.214442100917D-02 0.100000000000D+01
-.366306187051D-03 0.000000000000D+00 -.207909307786D-05 0.220338736108D-05 0.000000000000D+00  7 21 2 23 -13 13 23 2 2 0.97645619D-01 0.32916146D+00 0.89067995D+06 0.89067995D+06 0.89067995D+06 0.10512273D+01  1  2  5  3  7  1       -2 -.216777315013D-02 0.100000000000D+01
  </mgrwgt>
  </event>
  <event>
  8     66 0.53686478E-06 0.27645689E+03 0.75467711E-02 0.10184705E+00
       -2 -1    0    0    0  501 0.00000000E+00 0.00000000E+00 0.55010203E+03 0.55010212E+03 0.32000000E+00 0.0000E+00 0.9000E+01
        2 -1    0    0  501    0 0.00000000E+00 0.00000000E+00 -.43966739E+03 0.43966751E+03 0.32000000E+00 0.0000E+00 0.9000E+01
       25  2    1    2    0    0 -.21590281E+03 0.12616933E+02 0.44370707E+03 0.58174996E+03 0.30786984E+03 0.0000E+00 0.0000E+00
       23  2    1    2    0    0 0.21590281E+03 -.12616933E+02 -.33327244E+03 0.40801967E+03 0.92931827E+02 0.0000E+00 0.0000E+00
       23  1    3    3    0    0 -.86567843E+02 0.76385407E+02 0.54675461E+02 0.15695024E+03 0.91188000E+02 0.0000E+00 0.9000E+01
      -13  1    4    4    0    0 0.17011431E+03 -.48627641E+02 -.24310307E+03 0.30067032E+03 0.10565837E+00 0.0000E+00 0.9000E+01
       13  1    4    4    0    0 0.45788496E+02 0.36010707E+02 -.90169366E+02 0.10734935E+03 0.10565837E+00 0.0000E+00 0.9000E+01
       23  1    3    3    0    0 -.12933497E+03 -.63768474E+02 0.38903161E+03 0.42479972E+03 0.91188000E+02 0.0000E+00 0.9000E+01
#aMCatNLO 1  0  0  2  1 0.87806841D+00 0.00000000D+00  -5  7  0 0.00000000D+00 0.00000000D+00 0.00000000D+00 0.00000000D+00 0.00000000D+00
  <mgrwgt>
 0.1288150935D-03    6    2    0
 0.491794702159938D+03 0.000000000000000D+00 0.000000000000000D+00 0.491794702159938D+03
 0.491794702159938D+03 0.000000000000000D+00 0.000000000000000D+00 -.491794702159938D+03
 0.151797610315699D+03 -.865678431808087D+02 0.763854070129232D+02 0.373970757686978D+02
 0.329854734071888D+03 0.170114473753951D+03 -.486277495856468D+02 -.278389212038267D+03
 0.118147550789151D+03 0.457883353923861D+02 0.360108163327899D+02 -.102788585001037D+03
 0.383789509143139D+03 -.129334965965529D+03 -.637684737600663D+02 0.343780721270607D+03
 0.000000000000000D+00 -.000000000000000D+00 0.000000000000000D+00 0.000000000000000D+00
 0.493235506160117D+03 0.000000000000000D+00 0.000000000000000D+00 0.493235506160117D+03
 0.491928696515143D+03 0.000000000000000D+00 0.000000000000000D+00 -.491928696515143D+03
 0.151707112064168D+03 -.865213825802122D+02 0.762581509558733D+02 0.373970757686978D+02
 0.329947726003302D+03 0.170215476526922D+03 -.489043972069509D+02 -.278389212038267D+03
 0.118131418604358D+03 0.458245050530763D+02 0.359117472646942D+02 -.102788585001037D+03
 0.383803539581905D+03 -.129217462574551D+03 -.640903167417296D+02 0.343780721270607D+03
 0.157440642152618D+01 -.301136425235355D+00 0.824815728112938D+00 0.130680964497393D+01
0.115225329483D-04 0.000000000000D+00 0.000000000000D+00 0.284077063381D-08 0.000000000000D+00  7 -2 2 23 -13 13 23 21 0 0.84631098D-01 0.67641154D-01 0.76428414D+05 0.76428414D+05 0.76428414D+05 0.11314301D+01  1  2  2  2  7  2        2 0.128281525430D-03 0.100000000000D+01
-.381907774660D-06 0.000000000000D+00 -.442495604739D-07 0.284077063381D-08 0.000000000000D+00  7 -2 2 23 -13 13 23 21 2 0.84631098D-01 0.67641154D-01 0.76428414D+05 0.76428414D+05 0.76428414D+05 0.11314301D+01  1  2  3  2  7  2        2 -.544289713825D-05 0.100000000000D+01
0.671811289158D-06 0.000000000000D+00 0.000000000000D+00 0.284077063381D-08 0.000000000000D+00  7 -2 2 23 -13 13 23 21 2 0.84631098D-01 0.67641154D-01 0.76428414D+05 0.76428414D+05 0.76428414D+05 0.11314301D+01  1  2 15  2  7  2        2 0.957456220015D-05 0.100000000000D+01
-.862106507317D-04 0.000000000000D+00 0.000000000000D+00 0.284077063381D-08 0.000000000000D+00  7 -2 2 23 -13 13 23 21 2 0.84631098D-01 0.67641154D-01 0.76428414D+05 0.76428414D+05 0.76428414D+05 0.11314301D+01  1  2  4  2  7  2        2 -.122866235067D-02 0.100000000000D+01
0.862110612440D-04 0.000000000000D+00 0.000000000000D+00 0.284077063381D-08 0.251500346490D-07  7 -2 2 23 -13 13 23 21 2 0.84879040D-01 0.67659583D-01 0.76693165D+05 0.76693165D+05 0.76693165D+05 0.11313036D+01  1  2 11  2  7  2        2 0.121983206237D-02 0.100000000000D+01
0.159553228357D-06 0.000000000000D+00 0.000000000000D+00 0.284077063381D-08 0.128616761979D-11  7 -2 21 23 -13 13 23 -2 2 0.84879040D-01 0.67659583D-01 0.76693165D+05 0.76693165D+05 0.76693165D+05 0.11313036D+01  1  2 11  4  7  2        2 0.523219129678D-05 0.100000000000D+01
  </mgrwgt>
  </event>
  <event>
  8     66 0.53686478E-06 0.12637955E+03 0.75467711E-02 0.10193844E+00
       -4 -1    0    0    0  501 0.00000000E+00 0.00000000E+00 0.54941550E+03 0.54941769E+03 0.15500000E+01 0.0000E+00 0.9000E+01
        4 -1    0    0  501    0 0.00000000E+00 0.00000000E+00 -.20623412E+03 0.20623994E+03 0.15500000E+01 0.0000E+00 0.9000E+01
       25  2    1    2    0    0 0.21704096E+02 -.13369654E+03 0.44866516E+03 0.55919403E+03 0.30504377E+03 0.0000E+00 0.0000E+00
       23  2    1    2    0    0 -.21704096E+02 0.13369654E+03 -.10548378E+03 0.19646360E+03 0.95526363E+02 0.0000E+00 0.0000E+00
       23  1    3    3    0    0 0.36883533E+01 -.11760147E+03 0.43995846E+03 0.46445926E+03 0.91188000E+02 0.0000E+00 0.9000E+01
      -13  1    4    4    0    0 -.51791241E+02 0.11629902E+03 -.98614494E+02 0.16103609E+03 0.10565837E+00 0.0000E+00 0.9000E+01
       13  1    4    4    0    0 0.30087144E+02 0.17397521E+02 -.68692890E+01 0.35427507E+02 0.10565837E+00 0.0000E+00 0.9000E+01
       23  1    3    3    0    0 0.18015743E+02 -.16095066E+02 0.87067061E+01 0.94734768E+02 0.91188000E+02 0.0000E+00 0.9000E+01
#aMCatNLO 1  0  0  2  1 0.13303702D+03 0.00000000D+00  -5  7  0 0.00000000D+00 0.00000000D+00 0.00000000D+00 0.00000000D+00 0.00000000D+00
  <mgrwgt>
 0.9024703900D-05    9    2    0
 0.336617362243663D+03 0.000000000000000D+00 0.000000000000000D+00 0.336617362243663D+03
 0.336617362243663D+03 0.000000000000000D+00 0.000000000000000D+00 -.336617362243663D+03
 0.297053344277128D+03 0.368835862966550D+01 -.117601473994712D+03 0.257063663957231D+03
 0.231020440298419D+03 -.517913385298352D+02 0.116299150817383D+03 -.192776058181816D+03
 0.432662239303978D+02 0.300872393306475D+02 0.173974029279990D+02 -.257692555968642D+02
 0.101894715981381D+03 0.180157405695223D+02 -.160950797506697D+02 -.385183501785510D+02
 0.000000000000000D+00 0.000000000000000D+00 -.000000000000000D+00 -.000000000000000D+00
 0.378765175042783D+03 0.000000000000000D+00 0.000000000000000D+00 0.378765175042783D+03
 0.467282365911102D+03 0.000000000000000D+00 0.000000000000000D+00 -.467282365911102D+03
 0.280523145441232D+03 -.142051176263863D+02 -.639880542784900D+02 0.257063663957231D+03
 0.260527520947258D+03 -.670196276479554D+02 0.161926989945268D+03 -.192776058181816D+03
 0.454816925796501D+02 0.273378048139812D+02 0.256354101556020D+02 -.257692555968642D+02
 0.997211235614631D+02 0.117696271941960D+02 0.261986938467310D+01 -.385183501785510D+02
 0.159794058424282D+03 0.421173132661645D+02 -.126194215207053D+03 -.885171908683197D+02
0.494890965444D-05 0.000000000000D+00 0.000000000000D+00 0.636444191700D-09 0.000000000000D+00  7 -4 4 23 -13 13 23 21 0 0.84526078D-01 0.31728942D-01 0.41058452D+05 0.41058452D+05 0.41058452D+05 0.11548988D+01  1  2  2  2  7  2        4 0.126804685422D-04 0.100000000000D+01
-.188817864604D-06 0.000000000000D+00 -.190051161509D-07 0.636444191700D-09 0.000000000000D+00  7 -4 4 23 -13 13 23 21 2 0.84526078D-01 0.31728942D-01 0.41058452D+05 0.41058452D+05 0.41058452D+05 0.11548988D+01  1  2  3  2  7  2        4 -.645292632627D-06 0.100000000000D+01
0.288782247534D-06 0.000000000000D+00 0.000000000000D+00 0.636444191700D-09 0.000000000000D+00  7 -4 4 23 -13 13 23 21 2 0.84526078D-01 0.31728942D-01 0.41058452D+05 0.41058452D+05 0.41058452D+05 0.11548988D+01  1  2 15  2  7  2        4 0.986924924490D-06 0.100000000000D+01
0.118247333606D-05 0.000000000000D+00 0.000000000000D+00 0.636444191700D-09 0.000000000000D+00  7 -4 4 23 -13 13 23 21 2 0.84526078D-01 0.45427372D-01 0.75637408D+05 0.75637408D+05 0.75637408D+05 0.11318111D+01  1  2 12  2  7  2        4 0.187057973121D-05 0.100000000000D+01
-.416093627981D-05 0.000000000000D+00 0.000000000000D+00 0.636444191700D-09 0.000000000000D+00  7 -4 4 23 -13 13 23 21 2 0.84526078D-01 0.31728942D-01 0.41058452D+05 0.41058452D+05 0.41058452D+05 0.11548988D+01  1  2  4  2  7  2        4 -.142201667825D-04 0.100000000000D+01
-.381274527205D-05 0.000000000000D+00 -.212837369232D-05 0.636444191700D-09 0.000000000000D+00  7 -4 4 23 -13 13 23 21 2 0.84526078D-01 0.48765661D-01 0.41058452D+05 0.41058452D+05 0.41058452D+05 0.11548988D+01  1  2  5  2  7  2        4 -.530040579765D-05 0.100000000000D+01
0.448898617443D-05 0.000000000000D+00 0.194586448729D-05 0.636444191700D-09 0.000000000000D+00  7 -4 4 23 -13 13 23 21 2 0.84526078D-01 0.31728942D-01 0.41058452D+05 0.41058452D+05 0.41058452D+05 0.11548988D+01  1  2  6  2  7  2        4 0.153412904674D-04 0.100000000000D+01
0.520145315920D-07 0.000000000000D+00 0.000000000000D+00 0.636444191700D-09 0.000000000000D+00  7 -4 21 23 -13 13 23 -4 2 0.84526078D-01 0.45427372D-01 0.75637408D+05 0.75637408D+05 0.75637408D+05 0.11318111D+01  1  2 12  4  7  2        4 0.176166431765D-05 0.100000000000D+01
-.111499019027D-06 0.000000000000D+00 -.106843418911D-06 0.636444191700D-09 0.000000000000D+00  7 -4 21 23 -13 13 23 -4 2 0.84526078D-01 0.48765661D-01 0.41058452D+05 0.41058452D+05 0.41058452D+05 0.11548988D+01  1  2  5  4  7  2        4 -.345035887021D-05 0.100000000000D+01
  </mgrwgt>
  </event>
  <event>
  8     66 0.53686478E-06 0.37564589E+03 0.75467711E-02 0.89024430E-01
       -2 -1    0    0    0  501 0.00000000E+00 0.00000000E+00 0.57120236E+03 0.57120245E+03 0.32000000E+00 0.0000E+00 0.9000E+01
        2 -1    0    0  501    0 0.00000000E+00 0.00000000E+00 -.36672475E+03 0.36672489E+03 0.32000000E+00 0.0000E+00 0.9000E+01
       25  2    1    2    0    0 0.86087104E+01 0.31385227E+03 -.14652934E+03 0.45825662E+03 0.29991818E+03 0.0000E+00 0.0000E+00
       23  2    1    2    0    0 -.86087104E+01 -.31385227E+03 0.35100696E+03 0.47967073E+03 0.91108516E+02 0.0000E+00 0.0000E+00
       23  1    3    3    0    0 0.12177943E+03 0.17922131E+03 -.64005957E+02 0.24364425E+03 0.91188000E+02 0.0000E+00 0.9000E+01
      -13  1    4    4    0    0 0.72459759E+01 -.49301066E+01 0.40285362E+02 0.41227802E+02 0.10565837E+00 0.0000E+00 0.9000E+01
       13  1    4    4    0    0 -.15854686E+02 -.30892217E+03 0.31072159E+03 0.43844292E+03 0.10565837E+00 0.0000E+00 0.9000E+01
       23  1    3    3    0    0 -.11317072E+03 0.13463097E+03 -.82523386E+02 0.21461237E+03 0.91188000E+02 0.0000E+00 0.9000E+01
#aMCatNLO 1  0  0  2  2 0.68120973D+03 0.00000000D+00  -5  7  0 0.00000000D+00 0.00000000D+00 0.00000000D+00 0.00000000D+00 0.00000000D+00
  <mgrwgt>
 0.4398146612D-03    3    2    0
 0.457683461363179D+03 0.000000000000000D+00 0.000000000000000D+00 0.457683461363179D+03
 0.457683461363179D+03 0.000000000000000D+00 0.000000000000000D+00 -.457683461363179D+03
 0.263947036196147D+03 0.121779425450383D+03 0.179221306850913D+03 -.120009504958380D+03
 0.332443751196306D+02 0.724600692514464D+01 -.492969783486927D+01 0.320683947211636D+02
 0.379839399602133D+03 -.158547173119683D+02 -.308922577001924D+03 0.220439195352272D+03
 0.238336111808448D+03 -.113170715063560D+03 0.134630967985880D+03 -.132498085115056D+03
 0.000000000000000D+00 0.000000000000000D+00 -.000000000000000D+00 0.000000000000000D+00
 0.106600321304633D+04 0.000000000000000D+00 0.000000000000000D+00 0.106600321304633D+04
 0.804649101783016D+03 0.000000000000000D+00 0.000000000000000D+00 -.804649101783016D+03
 0.266734280003400D+03 -.505024013648527D+02 0.214194189839408D+03 -.120009504958380D+03
 0.354254437281225D+02 -.150471499602086D+02 -.404229411367130D+00 0.320683947211636D+02
 0.439306218774813D+03 -.281784380282449D+03 -.254939361487204D+03 0.220439195352272D+03
 0.399561356068150D+03 -.320259485163146D+03 0.176669594222943D+03 -.132498085115056D+03
 0.729625016254859D+03 0.667593416770656D+03 -.135520193163779D+03 0.261354111263313D+03
0.353068024081D-04 0.000000000000D+00 0.000000000000D+00 0.158829094589D-05 0.000000000000D+00  7 -2 2 23 -13 13 23 21 0 0.87877304D-01 0.56419210D-01 0.14110984D+06 0.14110984D+06 0.14110984D+06 0.11096519D+01  1  2  2  2  7  2        2 0.433750608637D-03 0.100000000000D+01
-.186843451359D-05 0.000000000000D+00 -.135587417742D-06 0.158829094589D-05 0.000000000000D+00  7 -2 2 23 -13 13 23 21 2 0.87877304D-01 0.56419210D-01 0.14110984D+06 0.14110984D+06 0.14110984D+06 0.11096519D+01  1  2  3  2  7  2        2 -.282639672114D-04 0.100000000000D+01
0.226930835511D-05 0.000000000000D+00 0.000000000000D+00 0.158829094589D-05 0.000000000000D+00  7 -2 2 23 -13 13 23 21 2 0.87877304D-01 0.56419210D-01 0.14110984D+06 0.14110984D+06 0.14110984D+06 0.11096519D+01  1  2 15  2  7  2        2 0.343280197806D-04 0.100000000000D+01
  </mgrwgt>
  </event>
  <event>
  8     66 0.53686478E-06 0.19070713E+03 0.75467711E-02 0.97508070E-01
       -4 -1    0    0    0  501 0.00000000E+00 0.00000000E+00 0.76319837E+02 0.76335575E+02 0.15500000E+01 0.0000E+00 0.9000E+01
        4 -1    0    0  501    0 0.00000000E+00 0.00000000E+00 -.90696469E+03 0.90696601E+03 0.15500000E+01 0.0000E+00 0.9000E+01
       25  2    1    2    0    0 -.40942046E+02 0.63665176E+02 -.26733833E+03 0.40896773E+03 0.30009217E+03 0.0000E+00 0.0000E+00
       23  2    1    2    0    0 0.40942046E+02 -.63665176E+02 -.56330652E+03 0.57433386E+03 0.82556910E+02 0.0000E+00 0.0000E+00
       23  1    3    3    0    0 0.68526268E+02 0.91798300E+02 -.20259473E+03 0.24996531E+03 0.91188000E+02 0.0000E+00 0.9000E+01
      -13  1    4    4    0    0 -.10825243E+02 -.16543784E+02 -.26928335E+02 0.33407021E+02 0.10565837E+00 0.0000E+00 0.9000E+01
       13  1    4    4    0    0 0.51767289E+02 -.47121392E+02 -.53637818E+03 0.54092684E+03 0.10565837E+00 0.0000E+00 0.9000E+01
       23  1    3    3    0    0 -.10946831E+03 -.28133124E+02 -.64743598E+02 0.15900242E+03 0.91188000E+02 0.0000E+00 0.9000E+01
#aMCatNLO 1  0  0  2  2 0.30005299D+03 0.00000000D+00  -5  7  0 0.00000000D+00 0.00000000D+00 0.00000000D+00 0.00000000D+00 0.00000000D+00
  <mgrwgt>
 0.7473748456D-05    3    2    0
 0.263111735939225D+03 0.000000000000000D+00 0.000000000000000D+00 0.263111735939225D+03
 0.263111735939225D+03 0.000000000000000D+00 0.000000000000000D+00 -.263111735939225D+03
 0.147289155024540D+03 0.685262672192413D+02 0.917982996691902D+02 0.160020849480857D+02
 0.199177156559134D+02 -.108253447852588D+02 -.165437336800846D+02 0.241499133591098D+01
 0.164102462320434D+03 0.517673915948668D+02 -.471214435677059D+02 -.148422790915643D+03
 0.194914138877562D+03 -.109468314028849D+03 -.281331224213998D+02 0.130005714631647D+03
 0.000000000000000D+00 -.000000000000000D+00 0.000000000000000D+00 0.000000000000000D+00
 0.653632175671182D+03 0.000000000000000D+00 0.000000000000000D+00 0.653632175671182D+03
 0.367049425149092D+03 0.000000000000000D+00 0.000000000000000D+00 -.367049425149092D+03
 0.208514832603261D+03 0.162838589548392D+03 0.916008247930700D+02 0.160020849480857D+02
 0.167752731459293D+02 -.109920031405243D+01 -.165640986666223D+02 0.241499133591098D+01
 0.218479299145381D+03 0.153177650218396D+03 -.473337803839823D+02 -.148422790915643D+03
 0.161988746677018D+03 -.148647088049563D+02 -.283312071971825D+02 0.130005714631647D+03
 0.414923449248684D+03 -.300052330647779D+03 0.628261454717208D+00 0.286582750522089D+03
0.194081503031D-05 0.000000000000D+00 0.000000000000D+00 0.997504371389D-08 0.000000000000D+00  7 -4 4 23 -13 13 23 21 0 0.11742826D-01 0.13953434D+00 0.36369209D+05 0.36369209D+05 0.36369209D+05 0.11596568D+01  1  2  2  2  7  2        4 0.736411946769D-05 0.100000000000D+01
-.942438973383D-07 0.000000000000D+00 -.745324074474D-08 0.997504371389D-08 0.000000000000D+00  7 -4 4 23 -13 13 23 21 2 0.11742826D-01 0.13953434D+00 0.36369209D+05 0.36369209D+05 0.36369209D+05 0.11596568D+01  1  2  3  2  7  2        4 -.480893454710D-06 0.100000000000D+01
0.115728621275D-06 0.000000000000D+00 0.000000000000D+00 0.997504371389D-08 0.000000000000D+00  7 -4 4 23 -13 13 23 21 2 0.11742826D-01 0.13953434D+00 0.36369209D+05 0.36369209D+05 0.36369209D+05 0.11596568D+01  1  2 15  2  7  2        4 0.590522442998D-06 0.100000000000D+01
  </mgrwgt>
  </event>
  <event>
  9     66 -.53686478E-06 0.21882080E+03 0.75467711E-02 0.10479151E+00
       -2 -1    0    0    0  501 0.00000000E+00 0.00000000E+00 0.15172219E+03 0.15172253E+03 0.32000000E+00 0.0000E+00 0.9000E+01
        2 -1    0    0  502    0 0.00000000E+00 0.00000000E+00 -.57725903E+03 0.57725912E+03 0.32000000E+00 0.0000E+00 0.9000E+01
       25  2    1    2    0    0 -.81340849E+02 -.10688933E+03 -.44348466E+03 0.55255029E+03 0.30098425E+03 0.0000E+00 0.0000E+00
       23  2    1    2    0    0 0.79479291E+02 0.11477710E+03 0.23896213E+02 0.16635027E+03 0.87239008E+02 0.0000E+00 0.0000E+00
       23  1    3    3    0    0 -.11910496E+03 -.18891069E+02 -.37350304E+03 0.40294247E+03 0.91188000E+02 0.0000E+00 0.9000E+01
      -13  1    4    4    0    0 0.40197210E+01 -.86797745E+01 0.19351748E+02 0.21586986E+02 0.10565837E+00 0.0000E+00 0.9000E+01
       13  1    4    4    0    0 0.75459570E+02 0.12345687E+03 0.45444651E+01 0.14476329E+03 0.10565837E+00 0.0000E+00 0.9000E+01
       23  1    3    3    0    0 0.37764107E+02 -.87998260E+02 -.69981622E+02 0.14960782E+03 0.91188000E+02 0.0000E+00 0.9000E+01
       21  1    1    2  502  501 0.18615584E+01 -.78877685E+01 -.59483924E+01 0.10081079E+02 0.75000000E+00 0.0000E+00 0.9000E+01
#aMCatNLO 2  0  0  2  1 0.81044612D+01 0.00000000D+00  -5  7  0 0.00000000D+00 0.00000000D+00 0.00000000D+00 0.00000000D+00 0.00000000D+00
  <mgrwgt>
 -.9353492422D-04    3    2    0
 0.291846652309964D+03 0.000000000000000D+00 0.000000000000000D+00 0.291846652309964D+03
 0.291846652309964D+03 0.000000000000000D+00 0.000000000000000D+00 -.291846652309964D+03
 0.227662875029810D+03 -.118378746526624D+03 -.219681502853942D+02 -.170349658252263D+03
 0.406283464571962D+02 0.414897170541272D+01 -.922806847344048D+01 0.393483331525383D+02
 0.180135709828090D+03 0.760363986558689D+02 0.121013383841310D+03 0.109649901805663D+03
 0.135266373304832D+03 0.381933761653420D+02 -.898171650824754D+02 0.213514232940617D+02
 0.000000000000000D+00 0.000000000000000D+00 -.000000000000000D+00 -.000000000000000D+00
 0.295887469389295D+03 0.000000000000000D+00 0.000000000000000D+00 0.295887469389295D+03
 0.295966947790478D+03 0.000000000000000D+00 0.000000000000000D+00 -.295966947790478D+03
 0.227765493914711D+03 -.119104954640755D+03 -.188910716364454D+02 -.170349658252263D+03
 0.404943264142734D+02 0.401961669088907D+01 -.867996725344630D+01 0.393483331525383D+02
 0.181545892352478D+03 0.754596754384630D+02 0.123457067220909D+03 0.109649901805663D+03
 0.133943853613183D+03 0.377641041556774D+02 -.879982598543099D+02 0.213514232940617D+02
 0.810485088512789D+01 0.186155835572578D+01 -.788776847670690D+01 -.794784011837468D-01
-.152163902790D-05 0.000000000000D+00 0.000000000000D+00 0.842934990228D-08 0.000000000000D+00  7 -2 2 23 -13 13 23 21 2 0.23021790D-01 0.89401714D-01 0.49680451D+05 0.49680451D+05 0.49680451D+05 0.11475404D+01  1  2 13  2  7  2        2 -.199096332574D-03 0.100000000000D+01
-.815821090308D-05 0.000000000000D+00 0.000000000000D+00 0.842934990228D-08 0.000000000000D+00  7 -2 2 23 -13 13 23 21 2 0.23021790D-01 0.87567637D-01 0.47882543D+05 0.47882543D+05 0.47882543D+05 0.11489521D+01  1  2  8  2  7  2        2 -.109532945123D-02 0.100000000000D+01
0.932060282778D-05 0.000000000000D+00 0.000000000000D+00 0.842934990228D-08 0.901492712453D-09  7 -2 2 23 -13 13 23 21 2 0.23340543D-01 0.88803918D-01 0.49680451D+05 0.49680451D+05 0.49680451D+05 0.11475404D+01  1  2  1  2  7  2        2 0.120089085958D-02 0.100000000000D+01
  </mgrwgt>
  </event>
  <event>
  8     66 0.53686478E-06 0.33776020E+03 0.75467711E-02 0.88619964E-01
       -2 -1    0    0    0  501 0.00000000E+00 0.00000000E+00 0.56044733E+03 0.56044742E+03 0.32000000E+00 0.0000E+00 0.9000E+01
        2 -1    0    0  501    0 0.00000000E+00 0.00000000E+00 -.44706830E+03 0.44706841E+03 0.32000000E+00 0.0000E+00 0.9000E+01
       25  2    1    2    0    0 -.28618988E+03 0.21572383E+02 0.40926622E+03 0.58333923E+03 0.30069220E+03 0.0000E+00 0.0000E+00
       23  2    1    2    0    0 0.28618988E+03 -.21572383E+02 -.29588719E+03 0.42417661E+03 0.10003275E+03 0.0000E+00 0.0000E+00
       23  1    3    3    0    0 -.64536911E+02 0.63974815E+02 0.29186151E+02 0.13200331E+03 0.91188000E+02 0.0000E+00 0.9000E+01
      -11  1    4    4    0    0 0.12242284E+03 0.39443812E+02 -.13813351E+03 0.18874330E+03 0.51099893E-03 0.0000E+00 0.9000E+01
       11  1    4    4    0    0 0.16376704E+03 -.61016195E+02 -.15775368E+03 0.23543331E+03 0.51099893E-03 0.0000E+00 0.9000E+01
       23  1    3    3    0    0 -.22165297E+03 -.42402432E+02 0.38008007E+03 0.45133592E+03 0.91188000E+02 0.0000E+00 0.9000E+01
#aMCatNLO 1  0  0  2  1 0.75989627D+03 0.00000000D+00  -5  7  0 0.00000000D+00 0.00000000D+00 0.00000000D+00 0.00000000D+00 0.00000000D+00
  <mgrwgt>
 0.2127673662D-03    3    2    0
 0.500558027282853D+03 0.000000000000000D+00 0.000000000000000D+00 0.500558027282853D+03
 0.500558027282853D+03 0.000000000000000D+00 0.000000000000000D+00 -.500558027282853D+03
 0.129541747220674D+03 -.645369110074984D+02 0.639748149914398D+02 0.144230056994473D+02
 0.205593850812347D+03 0.122422835723429D+03 0.394438122346332D+02 -.160392226936603D+03
 0.254804371508784D+03 0.163767042381673D+03 -.610161951068394D+02 -.185425584815661D+03
 0.411176085023900D+03 -.221652967097603D+03 -.424024321192336D+02 0.331394806052817D+03
 0.000000000000000D+00 -.000000000000000D+00 0.000000000000000D+00 0.000000000000000D+00
 0.116509755479407D+04 0.000000000000000D+00 0.000000000000000D+00 0.116509755479407D+04
 0.897418054064280D+03 0.000000000000000D+00 0.000000000000000D+00 -.897418054064280D+03
 0.938235750391148D+02 -.760022007870613D+01 0.148938057751990D+02 0.144230056994473D+02
 0.308948245664528D+03 0.253581620894580D+03 -.736187040227156D+02 -.160392226936603D+03
 0.444287296000807D+03 0.341968232258376D+03 -.214630571004133D+03 -.185425584815661D+03
 0.409792383986095D+03 -.123849056572491D+02 -.222797314306264D+03 0.331394806052817D+03
 0.805664108167804D+03 -.575564727417001D+03 0.496152783557914D+03 0.267679500729789D+03
0.201921988261D-04 0.000000000000D+00 0.000000000000D+00 0.961893594945D-08 0.000000000000D+00  7 -2 2 23 -11 11 23 21 0 0.86222682D-01 0.68779754D-01 0.11408195D+06 0.11408195D+06 0.11408195D+06 0.11170568D+01  1  2  2  2  7  2        2 0.209505256553D-03 0.100000000000D+01
-.910715483064D-06 0.000000000000D+00 -.775433602204D-07 0.961893594945D-08 0.000000000000D+00  7 -2 2 23 -11 11 23 21 2 0.86222682D-01 0.68779754D-01 0.11408195D+06 0.11408195D+06 0.11408195D+06 0.11170568D+01  1  2  3  2  7  2        2 -.117908335687D-04 0.100000000000D+01
0.116267848175D-05 0.000000000000D+00 0.000000000000D+00 0.961893594945D-08 0.000000000000D+00  7 -2 2 23 -11 11 23 21 2 0.86222682D-01 0.68779754D-01 0.11408195D+06 0.11408195D+06 0.11408195D+06 0.11170568D+01  1  2 15  2  7  2        2 0.150529432377D-04 0.100000000000D+01
  </mgrwgt>
  </event>
  <event>
  8     66 -.53686478E-06 0.29767546E+03 0.75467711E-02 0.10090459E+00
       -2 -1    0    0    0  501 0.00000000E+00 0.00000000E+00 0.23003091E+03 0.23003113E+03 0.32000000E+00 0.0000E+00 0.9000E+01
        2 -1    0    0  501    0 0.00000000E+00 0.00000000E+00 -.16298551E+04 0.16298551E+04 0.32000000E+00 0.0000E+00 0.9000E+01
       25  2    1    2    0    0 -.16234635E+03 -.15416880E+03 -.15340541E+04 0.15797167E+04 0.30341172E+03 0.0000E+00 0.0000E+00
       23  2    1    2    0    0 0.16234635E+03 0.15416880E+03 0.13422986E+03 0.28016956E+03 0.10174955E+03 0.0000E+00 0.0000E+00
       23  1    3    3    0    0 -.21352342E+03 -.91808538E+02 -.89521376E+03 0.92937828E+03 0.91188000E+02 0.0000E+00 0.9000E+01
      -11  1    4    4    0    0 0.11474209E+03 0.11170878E+03 0.14433447E+03 0.21558534E+03 0.51099893E-03 0.0000E+00 0.9000E+01
       11  1    4    4    0    0 0.47604252E+02 0.42460023E+02 -.10104611E+02 0.64584220E+02 0.51099893E-03 0.0000E+00 0.9000E+01
       23  1    3    3    0    0 0.51177072E+02 -.62360265E+02 -.63884030E+03 0.65033843E+03 0.91188000E+02 0.0000E+00 0.9000E+01
#aMCatNLO 1  0  0  2  1 0.75989627D+03 0.00000000D+00  -5  7  0 0.00000000D+00 0.00000000D+00 0.00000000D+00 0.00000000D+00 0.00000000D+00
  <mgrwgt>
 -.8184994067D-05    1    2    0
 0.612304895088722D+03 0.000000000000000D+00 0.000000000000000D+00 0.612304895088722D+03
 0.612304895088722D+03 0.000000000000000D+00 0.000000000000000D+00 -.612304895088722D+03
 0.388202034728753D+03 -.213523418068608D+03 -.918085375863766D+02 -.297261687383513D+03
 0.492407539680732D+03 0.114742094649017D+03 0.111708779045645D+03 0.465639974158275D+03
 0.865374642790628D+02 0.476042518205260D+02 0.424600231879900D+02 0.584783238758891D+02
 0.257462751488896D+03 0.511770715990644D+02 -.623602646472585D+02 -.226856610650651D+03
 0.000000000000000D+00 -.000000000000000D+00 0.000000000000000D+00 0.000000000000000D+00
 0.967381613765323D+03 0.000000000000000D+00 0.000000000000000D+00 0.967381613765323D+03
 0.796393086399836D+03 0.000000000000000D+00 0.000000000000000D+00 -.796393086399836D+03
 0.348127177154988D+03 -.921987954335393D+02 -.126539130170915D+03 -.297261687383513D+03
 0.550310082839107D+03 0.286550193561069D+03 0.625267007795813D+02 0.465639974158275D+03
 0.103810723024447D+03 0.789678343338242D+02 0.334818307765671D+02 0.584783238758891D+02
 0.296481739723691D+03 0.142450248423337D+03 -.884882793019202D+02 -.226856610650651D+03
 0.465044977422927D+03 -.415769480884691D+03 0.119018877916687D+03 0.170988527365487D+03
-.606919076970D-06 0.000000000000D+00 0.000000000000D+00 0.187599372268D-08 0.000000000000D+00  7 -2 2 23 -11 11 23 21 2 0.35389390D-01 0.25074696D+00 0.88610679D+05 0.88610679D+05 0.88610679D+05 0.11260571D+01  1  2 14  2  7  2        2 -.818499406693D-05 0.100000000000D+01
  </mgrwgt>
  </event>
  <event>
  8     66 0.53686478E-06 0.26037224E+03 0.75467711E-02 0.95543643E-01
       -2 -1    0    0    0  501 0.00000000E+00 0.00000000E+00 0.44905085E+02 0.44906226E+02 0.32000000E+00 0.0000E+00 0.9000E+01
        2 -1    0    0  501    0 0.00000000E+00 0.00000000E+00 -.36149094E+04 0.36149094E+04 0.32000000E+00 0.0000E+00 0.9000E+01
       25  2    1    2    0    0 0.39029219E+02 0.30893442E+03 -.13795778E+04 0.14453657E+04 0.29813327E+03 0.0000E+00 0.0000E+00
       23  2    1    2    0    0 -.39029219E+02 -.30893442E+03 -.21904265E+04 0.22144499E+04 0.94107923E+02 0.0000E+00 0.0000E+00
       23  1    3    3    0    0 0.12479417E+03 0.22488219E+03 -.75354931E+03 0.80143458E+03 0.91188000E+02 0.0000E+00 0.9000E+01
      -11  1    4    4    0    0 0.23048841E+02 -.22715214E+02 -.20503185E+03 0.20756996E+03 0.51099893E-03 0.0000E+00 0.9000E+01
       11  1    4    4    0    0 -.62078060E+02 -.28621921E+03 -.19853947E+04 0.20068800E+04 0.51099893E-03 0.0000E+00 0.9000E+01
       23  1    3    3    0    0 -.85764946E+02 0.84052236E+02 -.62602847E+03 0.64393113E+03 0.91188000E+02 0.0000E+00 0.9000E+01
#aMCatNLO 1  0  0  1  2 0.15930374D+03 0.00000000D+00  -5  7  0 0.00000000D+00 0.00000000D+00 0.00000000D+00 0.00000000D+00 0.00000000D+00
  <mgrwgt>
 0.4881774650D-03    9    2    0
 0.402901883579515D+03 0.000000000000000D+00 0.000000000000000D+00 0.402901883579515D+03
 0.402901883579515D+03 0.000000000000000D+00 0.000000000000000D+00 -.402901883579515D+03
 0.301473576895268D+03 0.124794165478579D+03 0.224882186562766D+03 0.128161946970547D+03
 0.343795954756922D+02 0.230488408390595D+02 -.227152138709941D+02 -.116071779448295D+02
 0.318865567663549D+03 -.620780600929237D+02 -.286219209131120D+03 -.126095713729107D+03
 0.151085027124521D+03 -.857649462247144D+02 0.840522364393478D+02 0.954094470338956D+01
 0.000000000000000D+00 0.000000000000000D+00 -.000000000000000D+00 0.000000000000000D+00
 0.583392414947910D+03 0.000000000000000D+00 0.000000000000000D+00 0.583392414947910D+03
 0.447438057260539D+03 0.000000000000000D+00 0.000000000000000D+00 -.447438057260539D+03
 0.314668734202407D+03 0.768431146991786D+02 0.261478129128600D+03 0.128161946970547D+03
 0.286982755434279D+02 0.181398285186659D+02 -.189686863181658D+02 -.116071779448295D+02
 0.300463779888442D+03 -.110277140822717D+03 -.249433971655755D+03 -.126095713729107D+03
 0.177568864277269D+03 -.111342315529833D+03 0.103572724997179D+03 0.954094470338956D+01
 0.209430818296902D+03 0.126636513134705D+03 -.966481961518575D+02 0.135954357687371D+03
0.430550724848D-04 0.000000000000D+00 0.000000000000D+00 0.123156736959D-07 0.000000000000D+00  7 -2 2 23 -11 11 23 21 0 0.69085635D-02 0.55614000D+00 0.14021034D+06 0.14021034D+06 0.14021034D+06 0.11098724D+01  1  2  2  1  7  1       -2 0.417995677117D-03 0.100000000000D+01
-.237634676196D-05 0.000000000000D+00 -.165342815002D-06 0.123156736959D-07 0.000000000000D+00  7 -2 2 23 -11 11 23 21 2 0.69085635D-02 0.55614000D+00 0.14021034D+06 0.14021034D+06 0.14021034D+06 0.11098724D+01  1  2  3  1  7  1       -2 -.284186471057D-04 0.100000000000D+01
0.275759733485D-05 0.000000000000D+00 0.000000000000D+00 0.123156736959D-07 0.000000000000D+00  7 -2 2 23 -11 11 23 21 2 0.69085635D-02 0.55614000D+00 0.14021034D+06 0.14021034D+06 0.14021034D+06 0.11098724D+01  1  2 15  1  7  1       -2 0.329780092591D-04 0.100000000000D+01
0.259233911548D-04 0.000000000000D+00 0.000000000000D+00 0.123156736959D-07 0.000000000000D+00  7 -2 2 23 -11 11 23 21 2 0.10250150D-01 0.55614000D+00 0.21296963D+06 0.21296963D+06 0.21296963D+06 0.10957357D+01  1  2 12  1  7  1       -2 0.161167027939D-03 0.100000000000D+01
-.332118910552D-04 0.000000000000D+00 0.000000000000D+00 0.123156736959D-07 0.000000000000D+00  7 -2 2 23 -11 11 23 21 2 0.69085635D-02 0.55614000D+00 0.14021034D+06 0.14021034D+06 0.14021034D+06 0.11098724D+01  1  2  4  1  7  1       -2 -.397179833650D-03 0.100000000000D+01
-.371355647041D-04 0.000000000000D+00 -.149871953357D-04 0.123156736959D-07 0.000000000000D+00  7 -2 2 23 -11 11 23 21 2 0.12036242D-01 0.55614000D+00 0.14021034D+06 0.14021034D+06 0.14021034D+06 0.11098724D+01  1  2  5  1  7  1       -2 -.188853738197D-03 0.100000000000D+01
0.410170584488D-04 0.000000000000D+00 0.129411886868D-04 0.123156736959D-07 0.000000000000D+00  7 -2 2 23 -11 11 23 21 2 0.69085635D-02 0.55614000D+00 0.14021034D+06 0.14021034D+06 0.14021034D+06 0.11098724D+01  1  2  6  1  7  1       -2 0.490521555201D-03 0.100000000000D+01
0.122155821113D-05 0.000000000000D+00 0.000000000000D+00 0.123156736959D-07 0.000000000000D+00  7 21 2 23 -11 11 23 2 2 0.10250150D-01 0.55614000D+00 0.21296963D+06 0.21296963D+06 0.21296963D+06 0.10957357D+01  1  2 12  3  7  1       -2 0.108598836843D-03 0.100000000000D+01
-.152494438170D-05 0.000000000000D+00 -.920202802126D-06 0.123156736959D-07 0.000000000000D+00  7 21 2 23 -11 11 23 2 2 0.12036242D-01 0.55614000D+00 0.14021034D+06 0.14021034D+06 0.14021034D+06 0.11098724D+01  1  2  5  3  7  1       -2 -.108631422379D-03 0.100000000000D+01
  </mgrwgt>
  </event>
  <event>
  8     66 0.53686478E-06 0.10649283E+03 0.75467711E-02 0.10150112E+00
       -2 -1    0    0    0  501 0.00000000E+00 0.00000000E+00 0.52793011E+02 0.52793981E+02 0.32000000E+00 0.0000E+00 0.9000E+01
        2 -1    0    0  501    0 0.00000000E+00 0.00000000E+00 -.17451250E+04 0.17451250E+04 0.32000000E+00 0.0000E+00 0.9000E+01
       25  2    1    2    0    0 0.14831642E+03 -.27063592E+02 -.56844882E+03 0.66015747E+03 0.29990602E+03 0.0000E+00 0.0000E+00
       23  2    1    2    0    0 -.14831642E+03 0.27063592E+02 -.11238832E+04 0.11377615E+04 0.93047057E+02 0.0000E+00 0.0000E+00
       23  1    3    3    0    0 0.57651904E+02 0.10521034E+03 -.27357770E+03 0.31233470E+03 0.91188000E+02 0.0000E+00 0.9000E+01
      -13  1    4    4    0    0 -.14891240E+02 0.27446712E+02 -.43222655E+03 0.43335306E+03 0.10565837E+00 0.0000E+00 0.9000E+01
       13  1    4    4    0    0 -.13342518E+03 -.38311962E+00 -.69165662E+03 0.70440849E+03 0.10565837E+00 0.0000E+00 0.9000E+01
       23  1    3    3    0    0 0.90664517E+02 -.13227393E+03 -.29487112E+03 0.34782276E+03 0.91188000E+02 0.0000E+00 0.9000E+01
#aMCatNLO 1  0  0  2  1 0.62697513D+02 0.00000000D+00  -5  7  0 0.00000000D+00 0.00000000D+00 0.00000000D+00 0.00000000D+00 0.00000000D+00
  <mgrwgt>
 0.3183690155D-03    9    2    0
 0.303531386112914D+03 0.000000000000000D+00 0.000000000000000D+00 0.303531386112914D+03
 0.303531386112914D+03 0.000000000000000D+00 0.000000000000000D+00 -.303531386112914D+03
 0.162369050105552D+03 0.576519046150422D+02 0.105210335927065D+03 0.604607326828869D+02
 0.785138267976453D+02 -.148910887409900D+02 0.274467466362198D+02 -.720371610601484D+02
 0.158067426234223D+03 -.133425333735553D+03 -.383154506712774D+00 -.847516651546859D+02
 0.208112469088407D+03 0.906645178615007D+02 -.132273928056572D+03 0.963280935319475D+02
 0.000000000000000D+00 0.000000000000000D+00 0.000000000000000D+00 -.000000000000000D+00
 0.313506384575458D+03 0.000000000000000D+00 0.000000000000000D+00 0.313506384575458D+03
 0.422692915984147D+03 0.000000000000000D+00 0.000000000000000D+00 -.422692915984147D+03
 0.154967821698606D+03 0.417345129130066D+02 0.101501254442364D+03 0.604607326828869D+02
 0.797859770087128D+02 -.228312942683710D+02 0.255965145217105D+02 -.720371610601484D+02
 0.172337844739377D+03 -.149998227041660D+03 -.424498142284910D+01 -.847516651546859D+02
 0.203200243711343D+03 0.700333648396705D+02 -.137081413423130D+03 0.963280935319475D+02
 0.125907413401567D+03 0.610616435573536D+02 0.142286258819044D+02 -.109186531408688D+03
0.247557573991D-05 0.000000000000D+00 0.000000000000D+00 0.139101235805D-06 0.000000000000D+00  7 -2 2 23 -13 13 23 21 0 0.81220786D-02 0.26848085D+00 0.62455313D+05 0.62455313D+05 0.62455313D+05 0.11388943D+01  1  2  2  2  7  2        2 0.253991236801D-03 0.100000000000D+01
-.131213746364D-06 0.000000000000D+00 -.950686267533D-08 0.139101235805D-06 0.000000000000D+00  7 -2 2 23 -13 13 23 21 2 0.81220786D-02 0.26848085D+00 0.62455313D+05 0.62455313D+05 0.62455313D+05 0.11388943D+01  1  2  3  2  7  2        2 -.174617857677D-04 0.100000000000D+01
0.154623231487D-06 0.000000000000D+00 0.000000000000D+00 0.139101235805D-06 0.000000000000D+00  7 -2 2 23 -13 13 23 21 2 0.81220786D-02 0.26848085D+00 0.62455313D+05 0.62455313D+05 0.62455313D+05 0.11388943D+01  1  2 15  2  7  2        2 0.205770951425D-04 0.100000000000D+01
0.533051302510D-05 0.000000000000D+00 0.000000000000D+00 0.139101235805D-06 0.000000000000D+00  7 -2 2 23 -13 13 23 21 2 0.81220786D-02 0.37698356D+00 0.80843225D+05 0.80843225D+05 0.80843225D+05 0.11293807D+01  1  2 12  2  7  2        2 0.288205830667D-03 0.100000000000D+01
-.541271353092D-05 0.000000000000D+00 0.000000000000D+00 0.139101235805D-06 0.000000000000D+00  7 -2 2 23 -13 13 23 21 2 0.81220786D-02 0.26848085D+00 0.62455313D+05 0.62455313D+05 0.62455313D+05 0.11388943D+01  1  2  4  2  7  2        2 -.720318158104D-03 0.100000000000D+01
-.633261156668D-05 0.000000000000D+00 -.942169110168D-06 0.139101235805D-06 0.000000000000D+00  7 -2 2 23 -13 13 23 21 2 0.81220786D-02 0.37742298D+00 0.62455313D+05 0.62455313D+05 0.62455313D+05 0.11388943D+01  1  2  5  2  7  2        2 -.349448774710D-03 0.100000000000D+01
0.633465194738D-05 0.000000000000D+00 0.890045746031D-06 0.139101235805D-06 0.000000000000D+00  7 -2 2 23 -13 13 23 21 2 0.81220786D-02 0.26848085D+00 0.62455313D+05 0.62455313D+05 0.62455313D+05 0.11388943D+01  1  2  6  2  7  2        2 0.843008741717D-03 0.100000000000D+01
0.225231868532D-06 0.000000000000D+00 0.000000000000D+00 0.139101235805D-06 0.000000000000D+00  7 -2 21 23 -13 13 23 -2 2 0.81220786D-02 0.37698356D+00 0.80843225D+05 0.80843225D+05 0.80843225D+05 0.11293807D+01  1  2 12  4  7  2        2 0.161915583230D-05 0.100000000000D+01
-.242634606087D-06 0.000000000000D+00 -.399081888535D-07 0.139101235805D-06 0.000000000000D+00  7 -2 21 23 -13 13 23 -2 2 0.81220786D-02 0.37742298D+00 0.62455313D+05 0.62455313D+05 0.62455313D+05 0.11388943D+01  1  2  5  4  7  2        2 -.180432602797D-05 0.100000000000D+01
  </mgrwgt>
  </event>
  <event>
  8     66 0.53686478E-06 0.24527337E+03 0.75467711E-02 0.98155660E-01
       -2 -1    0    0    0  501 0.00000000E+00 0.00000000E+00 0.92296961E+02 0.92297515E+02 0.32000000E+00 0.0000E+00 0.9000E+01
        2 -1    0    0  501    0 0.00000000E+00 0.00000000E+00 -.73999402E+03 0.73999409E+03 0.32000000E+00 0.0000E+00 0.9000E+01
       25  2    1    2    0    0 -.14175068E+03 0.21157365E+02 -.35865434E+03 0.49743229E+03 0.31347258E+03 0.0000E+00 0.0000E+00
       23  2    1    2    0    0 0.14175068E+03 -.21157365E+02 -.28904272E+03 0.33485932E+03 0.89689351E+02 0.0000E+00 0.0000E+00
       23  1    3    3    0    0 -.18296804E+03 -.47389983E+02 -.15690061E+03 0.26202322E+03 0.91188000E+02 0.0000E+00 0.9000E+01
      -13  1    4    4    0    0 0.11340898E+03 -.45343607E+02 -.16464462E+03 0.20500122E+03 0.10565837E+00 0.0000E+00 0.9000E+01
       13  1    4    4    0    0 0.28341696E+02 0.24186242E+02 -.12439810E+03 0.12985809E+03 0.10565837E+00 0.0000E+00 0.9000E+01
       23  1    3    3    0    0 0.41217368E+02 0.68547348E+02 -.20175373E+03 0.23540907E+03 0.91188000E+02 0.0000E+00 0.9000E+01
#aMCatNLO 1  0  0  1  2 0.20979983D+03 0.00000000D+00  -5  7  0 0.00000000D+00 0.00000000D+00 0.00000000D+00 0.00000000D+00 0.00000000D+00
  <mgrwgt>
 0.1471510044D-03    3    2    0
 0.261341651125329D+03 0.000000000000000D+00 0.000000000000000D+00 0.261341651125329D+03
 0.261341651125329D+03 0.000000000000000D+00 0.000000000000000D+00 -.261341651125329D+03
 0.222803173502606D+03 -.182967930699700D+03 -.473892528911080D+02 0.748531751145178D+02
 0.122409710450165D+03 0.113410052471560D+03 -.453438453568571D+02 -.813835973305852D+01
 0.526276927035800D+02 0.283419895633093D+02 0.241862767859959D+02 -.371675891352522D+02
 0.124842725594307D+03 0.412158886648303D+02 0.685468214619692D+02 -.295472262462071D+02
 0.000000000000000D+00 -.000000000000000D+00 0.000000000000000D+00 -.000000000000000D+00
 0.368630271602592D+03 0.000000000000000D+00 0.000000000000000D+00 0.368630271602592D+03
 0.408059973514293D+03 0.000000000000000D+00 0.000000000000000D+00 -.408059973514293D+03
 0.227307335850764D+03 -.147299869402363D+03 -.126700924372690D+03 0.748531751145178D+02
 0.167172620423129D+03 0.136357395654133D+03 -.963696672735423D+02 -.813835973305852D+01
 0.525209619882700D+02 0.366742737089723D+02 0.565856995766411D+01 -.371675891352522D+02
 0.116216448905149D+03 0.603181163037361D+02 0.260710168357047D+02 -.295472262462071D+02
 0.213472877949572D+03 -.860499162644777D+02 0.191341004852863D+03 -.394297019117011D+02
0.886900534185D-06 0.000000000000D+00 0.000000000000D+00 0.165260644004D-09 0.000000000000D+00  7 -2 2 23 -13 13 23 21 0 0.14199580D-01 0.11384528D+00 0.60159028D+05 0.60159028D+05 0.60159028D+05 0.11402959D+01  1  2  2  1  7  1       -2 0.145605135332D-03 0.100000000000D+01
-.490310294401D-07 0.000000000000D+00 -.340593157754D-08 0.165260644004D-09 0.000000000000D+00  7 -2 2 23 -13 13 23 21 2 0.14199580D-01 0.11384528D+00 0.60159028D+05 0.60159028D+05 0.60159028D+05 0.11402959D+01  1  2  3  1  7  1       -2 -.104666542462D-04 0.100000000000D+01
0.562726513752D-07 0.000000000000D+00 0.000000000000D+00 0.165260644004D-09 0.000000000000D+00  7 -2 2 23 -13 13 23 21 2 0.14199580D-01 0.11384528D+00 0.60159028D+05 0.60159028D+05 0.60159028D+05 0.11402959D+01  1  2 15  1  7  1       -2 0.120125233385D-04 0.100000000000D+01
  </mgrwgt>
  </event>
  <event>
  8     66 0.53686478E-06 0.38783565E+03 0.75467711E-02 0.93751168E-01
       -2 -1    0    0    0  501 0.00000000E+00 0.00000000E+00 0.63396816E+02 0.63397624E+02 0.32000000E+00 0.0000E+00 0.9000E+01
        2 -1    0    0  501    0 0.00000000E+00 0.00000000E+00 -.32076440E+04 0.32076441E+04 0.32000000E+00 0.0000E+00 0.9000E+01
       25  2    1    2    0    0 -.20803637E+03 -.25372679E+03 -.92789086E+03 0.10286622E+04 0.29917904E+03 0.0000E+00 0.0000E+00
       23  2    1    2    0    0 0.20803637E+03 0.25372679E+03 -.22163564E+04 0.22423795E+04 0.91507869E+02 0.0000E+00 0.0000E+00
       23  1    3    3    0    0 -.23971098E+03 -.19555324E+03 -.76865644E+03 0.83357687E+03 0.91188000E+02 0.0000E+00 0.9000E+01
      -11  1    4    4    0    0 0.21736592E+03 0.23947422E+03 -.20882508E+04 0.21131463E+04 0.51099893E-03 0.0000E+00 0.9000E+01
       11  1    4    4    0    0 -.93295456E+01 0.14252570E+02 -.12810554E+03 0.12923314E+03 0.51099893E-03 0.0000E+00 0.9000E+01
       23  1    3    3    0    0 0.31674606E+02 -.58173554E+02 -.15923443E+03 0.19508536E+03 0.91188000E+02 0.0000E+00 0.9000E+01
#aMCatNLO 1  0  0  1  2 0.26551544D+03 0.00000000D+00  -5  7  0 0.00000000D+00 0.00000000D+00 0.00000000D+00 0.00000000D+00 0.00000000D+00
  <mgrwgt>
 0.2945481366D-03    4    2    0
 0.450949849036738D+03 0.000000000000000D+00 0.000000000000000D+00 0.450949849036738D+03
 0.450949849036738D+03 0.000000000000000D+00 0.000000000000000D+00 -.450949849036738D+03
 0.343518026014983D+03 -.239710978933392D+03 -.195553237364740D+03 0.118266482099517D+03
 0.383870641778750D+03 0.217365918145260D+03 0.239474221612634D+03 -.206786905851219D+03
 0.220994773249365D+02 -.932954557108154D+01 0.142525695583757D+02 -.140787335529925D+02
 0.152411552954806D+03 0.316746063592134D+02 -.581735538062700D+02 0.102599157304695D+03
 0.000000000000000D+00 0.000000000000000D+00 -.000000000000000D+00 -.000000000000000D+00
 0.596023648189329D+03 0.000000000000000D+00 0.000000000000000D+00 0.596023648189329D+03
 0.610032078491903D+03 0.000000000000000D+00 0.000000000000000D+00 -.610032078491903D+03
 0.366067083692987D+03 -.311053651490083D+03 -.122264154706025D+03 0.118266482099517D+03
 0.406041412044976D+03 0.137947063051581D+03 0.321059825670232D+03 -.206786905851219D+03
 0.279596657026608D+02 -.143625613441383D+02 0.194228988409108D+02 -.140787335529925D+02
 0.140102841837351D+03 0.226480279898363D+01 -.279613757807065D+02 0.102599157304695D+03
 0.265884723403258D+03 0.185204346983656D+03 -.190257194024411D+03 -.140084303025736D+02
0.355014473702D-04 0.000000000000D+00 0.000000000000D+00 0.407191513370D-06 0.000000000000D+00  7 -2 2 23 -11 11 23 21 0 0.97534197D-02 0.49348376D+00 0.15041649D+06 0.15041649D+06 0.15041649D+06 0.11074569D+01  1  2  2  1  7  1       -2 0.386597758847D-03 0.100000000000D+01
-.191778831188D-05 0.000000000000D+00 -.136334905647D-06 0.407191513370D-06 0.000000000000D+00  7 -2 2 23 -11 11 23 21 2 0.97534197D-02 0.49348376D+00 0.15041649D+06 0.15041649D+06 0.15041649D+06 0.11074569D+01  1  2  3  1  7  1       -2 -.256134212608D-04 0.100000000000D+01
0.229279804304D-05 0.000000000000D+00 0.000000000000D+00 0.407191513370D-06 0.000000000000D+00  7 -2 2 23 -11 11 23 21 2 0.97534197D-02 0.49348376D+00 0.15041649D+06 0.15041649D+06 0.15041649D+06 0.11074569D+01  1  2 15  1  7  1       -2 0.306219418372D-04 0.100000000000D+01
-.726716551909D-05 0.000000000000D+00 0.000000000000D+00 0.407191513370D-06 0.000000000000D+00  7 -2 2 23 -11 11 23 21 2 0.97534197D-02 0.49348376D+00 0.15041649D+06 0.15041649D+06 0.15041649D+06 0.11074569D+01  1  2  4  1  7  1       -2 -.970581427884D-04 0.100000000000D+01
  </mgrwgt>
  </event>
  <event>
  9     66 0.53686478E-06 0.19831507E+03 0.75467711E-02 0.99507348E-01
       21 -1    0    0  502  501 0.00000000E+00 0.00000000E+00 0.15226384E+03 0.15226569E+03 0.75000000E+00 0.0000E+00 0.9000E+01
        2 -1    0    0  501    0 0.00000000E+00 0.00000000E+00 -.12088818E+04 0.12088818E+04 0.32000000E+00 0.0000E+00 0.9000E+01
       25  2    1    2    0    0 0.25964978E+03 -.23251121E+02 -.32342861E+03 0.51343372E+03 0.30174409E+03 0.0000E+00 0.0000E+00
       23  2    1    2    0    0 -.66088993E+02 -.77609757E+02 -.53556625E+03 0.55327589E+03 0.94297308E+02 0.0000E+00 0.0000E+00
       23  1    3    3    0    0 0.10075989E+03 0.27356643E+01 -.29686834E+03 0.32650590E+03 0.91188000E+02 0.0000E+00 0.9000E+01
      -11  1    4    4    0    0 -.71654330E+02 -.30825236E+02 -.43844918E+03 0.44533383E+03 0.51099893E-03 0.0000E+00 0.9000E+01
       11  1    4    4    0    0 0.55653371E+01 -.46784521E+02 -.97117065E+02 0.10794206E+03 0.51099893E-03 0.0000E+00 0.9000E+01
       23  1    3    3    0    0 0.15888989E+03 -.25986785E+02 -.26560266E+02 0.18692782E+03 0.91188000E+02 0.0000E+00 0.9000E+01
        2  1    1    2  502    0 -.19356078E+03 0.10086088E+03 -.19762310E+03 0.29443791E+03 0.32000000E+00 0.0000E+00 0.9000E+01
#aMCatNLO 2  0  0  1  2 0.21826290D+03 0.00000000D+00  -5  7  0 0.00000000D+00 0.00000000D+00 0.00000000D+00 0.00000000D+00 0.00000000D+00
  <mgrwgt>
 0.5441312363D-04    1    2    0
 0.296798981231352D+03 0.000000000000000D+00 0.000000000000000D+00 0.296798981231352D+03
 0.296798981231352D+03 0.000000000000000D+00 0.000000000000000D+00 -.296798981231352D+03
 0.124750028124379D+03 0.577809391766818D+02 0.251311861265096D+02 -.572460018234345D+02
 0.183923638447449D+03 -.125257687263375D+03 -.289353625131296D+01 -.134647851854906D+03
 0.436723481757553D+02 -.924726724891477D+01 -.390659523082918D+02 -.171934119318365D+02
 0.241251947715120D+03 0.767240153356083D+02 0.168283024330951D+02 0.209087265610177D+03
 0.000000000000000D+00 -.000000000000000D+00 0.000000000000000D+00 0.000000000000000D+00
 0.463618229485159D+03 0.000000000000000D+00 0.000000000000000D+00 0.463618229485159D+03
 0.397029628665380D+03 0.000000000000000D+00 0.000000000000000D+00 -.397029628665380D+03
 0.147486933259746D+03 0.100759890603954D+03 0.273566428408484D+01 -.572460018234345D+02
 0.155610353882236D+03 -.716543305036919D+02 -.308252355430043D+02 -.134647851854906D+03
 0.501535425459915D+02 0.556533710667319D+01 -.467845213606364D+02 -.171934119318365D+02
 0.279202516189889D+03 0.158889886606550D+03 -.259867850374331D+02 0.209087265610177D+03
 0.228194512272677D+03 -.193560783813486D+03 0.100860877656989D+03 0.665886008197790D+02
0.950138653933D-07 0.000000000000D+00 0.000000000000D+00 0.502281980346D-08 0.798048306447D-13  7 21 2 23 -11 11 23 2 2 0.23425345D-01 0.18598191D+00 0.11033552D+06 0.11033552D+06 0.11033552D+06 0.11182335D+01  1  2  1  3  7  1       -2 0.544131236304D-04 0.100000000000D+01
  </mgrwgt>
  </event>
  <event>
  8     66 0.53686478E-06 0.23664299E+03 0.75467711E-02 0.95381847E-01
       -2 -1    0    0    0  501 0.00000000E+00 0.00000000E+00 0.27621693E+03 0.27621712E+03 0.32000000E+00 0.0000E+00 0.9000E+01
        2 -1    0    0  501    0 0.00000000E+00 0.00000000E+00 -.86466976E+03 0.86466982E+03 0.32000000E+00 0.0000E+00 0.9000E+01
       25  2    1    2    0    0 -.92265702E+02 0.42642630E+03 -.30449788E+03 0.61153438E+03 0.30150123E+03 0.0000E+00 0.0000E+00
       23  2    1    2    0    0 0.92265702E+02 -.42642630E+03 -.28395495E+03 0.52935256E+03 0.96080029E+02 0.0000E+00 0.0000E+00
       23  1    3    3    0    0 -.11770032E+03 0.29461639E+03 -.89230856E+02 0.34194968E+03 0.91188000E+02 0.0000E+00 0.9000E+01
      -11  1    4    4    0    0 0.12713373E+02 -.24716229E+03 -.12708872E+03 0.27821281E+03 0.51099893E-03 0.0000E+00 0.9000E+01
       11  1    4    4    0    0 0.79552330E+02 -.17926401E+03 -.15686623E+03 0.25113975E+03 0.51099893E-03 0.0000E+00 0.9000E+01
       23  1    3    3    0    0 0.25434614E+02 0.13180991E+03 -.21526702E+03 0.26958470E+03 0.91188000E+02 0.0000E+00 0.9000E+01
#aMCatNLO 1  0  0  1  2 0.21826290D+03 0.00000000D+00  -5  7  0 0.00000000D+00 0.00000000D+00 0.00000000D+00 0.00000000D+00 0.00000000D+00
  <mgrwgt>
 0.1041655091D-05    1    2    0
 0.488709086066831D+03 0.000000000000000D+00 0.000000000000000D+00 0.488709086066831D+03
 0.488709086066831D+03 0.000000000000000D+00 0.000000000000000D+00 -.488709086066831D+03
 0.345417939351342D+03 -.117700316362175D+03 0.294616394214329D+03 0.101715865380569D+03
 0.248229114880872D+03 0.127133729829291D+02 -.247162286977131D+03 0.191537860010025D+02
 0.198700709208413D+03 0.795523294922873D+02 -.179264012569980D+03 -.319031739735543D+02
 0.185070408693035D+03 0.254346138869590D+02 0.131809905332782D+03 -.889664774080173D+02
 0.000000000000000D+00 0.000000000000000D+00 -.000000000000000D+00 0.000000000000000D+00
 0.746137594193703D+03 0.000000000000000D+00 0.000000000000000D+00 0.746137594193703D+03
 0.503641828596906D+03 0.000000000000000D+00 0.000000000000000D+00 -.503641828596906D+03
 0.382467286634607D+03 -.124644691214395D+03 0.334788825505853D+03 0.101715865380569D+03
 0.222180140942243D+03 0.822544262005561D+01 -.221200112126208D+03 0.191537860010025D+02
 0.178578928523895D+03 0.759529004408542D+02 -.158441718362864D+03 -.319031739735543D+02
 0.200343483377825D+03 0.217575801400966D+02 0.153081134017281D+03 -.889664774080173D+02
 0.266209583312039D+03 0.187087680133886D+02 -.108228129034063D+03 0.242495765596797D+03
0.428061829938D-07 0.000000000000D+00 0.000000000000D+00 0.491754526625D-08 0.000000000000D+00  7 -2 2 23 -11 11 23 21 2 0.42494932D-01 0.13302614D+00 0.21902297D+06 0.21902297D+06 0.21902297D+06 0.10948076D+01  1  2 14  1  7  1       -2 0.104165509084D-05 0.100000000000D+01
  </mgrwgt>
  </event>
  <event>
  8     66 0.53686478E-06 0.25262918E+03 0.75467711E-02 0.10073862E+00
       -2 -1    0    0    0  501 0.00000000E+00 0.00000000E+00 0.33453060E+02 0.33454590E+02 0.32000000E+00 0.0000E+00 0.9000E+01
        2 -1    0    0  501    0 0.00000000E+00 0.00000000E+00 -.32530404E+04 0.32530404E+04 0.32000000E+00 0.0000E+00 0.9000E+01
       25  2    1    2    0    0 -.14936186E+03 0.10461525E+03 -.27735032E+04 0.27960636E+04 0.30397092E+03 0.0000E+00 0.0000E+00
       23  2    1    2    0    0 0.14936186E+03 -.10461525E+03 -.44608419E+03 0.49043146E+03 0.90986799E+02 0.0000E+00 0.0000E+00
       23  1    3    3    0    0 -.16409039E+03 0.60660882E+01 -.10043369E+04 0.10217487E+04 0.91188000E+02 0.0000E+00 0.9000E+01
      -11  1    4    4    0    0 0.12867176E+03 -.89351353E+02 -.26740690E+03 0.30991376E+03 0.51099893E-03 0.0000E+00 0.9000E+01
       11  1    4    4    0    0 0.20690093E+02 -.15263894E+02 -.17867729E+03 0.18051771E+03 0.51099893E-03 0.0000E+00 0.9000E+01
       23  1    3    3    0    0 0.14728533E+02 0.98549159E+02 -.17691662E+04 0.17743149E+04 0.91188000E+02 0.0000E+00 0.9000E+01
#aMCatNLO 1  0  0  1  2 0.85343152D+02 0.00000000D+00  -5  7  0 0.00000000D+00 0.00000000D+00 0.00000000D+00 0.00000000D+00 0.00000000D+00
  <mgrwgt>
 0.2633832050D-03    4    2    0
 0.329888915495681D+03 0.000000000000000D+00 0.000000000000000D+00 0.329888915495681D+03
 0.329888915495681D+03 0.000000000000000D+00 0.000000000000000D+00 -.329888915495681D+03
 0.188580879325689D+03 -.164090389804006D+03 0.606608818268987D+01 -.168832239628363D+02
 0.238853356403426D+03 0.128671764079714D+03 -.893513534400678D+02 0.180307622224421D+03
 0.272870371762882D+02 0.206900931565993D+02 -.152638939622196D+02 -.913870801270585D+01
 0.205056558085959D+03 0.147285325676921D+02 0.985491592195976D+02 -.154285690248879D+03
 0.000000000000000D+00 -.000000000000000D+00 0.000000000000000D+00 -.000000000000000D+00
 0.354526181239975D+03 0.000000000000000D+00 0.000000000000000D+00 0.354526181239975D+03
 0.415823884709008D+03 0.000000000000000D+00 0.000000000000000D+00 -.415823884709008D+03
 0.174048474937332D+03 -.146957136434870D+03 -.980699156187411D+01 -.168832239628363D+02
 0.260907511550075D+03 0.152284109506157D+03 -.111226979384251D+03 0.180307622224421D+03
 0.308194505180614D+02 0.234354670882853D+02 -.178073419815434D+02 -.913870801270585D+01
 0.199499122724739D+03 0.338426911424699D+02 0.808408724878871D+02 -.154285690248879D+03
 0.105075506218776D+03 -.626051313020416D+02 0.580004404397811D+02 -.612977034690327D+02
0.110315147708D-04 0.000000000000D+00 0.000000000000D+00 0.201735991504D-07 0.000000000000D+00  7 -2 2 23 -11 11 23 21 0 0.51467435D-02 0.50046787D+00 0.63821503D+05 0.63821503D+05 0.63821503D+05 0.11380870D+01  1  2  2  1  7  1       -2 0.305953548859D-03 0.100000000000D+01
-.559807208005D-06 0.000000000000D+00 -.423639213846D-07 0.201735991504D-07 0.000000000000D+00  7 -2 2 23 -11 11 23 21 2 0.51467435D-02 0.50046787D+00 0.63821503D+05 0.63821503D+05 0.63821503D+05 0.11380870D+01  1  2  3  1  7  1       -2 -.201098938357D-04 0.100000000000D+01
0.702937424570D-06 0.000000000000D+00 0.000000000000D+00 0.201735991504D-07 0.000000000000D+00  7 -2 2 23 -11 11 23 21 2 0.51467435D-02 0.50046787D+00 0.63821503D+05 0.63821503D+05 0.63821503D+05 0.11380870D+01  1  2 15  1  7  1       -2 0.252515451375D-04 0.100000000000D+01
-.132817801203D-05 0.000000000000D+00 0.000000000000D+00 0.201735991504D-07 0.000000000000D+00  7 -2 2 23 -11 11 23 21 2 0.51467435D-02 0.50046787D+00 0.63821503D+05 0.63821503D+05 0.63821503D+05 0.11380870D+01  1  2  4  1  7  1       -2 -.477119951919D-04 0.100000000000D+01
  </mgrwgt>
  </event>
  <event>
  8     66 0.53686478E-06 0.26452743E+03 0.75467711E-02 0.90988281E-01
       -2 -1    0    0    0  501 0.00000000E+00 0.00000000E+00 0.79722287E+02 0.79722929E+02 0.32000000E+00 0.0000E+00 0.9000E+01
        2 -1    0    0  501    0 0.00000000E+00 0.00000000E+00 -.33932488E+04 0.33932488E+04 0.32000000E+00 0.0000E+00 0.9000E+01
       25  2    1    2    0    0 -.62380924E+02 0.45448662E+03 -.21500543E+04 0.22188870E+04 0.30046046E+03 0.0000E+00 0.0000E+00
       23  2    1    2    0    0 0.62380924E+02 -.45448662E+03 -.11634722E+04 0.12540847E+04 0.92798293E+02 0.0000E+00 0.0000E+00
       23  1    3    3    0    0 -.91444266E+02 0.11665329E+03 -.44018704E+03 0.47333912E+03 0.91188000E+02 0.0000E+00 0.9000E+01
      -11  1    4    4    0    0 0.70933586E+02 -.45049302E+03 -.11142152E+04 0.12039315E+04 0.51099893E-03 0.0000E+00 0.9000E+01
       11  1    4    4    0    0 -.85526618E+01 -.39936037E+01 -.49256952E+02 0.50153207E+02 0.51099893E-03 0.0000E+00 0.9000E+01
       23  1    3    3    0    0 0.29063342E+02 0.33783333E+03 -.17098673E+04 0.17455479E+04 0.91188000E+02 0.0000E+00 0.9000E+01
#aMCatNLO 1  0  0  2  1 0.34548987D+03 0.00000000D+00  -5  7  0 0.00000000D+00 0.00000000D+00 0.00000000D+00 0.00000000D+00 0.00000000D+00
  <mgrwgt>
 0.5222688513D-03    8    2    0
 0.520114115941731D+03 0.000000000000000D+00 0.000000000000000D+00 0.520114115941731D+03
 0.520114115941731D+03 0.000000000000000D+00 0.000000000000000D+00 -.520114115941731D+03
 0.178155107651428D+03 -.914442662432487D+02 0.116653291160784D+03 0.381306552642737D+02
 0.470318371991667D+03 0.709335858415998D+02 -.450493015406205D+03 0.114994958597190D+03
 0.105423554824445D+02 -.855266183882160D+01 -.399360366496693D+01 -.469514263427151D+01
 0.381212396757924D+03 0.290633422404705D+02 0.337833327910388D+03 -.148430471227192D+03
 0.000000000000000D+00 -.000000000000000D+00 -.000000000000000D+00 -.000000000000000D+00
 0.647295851289036D+03 0.000000000000000D+00 0.000000000000000D+00 0.647295851289036D+03
 0.848728260188490D+03 0.000000000000000D+00 0.000000000000000D+00 -.848728260188490D+03
 0.208200841633253D+03 -.627594883179183D+02 0.172161664919880D+03 0.381306552642737D+02
 0.373473453656061D+03 0.133580430490237D+03 -.329264101707216D+03 0.114994958597190D+03
 0.862617483599611D+01 -.712950519698020D+01 -.123963042526783D+01 -.469514263427151D+01
 0.505800814611152D+03 0.949191341133897D+02 0.465271926842511D+03 -.148430471227192D+03
 0.399922826741064D+03 -.158610571088728D+03 -.306929859629907D+03 -.201432408899453D+03
0.595940280324D-04 0.000000000000D+00 0.000000000000D+00 0.495173964816D-06 0.000000000000D+00  7 -2 2 23 -11 11 23 21 0 0.12265018D-01 0.52203833D+00 0.24534079D+06 0.24534079D+06 0.24534079D+06 0.10910743D+01  1  2  2  2  7  2        2 0.331446799703D-03 0.100000000000D+01
-.330117475450D-05 0.000000000000D+00 -.228856759112D-06 0.495173964816D-06 0.000000000000D+00  7 -2 2 23 -11 11 23 21 2 0.12265018D-01 0.52203833D+00 0.24534079D+06 0.24534079D+06 0.24534079D+06 0.10910743D+01  1  2  3  2  7  2        2 -.218568838596D-04 0.100000000000D+01
0.363054526433D-05 0.000000000000D+00 0.000000000000D+00 0.495173964816D-06 0.000000000000D+00  7 -2 2 23 -11 11 23 21 2 0.12265018D-01 0.52203833D+00 0.24534079D+06 0.24534079D+06 0.24534079D+06 0.10910743D+01  1  2 15  2  7  2        2 0.240376266301D-04 0.100000000000D+01
0.412141900948D-05 0.000000000000D+00 0.000000000000D+00 0.495173964816D-06 0.000000000000D+00  7 -2 2 23 -11 11 23 21 2 0.12265018D-01 0.88286791D+00 0.48738982D+06 0.48738982D+06 0.48738982D+06 0.10692953D+01  1  2 12  2  7  2        2 0.417839239868D-07 0.100000000000D+01
-.241482133553D-04 0.000000000000D+00 -.115224979673D-04 0.495173964816D-06 0.000000000000D+00  7 -2 2 23 -11 11 23 21 2 0.12265018D-01 0.86475147D+00 0.24534079D+06 0.24534079D+06 0.24534079D+06 0.10910743D+01  1  2  5  2  7  2        2 -.514845982397D-06 0.100000000000D+01
0.285630726181D-04 0.000000000000D+00 0.105772069927D-04 0.495173964816D-06 0.000000000000D+00  7 -2 2 23 -11 11 23 21 2 0.12265018D-01 0.52203833D+00 0.24534079D+06 0.24534079D+06 0.24534079D+06 0.10910743D+01  1  2  6  2  7  2        2 0.189114423596D-03 0.100000000000D+01
0.241814544378D-06 0.000000000000D+00 0.000000000000D+00 0.495173964816D-06 0.000000000000D+00  7 -2 21 23 -11 11 23 -2 2 0.12265018D-01 0.88286791D+00 0.48738982D+06 0.48738982D+06 0.48738982D+06 0.10692953D+01  1  2 12  4  7  2        2 0.691870798488D-11 0.100000000000D+01
-.846496038113D-06 0.000000000000D+00 -.654514940764D-06 0.495173964816D-06 0.000000000000D+00  7 -2 21 23 -11 11 23 -2 2 0.12265018D-01 0.86475147D+00 0.24534079D+06 0.24534079D+06 0.24534079D+06 0.10910743D+01  1  2  5  4  7  2        2 -.595942956351D-10 0.100000000000D+01
  </mgrwgt>
  </event>
  <event>
  8     66 0.53686478E-06 0.12018525E+03 0.75467711E-02 0.10272240E+00
       -2 -1    0    0    0  501 0.00000000E+00 0.00000000E+00 0.31493301E+03 0.31493317E+03 0.32000000E+00 0.0000E+00 0.9000E+01
        2 -1    0    0  501    0 0.00000000E+00 0.00000000E+00 -.21491312E+03 0.21491336E+03 0.32000000E+00 0.0000E+00 0.9000E+01
       25  2    1    2    0    0 -.14025193E+03 -.69801906E+01 0.16073870E+01 0.33258141E+03 0.30147716E+03 0.0000E+00 0.0000E+00
       23  2    1    2    0    0 0.14025193E+03 0.69801906E+01 0.98412502E+02 0.19726512E+03 0.97515025E+02 0.0000E+00 0.0000E+00
       23  1    3    3    0    0 -.35240595E+02 0.96079689E+02 0.60372357E+02 0.14977743E+03 0.91188000E+02 0.0000E+00 0.9000E+01
      -11  1    4    4    0    0 0.14948468E+03 0.44356595E+01 0.65998702E+02 0.16346612E+03 0.51099893E-03 0.0000E+00 0.9000E+01
       11  1    4    4    0    0 -.92327425E+01 0.25445311E+01 0.32413801E+02 0.33799004E+02 0.51099893E-03 0.0000E+00 0.9000E+01
       23  1    3    3    0    0 -.10501134E+03 -.10305988E+03 -.58764970E+02 0.18280397E+03 0.91188000E+02 0.0000E+00 0.9000E+01
#aMCatNLO 1  0  0  1  2 0.48450031D+02 0.00000000D+00  -5  7  0 0.00000000D+00 0.00000000D+00 0.00000000D+00 0.00000000D+00 0.00000000D+00
  <mgrwgt>
 0.3102700427D-03    6    2    0
 0.260160222305933D+03 0.000000000000000D+00 0.000000000000000D+00 0.260160222305933D+03
 0.260160222305933D+03 0.000000000000000D+00 0.000000000000000D+00 -.260160222305933D+03
 0.140914346731408D+03 -.352405952510117D+02 0.960796887618932D+02 0.326863216730099D+02
 0.153772110348903D+03 0.149484676072285D+03 0.443565949523786D+01 0.357843326829161D+02
 0.281869760868959D+02 -.923274234751274D+01 0.254453111900468D+01 0.265101386464142D+02
 0.197447011444660D+03 -.105011338473761D+03 -.103059879376136D+03 -.949807930023402D+02
 0.000000000000000D+00 -.000000000000000D+00 0.000000000000000D+00 -.000000000000000D+00
 0.282690229489248D+03 0.000000000000000D+00 0.000000000000000D+00 0.282690229489248D+03
 0.288702751520033D+03 0.000000000000000D+00 0.000000000000000D+00 -.288702751520033D+03
 0.133001220205987D+03 -.259770604772055D+02 0.873548506766140D+02 0.326863216730099D+02
 0.164286829003215D+03 0.160241093014012D+03 -.569524609165464D+01 0.357843326829161D+02
 0.275206277598313D+02 -.734877010318417D+01 0.770116363699224D+00 0.265101386464142D+02
 0.197762629692584D+03 -.916457663941894D+02 -.115648211493280D+03 -.949807930023402D+02
 0.488216743476642D+02 -.352694960394332D+02 0.332184905446214D+02 -.601252203078544D+01
0.321330096729D-05 0.000000000000D+00 0.000000000000D+00 0.138669053008D-08 0.000000000000D+00  7 -2 2 23 -11 11 23 21 0 0.48451263D-01 0.33063588D-01 0.55060498D+05 0.55060498D+05 0.55060498D+05 0.11436306D+01  1  2  2  1  7  1       -2 0.250909966405D-03 0.100000000000D+01
-.176204913718D-06 0.000000000000D+00 -.123399217960D-07 0.138669053008D-08 0.000000000000D+00  7 -2 2 23 -11 11 23 21 2 0.48451263D-01 0.33063588D-01 0.55060498D+05 0.55060498D+05 0.55060498D+05 0.11436306D+01  1  2  3  1  7  1       -2 -.179951749990D-04 0.100000000000D+01
0.202187874946D-06 0.000000000000D+00 0.000000000000D+00 0.138669053008D-08 0.000000000000D+00  7 -2 2 23 -11 11 23 21 2 0.48451263D-01 0.33063588D-01 0.55060498D+05 0.55060498D+05 0.55060498D+05 0.11436306D+01  1  2 15  1  7  1       -2 0.206487215115D-04 0.100000000000D+01
0.278516244835D-05 0.000000000000D+00 0.000000000000D+00 0.138669053008D-08 0.000000000000D+00  7 -2 2 23 -11 11 23 21 2 0.55061460D-01 0.33063588D-01 0.67227275D+05 0.67227275D+05 0.67227275D+05 0.11361548D+01  1  2 12  1  7  1       -2 0.218340749447D-03 0.100000000000D+01
-.204115269962D-05 0.000000000000D+00 0.000000000000D+00 0.138669053008D-08 0.000000000000D+00  7 -2 2 23 -11 11 23 21 2 0.48451263D-01 0.33063588D-01 0.55060498D+05 0.55060498D+05 0.55060498D+05 0.11436306D+01  1  2  4  1  7  1       -2 -.208455594422D-03 0.100000000000D+01
0.557369322391D-07 0.000000000000D+00 0.000000000000D+00 0.138669053008D-08 0.000000000000D+00  7 21 2 23 -11 11 23 2 2 0.55061460D-01 0.33063588D-01 0.67227275D+05 0.67227275D+05 0.67227275D+05 0.11361548D+01  1  2 12  3  7  1       -2 0.468213747769D-04 0.100000000000D+01
  </mgrwgt>
  </event>
  <event>
  9     66 0.53686478E-06 0.47718234E+03 0.75467711E-02 0.90209985E-01
       21 -1    0    0  502  501 0.00000000E+00 0.00000000E+00 0.23969394E+03 0.23969511E+03 0.75000000E+00 0.0000E+00 0.9000E+01
        2 -1    0    0  501    0 0.00000000E+00 0.00000000E+00 -.38991171E+04 0.38991171E+04 0.32000000E+00 0.0000E+00 0.9000E+01
       25  2    1    2    0    0 -.23225090E+03 -.81319739E+02 -.17922177E+04 0.18336945E+04 0.29972930E+03 0.0000E+00 0.0000E+00
       23  2    1    2    0    0 0.67609472E+03 0.20480099E+03 -.16471237E+04 0.17945484E+04 0.91324039E+02 0.0000E+00 0.0000E+00
       23  1    3    3    0    0 -.26311394E+02 -.58463594E+02 -.10946803E+04 0.11003411E+04 0.91188000E+02 0.0000E+00 0.9000E+01
      -11  1    4    4    0    0 0.67019969E+03 0.20279572E+03 -.15933947E+04 0.17404599E+04 0.51099893E-03 0.0000E+00 0.9000E+01
       11  1    4    4    0    0 0.58950290E+01 0.20052733E+01 -.53728969E+02 0.54088581E+02 0.51099893E-03 0.0000E+00 0.9000E+01
       23  1    3    3    0    0 -.20593951E+03 -.22856145E+02 -.69753742E+03 0.73335339E+03 0.91188000E+02 0.0000E+00 0.9000E+01
        2  1    1    2  502    0 -.44384382E+03 -.12348125E+03 -.22008173E+03 0.51056931E+03 0.32000000E+00 0.0000E+00 0.9000E+01
#aMCatNLO 2  0  0  1  2 0.46070050D+03 0.00000000D+00  -5  7  0 0.00000000D+00 0.00000000D+00 0.00000000D+00 0.00000000D+00 0.00000000D+00
  <mgrwgt>
 0.3069611675D-04    2    2    0
 0.529818874920655D+03 0.000000000000000D+00 0.000000000000000D+00 0.529818874920655D+03
 0.529818874920655D+03 0.000000000000000D+00 0.000000000000000D+00 -.529818874920655D+03
 0.232364991485209D+03 -.112292442000338D+03 -.823842773242837D+02 -.162115626153920D+03
 0.483256790798265D+03 0.428639710499125D+03 0.135591607896992D+03 0.177256989435602D+03
 0.810669062332315D+01 0.228434110964061D+01 0.100074823188876D+01 -.771354143914799D+01
 0.335909276934513D+03 -.318631609608427D+03 -.542080788045973D+02 -.742782184253468D+01
 0.000000000000000D+00 -.000000000000000D+00 -.000000000000000D+00 0.000000000000000D+00
 0.146614165651778D+04 0.000000000000000D+00 0.000000000000000D+00 0.146614165651778D+04
 0.637453489070173D+03 0.000000000000000D+00 0.000000000000000D+00 -.637453489070173D+03
 0.196740969054427D+03 -.263113941635225D+02 -.584635942648863D+02 -.162115626153920D+03
 0.722297559935504D+03 0.670199688295674D+03 0.202795716407893D+03 0.177256989435602D+03
 0.991318358001939D+01 0.589502893122793D+01 0.200527331246860D+01 -.771354143914799D+01
 0.226503658383470D+03 -.205939505693565D+03 -.228561452231384D+02 -.742782184253468D+01
 0.948139774634530D+03 -.443843817369814D+03 -.123481250232337D+03 0.828688167447603D+03
-.723656351494D-08 0.000000000000D+00 0.000000000000D+00 0.213801344478D-05 0.000000000000D+00  7 21 2 23 -11 11 23 2 2 0.35782475D-01 0.49857660D+00 0.56624778D+06 0.56624778D+06 0.56624778D+06 0.10647122D+01  1  2 13  3  7  1       -2 -.977180765451D-07 0.100000000000D+01
0.736000639260D-05 0.000000000000D+00 0.000000000000D+00 0.213801344478D-05 0.143379702854D-10  7 21 2 23 -11 11 23 2 2 0.36876080D-01 0.59986424D+00 0.56624778D+06 0.56624778D+06 0.56624778D+06 0.10647122D+01  1  2  1  3  7  1       -2 0.307938348263D-04 0.100000000000D+01
  </mgrwgt>
  </event>
  <event>
  8     66 0.53686478E-06 0.35232333E+03 0.75467711E-02 0.92187108E-01
       -4 -1    0    0    0  501 0.00000000E+00 0.00000000E+00 0.72110852E+03 0.72111018E+03 0.15500000E+01 0.0000E+00 0.9000E+01
        4 -1    0    0  501    0 0.00000000E+00 0.00000000E+00 -.19662974E+03 0.19663585E+03 0.15500000E+01 0.0000E+00 0.9000E+01
       25  2    1    2    0    0 -.10744690E+03 0.27131743E+03 0.17084037E+03 0.45240749E+03 0.30054637E+03 0.0000E+00 0.0000E+00
       23  2    1    2    0    0 0.10744690E+03 -.27131743E+03 0.35363841E+03 0.46533854E+03 0.79510086E+02 0.0000E+00 0.0000E+00
       23  1    3    3    0    0 0.26558993E+02 0.37548760E+01 -.18670771E+01 0.95069535E+02 0.91188000E+02 0.0000E+00 0.9000E+01
      -11  1    4    4    0    0 0.53752089E+02 -.69123064E+02 0.65916738E+02 0.10960065E+03 0.51099893E-03 0.0000E+00 0.9000E+01
       11  1    4    4    0    0 0.53694814E+02 -.20219437E+03 0.28772167E+03 0.35573790E+03 0.51099893E-03 0.0000E+00 0.9000E+01
       23  1    3    3    0    0 -.13400590E+03 0.26756255E+03 0.17270745E+03 0.35733796E+03 0.91188000E+02 0.0000E+00 0.9000E+01
#aMCatNLO 1  0  0  2  1 0.42319499D+03 0.00000000D+00  -5  7  0 0.00000000D+00 0.00000000D+00 0.00000000D+00 0.00000000D+00 0.00000000D+00
  <mgrwgt>
 0.1044838323D-03    5    2    0
 0.376556699709134D+03 0.000000000000000D+00 0.000000000000000D+00 0.376556699709134D+03
 0.376556699709134D+03 0.000000000000000D+00 0.000000000000000D+00 -.376556699709134D+03
 0.117152252328639D+03 0.265589927174409D+02 0.375487596243484D+01 -.684829883548815D+02
 0.876542986114916D+02 0.537520890886880D+02 -.691230635459720D+02 0.399888355592112D+01
 0.233129746783025D+03 0.536948136532653D+02 -.202194365058668D+03 0.102877522133751D+03
 0.315177101695111D+03 -.134005895459394D+03 0.267562552642206D+03 -.383934173347905D+02
 0.000000000000000D+00 0.000000000000000D+00 0.000000000000000D+00 -.000000000000000D+00
 0.564383563940907D+03 0.000000000000000D+00 0.000000000000000D+00 0.564383563940907D+03
 0.769981922095476D+03 0.000000000000000D+00 0.000000000000000D+00 -.769981922095476D+03
 0.122502902057803D+03 -.169800781186381D+02 -.413940445191562D+02 -.684829883548815D+02
 0.107537966312115D+03 0.182907618707479D+02 -.105895567230358D+03 0.399888355592112D+01
 0.328256177207173D+03 -.482943197478628D+02 -.307954529101908D+03 0.102877522133751D+03
 0.305574353210624D+03 -.246780192494371D+03 0.150618445397265D+03 -.383934173347905D+02
 0.470494087248669D+03 0.293763828490124D+03 0.304625695454157D+03 -.205598358154569D+03
0.718361751550D-04 0.000000000000D+00 0.000000000000D+00 0.298839937814D-08 0.000000000000D+00  7 -4 4 23 -11 11 23 21 0 0.11094037D+00 0.30251327D-01 0.12413173D+06 0.12413173D+06 0.12413173D+06 0.11140983D+01  1  2  2  2  7  2        4 0.992136814579D-04 0.100000000000D+01
-.396942783696D-05 0.000000000000D+00 -.275869827495D-06 0.298839937814D-08 0.000000000000D+00  7 -4 4 23 -11 11 23 21 2 0.11094037D+00 0.30251327D-01 0.12413173D+06 0.12413173D+06 0.12413173D+06 0.11140983D+01  1  2  3  2  7  2        4 -.680461135945D-05 0.100000000000D+01
0.441215681187D-05 0.000000000000D+00 0.000000000000D+00 0.298839937814D-08 0.000000000000D+00  7 -4 4 23 -11 11 23 21 2 0.11094037D+00 0.30251327D-01 0.12413173D+06 0.12413173D+06 0.12413173D+06 0.11140983D+01  1  2 15  2  7  2        4 0.756356170081D-05 0.100000000000D+01
0.294136623445D-06 0.000000000000D+00 -.245206620965D-04 0.298839937814D-08 0.000000000000D+00  7 -4 4 23 -11 11 23 21 2 0.11094037D+00 0.88374840D-01 0.12413173D+06 0.12413173D+06 0.12413173D+06 0.11140983D+01  1  2  5  2  7  2        4 0.437559885437D-07 0.100000000000D+01
0.132089920404D-05 0.000000000000D+00 -.297590140651D-05 0.298839937814D-08 0.000000000000D+00  7 -4 21 23 -11 11 23 -4 2 0.11094037D+00 0.88374840D-01 0.12413173D+06 0.12413173D+06 0.12413173D+06 0.11140983D+01  1  2  5  4  7  2        4 0.446744455421D-05 0.100000000000D+01
  </mgrwgt>
  </event>
  <event>
  9     66 0.53686478E-06 0.83146607E+03 0.75467711E-02 0.86561135E-01
       21 -1    0    0  502  501 0.00000000E+00 0.00000000E+00 0.12690711E+04 0.12690713E+04 0.75000000E+00 0.0000E+00 0.9000E+01
        2 -1    0    0  501    0 0.00000000E+00 0.00000000E+00 -.14002984E+04 0.14002985E+04 0.32000000E+00 0.0000E+00 0.9000E+01
       25  2    1    2    0    0 0.80883207E+03 0.48149880E+03 0.68536936E+03 0.12021573E+04 0.29899938E+03 0.0000E+00 0.0000E+00
       23  2    1    2    0    0 -.38269513E+03 -.64798457E+03 -.46024938E+03 0.88730408E+03 0.95600583E+02 0.0000E+00 0.0000E+00
       23  1    3    3    0    0 0.56876760E+03 0.38538079E+03 0.59505990E+03 0.91346947E+03 0.91188000E+02 0.0000E+00 0.9000E+01
      -13  1    4    4    0    0 -.25187362E+03 -.38634087E+03 -.23196106E+03 0.51624174E+03 0.10565837E+00 0.0000E+00 0.9000E+01
       13  1    4    4    0    0 -.13082151E+03 -.26164371E+03 -.22828831E+03 0.37106234E+03 0.10565837E+00 0.0000E+00 0.9000E+01
       23  1    3    3    0    0 0.24006447E+03 0.96118015E+02 0.90309463E+02 0.28868784E+03 0.91188000E+02 0.0000E+00 0.9000E+01
        2  1    1    2  502    0 -.42613694E+03 0.16648577E+03 -.35634735E+03 0.57990839E+03 0.32000000E+00 0.0000E+00 0.9000E+01
#aMCatNLO 2  0  0  1  1 0.45750432D+03 0.00000000D+00  -5  7  0 0.00000000D+00 0.00000000D+00 0.00000000D+00 0.00000000D+00 0.00000000D+00
  <mgrwgt>
 0.1331893357D-04    1    2    0
 0.101314605357371D+04 0.000000000000000D+00 0.000000000000000D+00 0.101314605357371D+04
 0.101314605357371D+04 0.000000000000000D+00 0.000000000000000D+00 -.101314605357371D+04
 0.787885833158850D+03 0.398231844179923D+03 0.452006734344456D+03 0.499549942585057D+03
 0.579333576280469D+03 -.368568017880151D+03 -.340750197361977D+03 -.289265123717997D+03
 0.414007543991112D+03 -.215141572224500D+03 -.228700824326891D+03 -.269837512837861D+03
 0.245065153716996D+03 0.185477745924728D+03 0.117444287344412D+03 0.595526939708013D+02
 0.000000000000000D+00 -.000000000000000D+00 0.000000000000000D+00 -.000000000000000D+00
 0.113897048864811D+04 0.000000000000000D+00 0.000000000000000D+00 0.113897048864811D+04
 0.156024980306939D+04 0.000000000000000D+00 0.000000000000000D+00 -.156024980306939D+04
 0.854330341292090D+03 0.568767602111481D+03 0.385380786184108D+03 0.499549942585057D+03
 0.544402505978126D+03 -.251873768070389D+03 -.386341017332743D+03 -.289265123717997D+03
 0.397974701974224D+03 -.130821365240201D+03 -.261643556147747D+03 -.269837512837861D+03
 0.280591154451338D+03 0.240064467404903D+03 0.961180146629894D+02 0.595526939708013D+02
 0.621921588021723D+03 -.426136936205793D+03 0.166485772633393D+03 -.421279314421279D+03
0.704298300659D-05 0.000000000000D+00 0.000000000000D+00 0.134057753586D-06 0.864936527564D-13  7 21 2 23 -13 13 23 2 2 0.19524172D+00 0.21543054D+00 0.11864455D+07 0.11864455D+07 0.11864455D+07 0.10429570D+01  1  2  1  3  7  1       -2 0.133189335679D-04 0.100000000000D+01
  </mgrwgt>
  </event>
  <event>
  8     66 0.53686478E-06 0.22355163E+03 0.75467711E-02 0.10450875E+00
       -2 -1    0    0    0  501 0.00000000E+00 0.00000000E+00 0.18408908E+03 0.18408936E+03 0.32000000E+00 0.0000E+00 0.9000E+01
        2 -1    0    0  501    0 0.00000000E+00 0.00000000E+00 -.32268920E+03 0.32268936E+03 0.32000000E+00 0.0000E+00 0.9000E+01
       25  2    1    2    0    0 -.46263619E+02 -.11788797E+03 -.14815937E+03 0.35000997E+03 0.29071960E+03 0.0000E+00 0.0000E+00
       23  2    1    2    0    0 0.46263619E+02 0.11788797E+03 0.95592514E+01 0.15676874E+03 0.91908450E+02 0.0000E+00 0.0000E+00
       23  1    3    3    0    0 -.11299790E+03 -.13885699E+03 -.10912857E+03 0.22863527E+03 0.91188000E+02 0.0000E+00 0.9000E+01
      -11  1    4    4    0    0 0.62770383E+00 0.46705120E+02 -.37589731E+02 0.59956235E+02 0.51099893E-03 0.0000E+00 0.9000E+01
       11  1    4    4    0    0 0.45635915E+02 0.71182851E+02 0.47148982E+02 0.96812507E+02 0.51099893E-03 0.0000E+00 0.9000E+01
       23  1    3    3    0    0 0.66734283E+02 0.20969020E+02 -.39030794E+02 0.12137470E+03 0.91188000E+02 0.0000E+00 0.9000E+01
#aMCatNLO 1  0  0  1  1 0.75711412D+01 0.00000000D+00  -5  7  0 0.00000000D+00 0.00000000D+00 0.00000000D+00 0.00000000D+00 0.00000000D+00
  <mgrwgt>
 0.2252797474D-03    6    2    0
 0.243728678220743D+03 0.000000000000000D+00 0.000000000000000D+00 0.243728678220743D+03
 0.243728678220743D+03 0.000000000000000D+00 0.000000000000000D+00 -.243728678220743D+03
 0.206668858865853D+03 -.112997901768403D+03 -.138856991761043D+03 -.484455974875524D+02
 0.516447285218347D+02 0.627703849499738D+00 0.467051203638976D+02 -.220321515918251D+02
 0.114055869073298D+03 0.456359153177899D+02 0.711828511006696D+02 0.765447987282793D+02
 0.115087899980500D+03 0.667342826011131D+02 0.209690202964756D+02 -.606704964890173D+01
 0.000000000000000D+00 0.000000000000000D+00 -.000000000000000D+00 -.000000000000000D+00
 0.246236048525569D+03 0.000000000000000D+00 0.000000000000000D+00 0.246236048525569D+03
 0.249541246159088D+03 0.000000000000000D+00 0.000000000000000D+00 -.249541246159088D+03
 0.206098326025499D+03 -.114993126408645D+03 -.136348353893079D+03 -.484455974875524D+02
 0.522126340344039D+02 0.125680490018381D+00 0.473363248833267D+02 -.220321515918251D+02
 0.114493706718389D+03 0.445311575709826D+02 0.725718862311853D+02 0.765447987282793D+02
 0.114711483240066D+03 0.656234835635518D+02 0.223656512688085D+02 -.606704964890173D+01
 0.826114466629866D+01 0.471280478409267D+01 -.592550849024162D+01 -.330519763351943D+01
0.345636319455D-05 0.000000000000D+00 0.000000000000D+00 0.570992492035D-09 0.000000000000D+00  7 -2 2 23 -11 11 23 21 0 0.28321431D-01 0.49644525D-01 0.49975330D+05 0.49975330D+05 0.49975330D+05 0.11473142D+01  1  2  2  1  7  1       -2 0.459474316122D-03 0.100000000000D+01
-.190276809600D-06 0.000000000000D+00 -.132733447484D-07 0.570992492035D-09 0.000000000000D+00  7 -2 2 23 -11 11 23 21 2 0.28321431D-01 0.49644525D-01 0.49975330D+05 0.49975330D+05 0.49975330D+05 0.11473142D+01  1  2  3  1  7  1       -2 -.332960333437D-04 0.100000000000D+01
0.222995991549D-06 0.000000000000D+00 0.000000000000D+00 0.570992492035D-09 0.000000000000D+00  7 -2 2 23 -11 11 23 21 2 0.28321431D-01 0.49644525D-01 0.49975330D+05 0.49975330D+05 0.49975330D+05 0.11473142D+01  1  2 15  1  7  1       -2 0.390214760577D-04 0.100000000000D+01
-.147291073492D-05 0.000000000000D+00 0.000000000000D+00 0.570992492035D-09 0.000000000000D+00  7 -2 2 23 -11 11 23 21 2 0.28321431D-01 0.49644525D-01 0.49975330D+05 0.49975330D+05 0.49975330D+05 0.11473142D+01  1  2  4  1  7  1       -2 -.257740735959D-03 0.100000000000D+01
0.964771546379D-07 0.000000000000D+00 0.000000000000D+00 0.570992492035D-09 0.697823355072D-10  7 -2 2 23 -11 11 23 21 2 0.28612789D-01 0.50828474D-01 0.51739723D+05 0.51739723D+05 0.51739723D+05 0.11459911D+01  1  2 11  1  7  1       -2 0.161360506028D-04 0.100000000000D+01
0.826311098474D-09 0.000000000000D+00 0.000000000000D+00 0.570992492035D-09 0.132971197062D-12  7 21 2 23 -11 11 23 2 2 0.28612789D-01 0.50828474D-01 0.51739723D+05 0.51739723D+05 0.51739723D+05 0.11459911D+01  1  2 11  3  7  1       -2 0.168467387706D-05 0.100000000000D+01
  </mgrwgt>
  </event>
  <event>
  8     66 0.53686478E-06 0.16862511E+03 0.75467711E-02 0.98402121E-01
       -2 -1    0    0    0  501 0.00000000E+00 0.00000000E+00 0.10693722E+03 0.10693770E+03 0.32000000E+00 0.0000E+00 0.9000E+01
        2 -1    0    0  501    0 0.00000000E+00 0.00000000E+00 -.12904370E+04 0.12904370E+04 0.32000000E+00 0.0000E+00 0.9000E+01
       25  2    1    2    0    0 -.12486196E+03 0.25868668E+03 -.86388995E+03 0.95804432E+03 0.29838525E+03 0.0000E+00 0.0000E+00
       23  2    1    2    0    0 0.12486196E+03 -.25868668E+03 -.31960984E+03 0.43933043E+03 0.91386366E+02 0.0000E+00 0.0000E+00
       23  1    3    3    0    0 -.16834046E+03 0.14757182E+03 -.67344289E+03 0.71551137E+03 0.91188000E+02 0.0000E+00 0.9000E+01
      -13  1    4    4    0    0 0.97622060E+02 -.25606760E+03 -.28910433E+03 0.39834910E+03 0.10565837E+00 0.0000E+00 0.9000E+01
       13  1    4    4    0    0 0.27239901E+02 -.26190791E+01 -.30505509E+02 0.40981325E+02 0.10565837E+00 0.0000E+00 0.9000E+01
       23  1    3    3    0    0 0.43478501E+02 0.11111486E+03 -.19044707E+03 0.24253294E+03 0.91188000E+02 0.0000E+00 0.9000E+01
#aMCatNLO 1  0  0  2  1 0.32354859D+02 0.00000000D+00  -5  7  0 0.00000000D+00 0.00000000D+00 0.00000000D+00 0.00000000D+00 0.00000000D+00
  <mgrwgt>
 0.2772032099D-03    6    2    0
 0.371478269072031D+03 0.000000000000000D+00 0.000000000000000D+00 0.371478269072031D+03
 0.371478269072031D+03 0.000000000000000D+00 0.000000000000000D+00 -.371478269072031D+03
 0.272987712288213D+03 -.168340462581196D+03 0.147571816132919D+03 -.126850650205403D+03
 0.288695645954589D+03 0.976221545146411D+02 -.256067937553026D+03 0.907981403906291D+02
 0.284845016932734D+02 0.272398066066518D+02 -.261874050368369D+01 0.790581880140645D+01
 0.152788678207987D+03 0.434785014599029D+02 0.111114861923791D+03 0.281466910133671D+02
 0.000000000000000D+00 0.000000000000000D+00 0.000000000000000D+00 0.000000000000000D+00
 0.389243060555263D+03 0.000000000000000D+00 0.000000000000000D+00 0.389243060555263D+03
 0.386860141884438D+03 0.000000000000000D+00 0.000000000000000D+00 -.386860141884438D+03
 0.267836588269573D+03 -.169883794617411D+03 0.135902890111803D+03 -.126850650205403D+03
 0.299467021158018D+03 0.959437345809875D+02 -.268758245003783D+03 0.907981403906291D+02
 0.284690174007165D+02 0.270772802732340D+02 -.384758025859952D+01 0.790581880140645D+01
 0.147888085096446D+03 0.426204703380126D+02 0.104627403975527D+03 0.281466910133671D+02
 0.324424905149476D+02 0.424230942517664D+01 0.320755311750524D+02 0.238291867082479D+01
0.326543122270D-05 0.000000000000D+00 0.000000000000D+00 0.792296297343D-07 0.000000000000D+00  7 -2 2 23 -13 13 23 21 0 0.16451919D-01 0.19852881D+00 0.12016968D+06 0.12016968D+06 0.12016968D+06 0.11152322D+01  1  2  2  2  7  2        2 0.194015273130D-03 0.100000000000D+01
-.180357817374D-06 0.000000000000D+00 -.125401157030D-07 0.792296297343D-07 0.000000000000D+00  7 -2 2 23 -13 13 23 21 2 0.16451919D-01 0.19852881D+00 0.12016968D+06 0.12016968D+06 0.12016968D+06 0.11152322D+01  1  2  3  2  7  2        2 -.133278756886D-04 0.100000000000D+01
0.212930783747D-06 0.000000000000D+00 0.000000000000D+00 0.792296297343D-07 0.000000000000D+00  7 -2 2 23 -13 13 23 21 2 0.16451919D-01 0.19852881D+00 0.12016968D+06 0.12016968D+06 0.12016968D+06 0.11152322D+01  1  2 15  2  7  2        2 0.157349154995D-04 0.100000000000D+01
0.638124145546D-05 0.000000000000D+00 0.000000000000D+00 0.792296297343D-07 0.000000000000D+00  7 -2 2 23 -13 13 23 21 2 0.16451919D-01 0.21129052D+00 0.13182417D+06 0.13182417D+06 0.13182417D+06 0.11120061D+01  1  2 12  2  7  2        2 0.421090400058D-03 0.100000000000D+01
-.463211779014D-05 0.000000000000D+00 0.000000000000D+00 0.792296297343D-07 0.000000000000D+00  7 -2 2 23 -13 13 23 21 2 0.16451919D-01 0.19852881D+00 0.12016968D+06 0.12016968D+06 0.12016968D+06 0.11152322D+01  1  2  4  2  7  2        2 -.342298942074D-03 0.100000000000D+01
0.706742338145D-07 0.000000000000D+00 0.000000000000D+00 0.792296297343D-07 0.000000000000D+00  7 -2 21 23 -13 13 23 -2 2 0.16451919D-01 0.21129052D+00 0.13182417D+06 0.13182417D+06 0.13182417D+06 0.11120061D+01  1  2 12  4  7  2        2 0.198943902451D-05 0.100000000000D+01
  </mgrwgt>
  </event>
  <event>
  8     66 0.53686478E-06 0.49274182E+03 0.75467711E-02 0.89109764E-01
       -2 -1    0    0    0  501 0.00000000E+00 0.00000000E+00 0.52898779E+03 0.52898789E+03 0.32000000E+00 0.0000E+00 0.9000E+01
        2 -1    0    0  501    0 0.00000000E+00 0.00000000E+00 -.12723996E+04 0.12723997E+04 0.32000000E+00 0.0000E+00 0.9000E+01
       25  2    1    2    0    0 0.76044275E+03 0.20154059E+03 -.46538092E+03 0.96205278E+03 0.30012390E+03 0.0000E+00 0.0000E+00
       23  2    1    2    0    0 -.76044275E+03 -.20154059E+03 -.27803093E+03 0.83933479E+03 0.91048905E+02 0.0000E+00 0.0000E+00
       23  1    3    3    0    0 0.70415251E+02 0.50935053E+02 -.38257354E+02 0.13164940E+03 0.91188000E+02 0.0000E+00 0.9000E+01
      -13  1    4    4    0    0 -.74529858E+03 -.18984786E+03 -.28309041E+03 0.81954400E+03 0.10565837E+00 0.0000E+00 0.9000E+01
       13  1    4    4    0    0 -.15144179E+02 -.11692721E+02 0.50594796E+01 0.19790790E+02 0.10565837E+00 0.0000E+00 0.9000E+01
       23  1    3    3    0    0 0.69002750E+03 0.15060553E+03 -.42712357E+03 0.83040338E+03 0.91188000E+02 0.0000E+00 0.9000E+01
#aMCatNLO 1  0  0  1  2 0.49969074D+02 0.00000000D+00  -5  7  0 0.00000000D+00 0.00000000D+00 0.00000000D+00 0.00000000D+00 0.00000000D+00
  <mgrwgt>
 0.4499907821D-03    9    2    0
 0.820416965790322D+03 0.000000000000000D+00 0.000000000000000D+00 0.820416965790322D+03
 0.820416965790322D+03 0.000000000000000D+00 0.000000000000000D+00 -.820416965790322D+03
 0.127197891560667D+03 0.704152507895082D+02 0.509350533026506D+02 0.176455397986564D+02
 0.771476769854894D+03 -.745299559039501D+03 -.189848104497165D+03 0.605200044621514D+02
 0.240185843168922D+02 -.151431953974091D+02 -.116924805940507D+02 0.145210854725567D+02
 0.718140685848192D+03 0.690027503647402D+03 0.150605531788566D+03 -.926866297333645D+02
 0.000000000000000D+00 0.000000000000000D+00 0.000000000000000D+00 0.000000000000000D+00
 0.905207822350214D+03 0.000000000000000D+00 0.000000000000000D+00 0.905207822350214D+03
 0.828192444829728D+03 0.000000000000000D+00 0.000000000000000D+00 -.828192444829728D+03
 0.124619783963109D+03 0.675107500902282D+02 0.484331782818429D+02 0.176455397986564D+02
 0.792804448702061D+03 -.763342199945144D+03 -.205389650967587D+03 0.605200044621514D+02
 0.246115174165038D+02 -.157041018714956D+02 -.121756334804914D+02 0.145210854725567D+02
 0.699558870810491D+03 0.673675556369994D+03 0.136520312788601D+03 -.926866297333645D+02
 0.918056462877772D+02 0.378599953564172D+02 0.326117933776344D+02 0.770153775204862D+02
0.113135967502D-03 0.000000000000D+00 0.000000000000D+00 0.531856143222D-05 0.000000000000D+00  7 -2 2 23 -13 13 23 21 0 0.81382747D-01 0.19575380D+00 0.66124017D+06 0.66124017D+06 0.66124017D+06 0.10600356D+01  1  2  2  1  7  1       -2 0.322567483244D-03 0.100000000000D+01
-.628472939294D-05 0.000000000000D+00 -.434471904590D-06 0.531856143222D-05 0.000000000000D+00  7 -2 2 23 -13 13 23 21 2 0.81382747D-01 0.19575380D+00 0.66124017D+06 0.66124017D+06 0.66124017D+06 0.10600356D+01  1  2  3  1  7  1       -2 -.201348012241D-04 0.100000000000D+01
0.699612957678D-05 0.000000000000D+00 0.000000000000D+00 0.531856143222D-05 0.000000000000D+00  7 -2 2 23 -13 13 23 21 2 0.81382747D-01 0.19575380D+00 0.66124017D+06 0.66124017D+06 0.66124017D+06 0.10600356D+01  1  2 15  1  7  1       -2 0.224139608182D-04 0.100000000000D+01
0.814715997956D-03 0.000000000000D+00 0.000000000000D+00 0.531856143222D-05 0.000000000000D+00  7 -2 2 23 -13 13 23 21 2 0.90155007D-01 0.19575380D+00 0.70315531D+06 0.70315531D+06 0.70315531D+06 0.10581996D+01  1  2 12  1  7  1       -2 0.204623533355D-02 0.100000000000D+01
-.828720317516D-03 0.000000000000D+00 0.000000000000D+00 0.531856143222D-05 0.000000000000D+00  7 -2 2 23 -13 13 23 21 2 0.81382747D-01 0.19575380D+00 0.66124017D+06 0.66124017D+06 0.66124017D+06 0.10600356D+01  1  2  4  1  7  1       -2 -.265502582853D-02 0.100000000000D+01
-.130508500296D-02 0.000000000000D+00 -.136831878731D-03 0.531856143222D-05 0.000000000000D+00  7 -2 2 23 -13 13 23 21 2 0.90270981D-01 0.19575380D+00 0.66124017D+06 0.66124017D+06 0.66124017D+06 0.10600356D+01  1  2  5  1  7  1       -2 -.328907041447D-02 0.100000000000D+01
0.131294041828D-02 0.000000000000D+00 0.136100101497D-03 0.531856143222D-05 0.000000000000D+00  7 -2 2 23 -13 13 23 21 2 0.81382747D-01 0.19575380D+00 0.66124017D+06 0.66124017D+06 0.66124017D+06 0.10600356D+01  1  2  6  1  7  1       -2 0.420635363725D-02 0.100000000000D+01
0.135025865010D-04 0.000000000000D+00 0.000000000000D+00 0.531856143222D-05 0.000000000000D+00  7 21 2 23 -13 13 23 2 2 0.90155007D-01 0.19575380D+00 0.70315531D+06 0.70315531D+06 0.70315531D+06 0.10581996D+01  1  2 12  3  7  1       -2 0.310065288212D-03 0.100000000000D+01
-.213805942979D-04 0.000000000000D+00 -.229224383632D-05 0.531856143222D-05 0.000000000000D+00  7 21 2 23 -13 13 23 2 2 0.90270981D-01 0.19575380D+00 0.66124017D+06 0.66124017D+06 0.66124017D+06 0.10600356D+01  1  2  5  3  7  1       -2 -.493413876708D-03 0.100000000000D+01
  </mgrwgt>
  </event>
  <event>
  8     66 0.53686478E-06 0.86282757E+02 0.75467711E-02 0.10059974E+00
       -2 -1    0    0    0  501 0.00000000E+00 0.00000000E+00 0.30509369E+02 0.30511047E+02 0.32000000E+00 0.0000E+00 0.9000E+01
        2 -1    0    0  501    0 0.00000000E+00 0.00000000E+00 -.18284778E+04 0.18284778E+04 0.32000000E+00 0.0000E+00 0.9000E+01
       25  2    1    2    0    0 -.10773423E+03 0.38364081E+02 -.11288256E+04 0.11739327E+04 0.30131741E+03 0.0000E+00 0.0000E+00
       23  2    1    2    0    0 0.10773423E+03 -.38364081E+02 -.66914281E+03 0.68505620E+03 0.92040363E+02 0.0000E+00 0.0000E+00
       23  1    3    3    0    0 -.95326938E+02 -.64485087E+02 -.30358015E+03 0.33722650E+03 0.91188000E+02 0.0000E+00 0.9000E+01
      -13  1    4    4    0    0 0.97202637E+02 -.15647838E+02 -.63569809E+03 0.64327699E+03 0.10565837E+00 0.0000E+00 0.9000E+01
       13  1    4    4    0    0 0.10531594E+02 -.22716244E+02 -.33444719E+02 0.41779213E+02 0.10565837E+00 0.0000E+00 0.9000E+01
       23  1    3    3    0    0 -.12407292E+02 0.10284917E+03 -.82524547E+03 0.83670618E+03 0.91188000E+02 0.0000E+00 0.9000E+01
#aMCatNLO 1  0  0  2  1 0.17306593D+03 0.00000000D+00  -5  7  0 0.00000000D+00 0.00000000D+00 0.00000000D+00 0.00000000D+00 0.00000000D+00
  <mgrwgt>
 0.2530263212D-03    7    2    0
 0.236193332802112D+03 0.000000000000000D+00 0.000000000000000D+00 0.236193332802112D+03
 0.236193332802112D+03 0.000000000000000D+00 0.000000000000000D+00 -.236193332802112D+03
 0.171623757089140D+03 -.953269508000375D+02 -.644850528658679D+02 0.888476958702112D+02
 0.111941612918176D+03 0.972027838390372D+02 -.156478413713565D+02 -.532699594244353D+02
 0.371189486243901D+02 0.105314919775439D+02 -.227162561545158D+02 0.274021117804716D+02
 0.151702346972518D+03 -.124073250165437D+02 0.102849150391740D+03 -.629798482262475D+02
 0.000000000000000D+00 0.000000000000000D+00 -.000000000000000D+00 -.000000000000000D+00
 0.275824883924439D+03 0.000000000000000D+00 0.000000000000000D+00 0.275824883924439D+03
 0.559956267000102D+03 0.000000000000000D+00 0.000000000000000D+00 -.559956267000102D+03
 0.192540150582751D+03 -.142932561519066D+03 -.208045196671557D+02 0.888476958702112D+02
 0.891021339049730D+02 0.709211833093629D+02 0.846684400107281D+01 -.532699594244353D+02
 0.310620674905974D+02 0.161847549453105D+01 -.145381169287693D+02 0.274021117804716D+02
 0.190387067529453D+03 -.571272304074820D+02 0.143881904358519D+03 -.629798482262475D+02
 0.332689731416767D+03 0.127520133122654D+03 -.117006111763667D+03 -.284131383075663D+03
0.120928137871D-05 0.000000000000D+00 0.000000000000D+00 0.205111020921D-07 0.000000000000D+00  7 -2 2 23 -13 13 23 21 0 0.46938804D-02 0.28130441D+00 0.41685463D+05 0.41685463D+05 0.41685463D+05 0.11543084D+01  1  2  2  2  7  2        2 0.254538967328D-03 0.100000000000D+01
-.654483492680D-07 0.000000000000D+00 -.464395890535D-08 0.205111020921D-07 0.000000000000D+00  7 -2 2 23 -13 13 23 21 2 0.46938804D-02 0.28130441D+00 0.41685463D+05 0.41685463D+05 0.41685463D+05 0.11543084D+01  1  2  3  2  7  2        2 -.183556309339D-04 0.100000000000D+01
0.735814145422D-07 0.000000000000D+00 0.000000000000D+00 0.205111020921D-07 0.000000000000D+00  7 -2 2 23 -13 13 23 21 2 0.46938804D-02 0.28130441D+00 0.41685463D+05 0.41685463D+05 0.41685463D+05 0.11543084D+01  1  2 15  2  7  2        2 0.206366287926D-04 0.100000000000D+01
0.425125751245D-07 0.000000000000D+00 0.000000000000D+00 0.205111020921D-07 0.000000000000D+00  7 -2 2 23 -13 13 23 21 2 0.46938804D-02 0.65878246D+00 0.92903728D+05 0.92903728D+05 0.92903728D+05 0.11243548D+01  1  2 12  2  7  2        2 0.277512308158D-06 0.100000000000D+01
-.754430985190D-06 0.000000000000D+00 -.297664474224D-06 0.205111020921D-07 0.000000000000D+00  7 -2 2 23 -13 13 23 21 2 0.46938804D-02 0.68026144D+00 0.41685463D+05 0.41685463D+05 0.41685463D+05 0.11543084D+01  1  2  5  2  7  2        2 -.406766505829D-05 0.100000000000D+01
0.394535865142D-08 0.000000000000D+00 0.000000000000D+00 0.205111020921D-07 0.000000000000D+00  7 -2 21 23 -13 13 23 -2 2 0.46938804D-02 0.65878246D+00 0.92903728D+05 0.92903728D+05 0.92903728D+05 0.11243548D+01  1  2 12  4  7  2        2 0.381519688893D-09 0.100000000000D+01
-.543044446343D-07 0.000000000000D+00 -.287886421710D-07 0.205111020921D-07 0.000000000000D+00  7 -2 21 23 -13 13 23 -2 2 0.46938804D-02 0.68026144D+00 0.41685463D+05 0.41685463D+05 0.41685463D+05 0.11543084D+01  1  2  5  4  7  2        2 -.387273358682D-08 0.100000000000D+01
  </mgrwgt>
  </event>
  <event>
  8     66 0.53686478E-06 0.23749418E+03 0.75467711E-02 0.10184076E+00
       -2 -1    0    0    0  501 0.00000000E+00 0.00000000E+00 0.83865372E+02 0.83865983E+02 0.32000000E+00 0.0000E+00 0.9000E+01
        2 -1    0    0  501    0 0.00000000E+00 0.00000000E+00 -.88260999E+03 0.88261005E+03 0.32000000E+00 0.0000E+00 0.9000E+01
       25  2    1    2    0    0 0.17076996E+03 -.94186798E+01 -.56845809E+03 0.66520512E+03 0.30017020E+03 0.0000E+00 0.0000E+00
       23  2    1    2    0    0 -.17076996E+03 0.94186798E+01 -.23028652E+03 0.30127092E+03 0.92093372E+02 0.0000E+00 0.0000E+00
       23  1    3    3    0    0 -.72946177E+01 -.35471266E+01 -.39605348E+02 0.99747824E+02 0.91188000E+02 0.0000E+00 0.9000E+01
      -11  1    4    4    0    0 -.50630670E+02 -.27497028E+02 -.30371113E+02 0.65130299E+02 0.51099893E-03 0.0000E+00 0.9000E+01
       11  1    4    4    0    0 -.12013929E+03 0.36915707E+02 -.19991541E+03 0.23614062E+03 0.51099893E-03 0.0000E+00 0.9000E+01
       23  1    3    3    0    0 0.17806458E+03 -.58715532E+01 -.52885275E+03 0.56545729E+03 0.91188000E+02 0.0000E+00 0.9000E+01
#aMCatNLO 1  0  0  2  1 0.72387246D+02 0.00000000D+00  -5  7  0 0.00000000D+00 0.00000000D+00 0.00000000D+00 0.00000000D+00 0.00000000D+00
  <mgrwgt>
 0.1499983385D-03    4    2    0
 0.272067525889548D+03 0.000000000000000D+00 0.000000000000000D+00 0.272067525889548D+03
 0.272067525889548D+03 0.000000000000000D+00 0.000000000000000D+00 -.272067525889548D+03
 0.119031705352113D+03 -.729461772110535D+01 -.354712655734934D+01 0.760756332903074D+02
 0.711001974776104D+02 -.506306705049434D+02 -.274970275281011D+02 0.416615741744584D+02
 0.125966682372044D+03 -.120139293022208D+03 0.369157073187957D+02 -.844901728584428D+01
 0.228036466577329D+03 0.178064581248257D+03 -.587155323334523D+01 -.109288190178921D+03
 0.000000000000000D+00 -.000000000000000D+00 0.000000000000000D+00 0.000000000000000D+00
 0.330587783939922D+03 0.000000000000000D+00 0.000000000000000D+00 0.330587783939922D+03
 0.297805469955013D+03 0.000000000000000D+00 0.000000000000000D+00 -.297805469955013D+03
 0.119354941394839D+03 0.736075848071873D+01 -.941636582937814D+01 0.760756332903074D+02
 0.668338395381700D+02 -.421508532371231D+02 -.308930561146429D+02 0.416615741744584D+02
 0.110413896006121D+03 -.105607244561398D+03 0.310958587966815D+02 -.844901728584428D+01
 0.252326160002557D+03 0.207595996291388D+03 -.176984035675015D+02 -.109288190178921D+03
 0.794644169532476D+02 -.671986569735860D+02 0.269119667148410D+02 0.327823139849095D+02
0.162160952282D-05 0.000000000000D+00 0.000000000000D+00 0.166869101060D-06 0.000000000000D+00  7 -2 2 23 -11 11 23 21 0 0.12902416D-01 0.13578620D+00 0.56403485D+05 0.56403485D+05 0.56403485D+05 0.11427202D+01  1  2  2  2  7  2        2 0.248134332770D-03 0.100000000000D+01
-.880662121216D-07 0.000000000000D+00 -.622740754724D-08 0.166869101060D-06 0.000000000000D+00  7 -2 2 23 -11 11 23 21 2 0.12902416D-01 0.13578620D+00 0.56403485D+05 0.56403485D+05 0.56403485D+05 0.11427202D+01  1  2  3  2  7  2        2 -.175966380169D-04 0.100000000000D+01
0.104723219125D-06 0.000000000000D+00 0.000000000000D+00 0.166869101060D-06 0.000000000000D+00  7 -2 2 23 -11 11 23 21 2 0.12902416D-01 0.13578620D+00 0.56403485D+05 0.56403485D+05 0.56403485D+05 0.11427202D+01  1  2 15  2  7  2        2 0.209248988292D-04 0.100000000000D+01
-.507799990275D-06 0.000000000000D+00 0.000000000000D+00 0.166869101060D-06 0.000000000000D+00  7 -2 2 23 -11 11 23 21 2 0.12902416D-01 0.13578620D+00 0.56403485D+05 0.56403485D+05 0.56403485D+05 0.11427202D+01  1  2  4  2  7  2        2 -.101464255117D-03 0.100000000000D+01
  </mgrwgt>
  </event>
  <event>
  8     66 0.53686478E-06 0.23133433E+03 0.75467711E-02 0.10059964E+00
       -2 -1    0    0    0  501 0.00000000E+00 0.00000000E+00 0.13267822E+03 0.13267861E+03 0.32000000E+00 0.0000E+00 0.9000E+01
        2 -1    0    0  501    0 0.00000000E+00 0.00000000E+00 -.70859639E+03 0.70859646E+03 0.32000000E+00 0.0000E+00 0.9000E+01
       25  2    1    2    0    0 -.53930898E+02 -.14370973E+03 -.12650009E+03 0.35756530E+03 0.29713574E+03 0.0000E+00 0.0000E+00
       23  2    1    2    0    0 0.53930898E+02 0.14370973E+03 -.44941808E+03 0.48370977E+03 0.91855856E+02 0.0000E+00 0.0000E+00
       23  1    3    3    0    0 0.52140679E+02 -.23664197E+02 0.34247136E+02 0.11299010E+03 0.91188000E+02 0.0000E+00 0.9000E+01
      -13  1    4    4    0    0 -.13736794E+02 0.66913453E+02 -.11276933E+03 0.13184476E+03 0.10565837E+00 0.0000E+00 0.9000E+01
       13  1    4    4    0    0 0.67667692E+02 0.76796280E+02 -.33664876E+03 0.35186501E+03 0.10565837E+00 0.0000E+00 0.9000E+01
       23  1    3    3    0    0 -.10607158E+03 -.12004554E+03 -.16074722E+03 0.24457520E+03 0.91188000E+02 0.0000E+00 0.9000E+01
#aMCatNLO 1  0  0  2  2 0.14551724D+03 0.00000000D+00  -5  7  0 0.00000000D+00 0.00000000D+00 0.00000000D+00 0.00000000D+00 0.00000000D+00
  <mgrwgt>
 0.1756279839D-03    4    2    0
 0.306619475303600D+03 0.000000000000000D+00 0.000000000000000D+00 0.306619475303600D+03
 0.306619475303600D+03 0.000000000000000D+00 0.000000000000000D+00 -.306619475303600D+03
 0.187168967250541D+03 0.521406790847364D+02 -.236641968657374D+02 0.153095807679101D+03
 0.749654516648413D+02 -.137369002702789D+02 0.669134392161516D+02 -.308821658331219D+02
 0.166547145153266D+03 0.676677985634810D+02 0.767962944285399D+02 -.131382456052246D+03
 0.184557386538551D+03 -.106071577377939D+03 -.120045536778954D+03 0.916881420626690D+01
 0.000000000000000D+00 0.000000000000000D+00 0.000000000000000D+00 0.000000000000000D+00
 0.395151920555157D+03 0.000000000000000D+00 0.000000000000000D+00 0.395151920555157D+03
 0.381291549477190D+03 0.000000000000000D+00 0.000000000000000D+00 -.381291549477190D+03
 0.181068017356796D+03 0.961924497048607D+01 -.306515801028671D+02 0.153095807679101D+03
 0.776889994504278D+02 -.313643696899154D+02 0.640167851662238D+02 -.308821658331219D+02
 0.152372388975567D+03 0.308411990499447D+02 0.707447213929273D+02 -.131382456052246D+03
 0.219138218704088D+03 -.152687525254119D+03 -.127705755667568D+03 0.916881420626690D+01
 0.146175845545468D+03 0.143591450923603D+03 0.235958292112842D+02 0.138603710779667D+02
0.313008315253D-05 0.000000000000D+00 0.000000000000D+00 0.135848762989D-07 0.000000000000D+00  7 -2 2 23 -13 13 23 21 0 0.20412070D-01 0.10901486D+00 0.53515571D+05 0.53515571D+05 0.53515571D+05 0.11447087D+01  1  2  2  2  7  2        2 0.301670157089D-03 0.100000000000D+01
-.157110387712D-06 0.000000000000D+00 -.120203434755D-07 0.135848762989D-07 0.000000000000D+00  7 -2 2 23 -13 13 23 21 2 0.20412070D-01 0.10901486D+00 0.53515571D+05 0.53515571D+05 0.53515571D+05 0.11447087D+01  1  2  3  2  7  2        2 -.198413556664D-04 0.100000000000D+01
0.199300117179D-06 0.000000000000D+00 0.000000000000D+00 0.135848762989D-07 0.000000000000D+00  7 -2 2 23 -13 13 23 21 2 0.20412070D-01 0.10901486D+00 0.53515571D+05 0.53515571D+05 0.53515571D+05 0.11447087D+01  1  2 15  2  7  2        2 0.251694656661D-04 0.100000000000D+01
-.104023316141D-05 0.000000000000D+00 0.000000000000D+00 0.135848762989D-07 0.000000000000D+00  7 -2 2 23 -13 13 23 21 2 0.20412070D-01 0.10901486D+00 0.53515571D+05 0.53515571D+05 0.53515571D+05 0.11447087D+01  1  2  4  2  7  2        2 -.131370283226D-03 0.100000000000D+01
  </mgrwgt>
  </event>
  <event>
  7     66 0.53686478E-06 0.12653217E+04 0.75467711E-02 0.78327015E-01
       -2 -1    0    0    0  501 0.00000000E+00 0.00000000E+00 0.11711024E+04 0.11711024E+04 0.32000000E+00 0.0000E+00 0.9000E+01
        2 -1    0    0  501    0 0.00000000E+00 0.00000000E+00 -.13814769E+04 0.13814769E+04 0.32000000E+00 0.0000E+00 0.9000E+01
       23  2    1    2    0    0 -.10920975E+04 -.58691674E+03 -.16857304E+03 0.12545140E+04 0.90776110E+02 0.0000E+00 0.0000E+00
       23  1    1    2    0    0 0.74499369E+02 0.11439919E+03 0.41494036E+02 0.16933499E+03 0.91188000E+02 0.0000E+00 0.9000E+01
      -11  1    3    3    0    0 -.63333869E+03 -.36818019E+03 -.13713051E+03 0.74530486E+03 0.51099893E-03 0.0000E+00 0.9000E+01
       11  1    3    3    0    0 -.45875882E+03 -.21873655E+03 -.31442533E+02 0.50920916E+03 0.51099893E-03 0.0000E+00 0.9000E+01
       23  1    1    2    0    0 0.10175981E+04 0.47251754E+03 -.83295492E+02 0.11287303E+04 0.91188000E+02 0.0000E+00 0.9000E+01
#aMCatNLO 1  0  0  2  2 0.22954347D+04 0.00000000D+00  -5  7  0 0.00000000D+00 0.00000000D+00 0.00000000D+00 0.00000000D+00 0.00000000D+00
  <mgrwgt>
 0.9654101761D-03    3    2    0
 0.127194770897916D+04 0.000000000000000D+00 0.000000000000000D+00 0.127194770897916D+04
 0.127194770897916D+04 0.000000000000000D+00 0.000000000000000D+00 -.127194770897916D+04
 0.173344499855266D+03 0.744993693333445D+02 0.114399194125224D+03 0.556393083934874D+02
 0.736508666694874D+03 -.633338694342376D+03 -.368180188281422D+03 -.759635657563019D+02
 0.508347181824046D+03 -.458758817243856D+03 -.218736550707102D+03 0.105605991415037D+02
 0.112569506958414D+04 0.101759814225289D+04 0.472517544863300D+03 0.976365822131078D+01
 0.000000000000000D+00 -.000000000000000D+00 0.000000000000000D+00 0.000000000000000D+00
 0.424339328009355D+04 0.000000000000000D+00 0.000000000000000D+00 0.424339328009355D+04
 0.223383266707987D+04 0.000000000000000D+00 0.000000000000000D+00 -.223383266707987D+04
 0.164114795536681D+03 0.124475841148366D+03 -.533358246845323D+01 0.556393083934874D+02
 0.107847525953177D+04 -.364546296940995D+03 -.101214841771664D+04 -.759635657563019D+02
 0.707395968624246D+03 -.278711759354651D+03 -.650090213254317D+03 0.105605991415037D+02
 0.147644423926889D+04 0.140296533646992D+04 -.450738589393298D+03 0.976365822131078D+01
 0.305079568421183D+04 -.884183121322641D+03 0.211831080283271D+04 0.200956061301368D+04
0.326388742816D-02 0.000000000000D+00 0.000000000000D+00 0.116633856404D-08 0.000000000000D+00  7 -2 2 23 -11 11 23 21 0 0.18016960D+00 0.21253491D+00 0.16010390D+07 0.16010390D+07 0.16010390D+07 0.10345227D+01  1  2  2  2  7  2        2 0.962137296743D-03 0.100000000000D+01
-.181321065125D-03 0.000000000000D+00 -.125341871254D-04 0.116633856404D-08 0.000000000000D+00  7 -2 2 23 -11 11 23 21 2 0.18016960D+00 0.21253491D+00 0.16010390D+07 0.16010390D+07 0.16010390D+07 0.10345227D+01  1  2  3  2  7  2        2 -.572044974007D-04 0.100000000000D+01
0.191695109241D-03 0.000000000000D+00 0.000000000000D+00 0.116633856404D-08 0.000000000000D+00  7 -2 2 23 -11 11 23 21 2 0.18016960D+00 0.21253491D+00 0.16010390D+07 0.16010390D+07 0.16010390D+07 0.10345227D+01  1  2 15  2  7  2        2 0.604773768051D-04 0.100000000000D+01
  </mgrwgt>
  </event>
  <event>
  8     66 0.53686478E-06 0.12212263E+03 0.75467711E-02 0.93778081E-01
       -2 -1    0    0    0  501 0.00000000E+00 0.00000000E+00 0.72987886E+02 0.72988588E+02 0.32000000E+00 0.0000E+00 0.9000E+01
        2 -1    0    0  501    0 0.00000000E+00 0.00000000E+00 -.20821296E+04 0.20821296E+04 0.32000000E+00 0.0000E+00 0.9000E+01
       25  2    1    2    0    0 0.84345132E+02 0.31143802E+03 -.11511007E+04 0.12325522E+04 0.30007401E+03 0.0000E+00 0.0000E+00
       23  2    1    2    0    0 -.84345132E+02 -.31143802E+03 -.85804106E+03 0.92256603E+03 0.10385514E+03 0.0000E+00 0.0000E+00
       23  1    3    3    0    0 0.15593122E+03 0.12647090E+03 -.63441811E+03 0.67164799E+03 0.91188000E+02 0.0000E+00 0.9000E+01
      -13  1    4    4    0    0 -.82531147E+02 -.25190936E+03 -.78365568E+03 0.82727623E+03 0.10565837E+00 0.0000E+00 0.9000E+01
       13  1    4    4    0    0 -.18139853E+01 -.59528663E+02 -.74385373E+02 0.95289806E+02 0.10565837E+00 0.0000E+00 0.9000E+01
       23  1    3    3    0    0 -.71586087E+02 0.18496712E+03 -.51668257E+03 0.56090421E+03 0.91188000E+02 0.0000E+00 0.9000E+01
#aMCatNLO 1  0  0  2  1 0.27154316D+03 0.00000000D+00  -5  7  0 0.00000000D+00 0.00000000D+00 0.00000000D+00 0.00000000D+00 0.00000000D+00
  <mgrwgt>
 0.4146692691D-03    8    2    0
 0.389834608408888D+03 0.000000000000000D+00 0.000000000000000D+00 0.389834608408888D+03
 0.389834608408888D+03 0.000000000000000D+00 0.000000000000000D+00 -.389834608408888D+03
 0.221690079096698D+03 0.155931220458049D+03 0.126470901932261D+03 -.228430575187277D+02
 0.267296559163746D+03 -.825312234722140D+02 -.251909561431264D+03 -.343164763993251D+02
 0.717097408698118D+02 -.181391160360486D+01 -.595284696781938D+02 0.399419323278461D+02
 0.218972837687520D+03 -.715860853822300D+02 0.184967129177197D+03 0.172176015902068D+02
 0.000000000000000D+00 -.000000000000000D+00 -.000000000000000D+00 -.000000000000000D+00
 0.492494778276418D+03 0.000000000000000D+00 0.000000000000000D+00 0.492494778276418D+03
 0.644111736498278D+03 0.000000000000000D+00 0.000000000000000D+00 -.644111736498278D+03
 0.304675541772719D+03 0.224993579938204D+03 0.182669149339146D+03 -.228430575187277D+02
 0.205373368692507D+03 -.205140643364243D+02 -.201444218532188D+03 -.343164763993251D+02
 0.623587001044963D+02 0.157766803697426D+02 -.452144432361082D+02 0.399419323278461D+02
 0.253195063119465D+03 -.963479523782322D+01 0.235378872374467D+03 0.172176015902068D+02
 0.311003841085509D+03 -.210621400733699D+03 -.171389359945318D+03 -.151616958221861D+03
0.615909862258D-05 0.000000000000D+00 0.000000000000D+00 0.979179076714D-08 0.000000000000D+00  7 -2 2 23 -13 13 23 21 0 0.11228961D-01 0.32032769D+00 0.14571230D+06 0.14571230D+06 0.14571230D+06 0.11085472D+01  1  2  2  2  7  2        2 0.249236298456D-03 0.100000000000D+01
-.341988188779D-06 0.000000000000D+00 -.236525604386D-07 0.979179076714D-08 0.000000000000D+00  7 -2 2 23 -13 13 23 21 2 0.11228961D-01 0.32032769D+00 0.14571230D+06 0.14571230D+06 0.14571230D+06 0.11085472D+01  1  2  3  2  7  2        2 -.170064481057D-04 0.100000000000D+01
0.393322883777D-06 0.000000000000D+00 0.000000000000D+00 0.979179076714D-08 0.000000000000D+00  7 -2 2 23 -13 13 23 21 2 0.11228961D-01 0.32032769D+00 0.14571230D+06 0.14571230D+06 0.14571230D+06 0.11085472D+01  1  2 15  2  7  2        2 0.195592287430D-04 0.100000000000D+01
0.486224592244D-06 0.000000000000D+00 0.000000000000D+00 0.979179076714D-08 0.000000000000D+00  7 -2 2 23 -13 13 23 21 2 0.11228961D-01 0.54906771D+00 0.29070649D+06 0.29070649D+06 0.29070649D+06 0.10855644D+01  1  2 12  2  7  2        2 0.272700227018D-05 0.100000000000D+01
-.298648796670D-05 0.000000000000D+00 -.160508803869D-05 0.979179076714D-08 0.000000000000D+00  7 -2 2 23 -13 13 23 21 2 0.11228961D-01 0.56198731D+00 0.14571230D+06 0.14571230D+06 0.14571230D+06 0.11085472D+01  1  2  5  2  7  2        2 -.158129069561D-04 0.100000000000D+01
0.353877897870D-05 0.000000000000D+00 0.138107448689D-05 0.979179076714D-08 0.000000000000D+00  7 -2 2 23 -13 13 23 21 2 0.11228961D-01 0.32032769D+00 0.14571230D+06 0.14571230D+06 0.14571230D+06 0.11085472D+01  1  2  6  2  7  2        2 0.175977016264D-03 0.100000000000D+01
0.291240759156D-07 0.000000000000D+00 0.000000000000D+00 0.979179076714D-08 0.000000000000D+00  7 -2 21 23 -13 13 23 -2 2 0.11228961D-01 0.54906771D+00 0.29070649D+06 0.29070649D+06 0.29070649D+06 0.10855644D+01  1  2 12  4  7  2        2 0.524618971396D-08 0.100000000000D+01
-.103440469084D-06 0.000000000000D+00 -.995922759288D-07 0.979179076714D-08 0.000000000000D+00  7 -2 21 23 -13 13 23 -2 2 0.11228961D-01 0.56198731D+00 0.14571230D+06 0.14571230D+06 0.14571230D+06 0.11085472D+01  1  2  5  4  7  2        2 -.161677584261D-07 0.100000000000D+01
  </mgrwgt>
  </event>
  <event>
  8     66 0.53686478E-06 0.38623857E+03 0.75467711E-02 0.92772115E-01
       -2 -1    0    0    0  501 0.00000000E+00 0.00000000E+00 0.22561735E+03 0.22561758E+03 0.32000000E+00 0.0000E+00 0.9000E+01
        2 -1    0    0  501    0 0.00000000E+00 0.00000000E+00 -.71724151E+03 0.71724158E+03 0.32000000E+00 0.0000E+00 0.9000E+01
       25  2    1    2    0    0 0.18841193E+03 -.27832897E+03 -.32788041E+03 0.55814615E+03 0.30175404E+03 0.0000E+00 0.0000E+00
       23  2    1    2    0    0 -.18841193E+03 0.27832897E+03 -.16374375E+03 0.38471300E+03 0.90697335E+02 0.0000E+00 0.0000E+00
       23  1    3    3    0    0 0.14237758E+03 -.45153235E+02 -.22138388E+03 0.28219898E+03 0.91188000E+02 0.0000E+00 0.9000E+01
      -11  1    4    4    0    0 -.19158034E+03 0.28004360E+03 -.15085146E+03 0.37132682E+03 0.51099893E-03 0.0000E+00 0.9000E+01
       11  1    4    4    0    0 0.31684048E+01 -.17146335E+01 -.12892285E+02 0.13386179E+02 0.51099893E-03 0.0000E+00 0.9000E+01
       23  1    3    3    0    0 0.46034350E+02 -.23317573E+03 -.10649653E+03 0.27594718E+03 0.91188000E+02 0.0000E+00 0.9000E+01
#aMCatNLO 1  0  0  1  1 0.34087031D+03 0.00000000D+00  -5  7  0 0.00000000D+00 0.00000000D+00 0.00000000D+00 0.00000000D+00 0.00000000D+00
  <mgrwgt>
 0.3205734507D-03    3    2    0
 0.402271386677981D+03 0.000000000000000D+00 0.000000000000000D+00 0.402271386677981D+03
 0.402271386677981D+03 0.000000000000000D+00 0.000000000000000D+00 -.402271386677981D+03
 0.195435511294097D+03 0.142377583824483D+03 -.451532354369084D+02 -.870034291546403D+02
 0.342985702357720D+03 -.191580339055084D+03 0.280043598575539D+03 0.501173483558335D+02
 0.780955646655449D+01 0.316840479925460D+01 -.171463347473943D+01 -.692895484757018D+01
 0.258312003237591D+03 0.460343504313466D+02 -.233175729663891D+03 0.438150356463771D+02
 0.000000000000000D+00 0.000000000000000D+00 -.000000000000000D+00 -.000000000000000D+00
 0.599431664137184D+03 0.000000000000000D+00 0.000000000000000D+00 0.599431664137184D+03
 0.615596058332167D+03 0.000000000000000D+00 0.000000000000000D+00 -.615596058332167D+03
 0.191418841266138D+03 0.140148798566366D+03 0.333862100785423D+02 -.870034291546403D+02
 0.493404089969837D+03 -.196399034325907D+03 0.449848048465918D+03 0.501173483558335D+02
 0.771732935144730D+01 0.307894970074890D+01 0.143764591582966D+01 -.692895484757018D+01
 0.181234104236682D+03 0.435019919917477D+02 -.143938766628483D+03 0.438150356463771D+02
 0.341253357645246D+03 0.966929406704503D+01 -.340733137831806D+03 -.161643941949826D+02
0.840731956312D-05 0.000000000000D+00 0.000000000000D+00 0.877055851335D-07 0.000000000000D+00  7 -2 2 23 -11 11 23 21 0 0.34710385D-01 0.11034487D+00 0.14918023D+06 0.14918023D+06 0.14918023D+06 0.11077398D+01  1  2  2  1  7  1       -2 0.317250370485D-03 0.100000000000D+01
-.466133906761D-06 0.000000000000D+00 -.322863208205D-07 0.877055851335D-07 0.000000000000D+00  7 -2 2 23 -11 11 23 21 2 0.34710385D-01 0.11034487D+00 0.14918023D+06 0.14918023D+06 0.14918023D+06 0.11077398D+01  1  2  3  1  7  1       -2 -.215839420395D-04 0.100000000000D+01
0.537900238559D-06 0.000000000000D+00 0.000000000000D+00 0.877055851335D-07 0.000000000000D+00  7 -2 2 23 -11 11 23 21 2 0.34710385D-01 0.11034487D+00 0.14918023D+06 0.14918023D+06 0.14918023D+06 0.11077398D+01  1  2 15  1  7  1       -2 0.249070222176D-04 0.100000000000D+01
  </mgrwgt>
  </event>
  <event>
  8     66 0.53686478E-06 0.28396997E+03 0.75467711E-02 0.94132758E-01
       -2 -1    0    0    0  501 0.00000000E+00 0.00000000E+00 0.13949995E+03 0.13950032E+03 0.32000000E+00 0.0000E+00 0.9000E+01
        2 -1    0    0  501    0 0.00000000E+00 0.00000000E+00 -.18870885E+04 0.18870885E+04 0.32000000E+00 0.0000E+00 0.9000E+01
       25  2    1    2    0    0 0.10851467E+03 -.43990815E+03 -.74160493E+03 0.91933347E+03 0.29983586E+03 0.0000E+00 0.0000E+00
       23  2    1    2    0    0 -.10851467E+03 0.43990815E+03 -.10059836E+04 0.11072553E+04 0.93363861E+02 0.0000E+00 0.0000E+00
       23  1    3    3    0    0 -.32530318E+02 -.32472342E+03 -.43858783E+03 0.55423646E+03 0.91188000E+02 0.0000E+00 0.9000E+01
      -13  1    4    4    0    0 -.11504593E+03 0.41329461E+03 -.88894975E+03 0.98705607E+03 0.10565837E+00 0.0000E+00 0.9000E+01
       13  1    4    4    0    0 0.65312623E+01 0.26613537E+02 -.11703381E+03 0.12019926E+03 0.10565837E+00 0.0000E+00 0.9000E+01
       23  1    3    3    0    0 0.14104499E+03 -.11518473E+03 -.30301710E+03 0.36509701E+03 0.91188000E+02 0.0000E+00 0.9000E+01
#aMCatNLO 1  0  0  2  1 0.44590062D+02 0.00000000D+00  -5  7  0 0.00000000D+00 0.00000000D+00 0.00000000D+00 0.00000000D+00 0.00000000D+00
  <mgrwgt>
 0.4626141406D-03    9    2    0
 0.513078112809088D+03 0.000000000000000D+00 0.000000000000000D+00 0.513078112809088D+03
 0.513078112809088D+03 0.000000000000000D+00 0.000000000000000D+00 -.513078112809088D+03
 0.347645270533879D+03 -.325303178115536D+02 -.324723417984097D+03 0.777075480013294D+02
 0.435449216670035D+03 -.115046089967208D+03 0.413295105989197D+03 -.746161701455033D+02
 0.380712087616074D+02 0.653141790107910D+01 0.266130418390731D+02 -.264292171818065D+02
 0.204990529652655D+03 0.141044989877683D+03 -.115184729844173D+03 0.233378393259803D+02
 0.000000000000000D+00 0.000000000000000D+00 -.000000000000000D+00 -.000000000000000D+00
 0.528141230991521D+03 0.000000000000000D+00 0.000000000000000D+00 0.528141230991521D+03
 0.547657225311519D+03 0.000000000000000D+00 0.000000000000000D+00 -.547657225311519D+03
 0.339929324283416D+03 -.439218658262735D+02 -.315069993572443D+03 0.777075480013294D+02
 0.451284689029637D+03 -.129737255026531D+03 0.425744691527181D+03 -.746161701455033D+02
 0.386382486202677D+02 0.526051657119367D+01 0.276900289093875D+02 -.264292171818065D+02
 0.197272303535534D+03 0.134380409171326D+03 -.109537031568131D+03 0.233378393259803D+02
 0.486738908341860D+02 0.340181951102850D+02 -.288276952959936D+02 -.195159943199977D+02
0.110354829506D-04 0.000000000000D+00 0.000000000000D+00 0.414158219173D-06 0.000000000000D+00  7 -2 2 23 -13 13 23 21 0 0.21461562D-01 0.29032133D+00 0.24945948D+06 0.24945948D+06 0.24945948D+06 0.10905298D+01  1  2  2  2  7  2        2 0.196366420241D-03 0.100000000000D+01
-.612542904923D-06 0.000000000000D+00 -.423791602397D-07 0.414158219173D-06 0.000000000000D+00  7 -2 2 23 -13 13 23 21 2 0.21461562D-01 0.29032133D+00 0.24945948D+06 0.24945948D+06 0.24945948D+06 0.10905298D+01  1  2  3  2  7  2        2 -.129624618728D-04 0.100000000000D+01
0.692050229806D-06 0.000000000000D+00 0.000000000000D+00 0.414158219173D-06 0.000000000000D+00  7 -2 2 23 -13 13 23 21 2 0.21461562D-01 0.29032133D+00 0.24945948D+06 0.24945948D+06 0.24945948D+06 0.10905298D+01  1  2 15  2  7  2        2 0.146449736759D-04 0.100000000000D+01
0.276992145263D-04 0.000000000000D+00 0.000000000000D+00 0.414158219173D-06 0.000000000000D+00  7 -2 2 23 -13 13 23 21 2 0.21461562D-01 0.31393729D+00 0.27283067D+06 0.27283067D+06 0.27283067D+06 0.10876153D+01  1  2 12  2  7  2        2 0.479068495024D-03 0.100000000000D+01
-.264838803607D-04 0.000000000000D+00 0.000000000000D+00 0.414158219173D-06 0.000000000000D+00  7 -2 2 23 -13 13 23 21 2 0.21461562D-01 0.29032133D+00 0.24945948D+06 0.24945948D+06 0.24945948D+06 0.10905298D+01  1  2  4  2  7  2        2 -.560444479336D-03 0.100000000000D+01
-.886441288038D-04 0.000000000000D+00 -.148322176620D-04 0.414158219173D-06 0.000000000000D+00  7 -2 2 23 -13 13 23 21 2 0.21461562D-01 0.31390707D+00 0.24945948D+06 0.24945948D+06 0.24945948D+06 0.10905298D+01  1  2  5  2  7  2        2 -.154704190980D-02 0.100000000000D+01
0.895743999836D-04 0.000000000000D+00 0.147870870095D-04 0.414158219173D-06 0.000000000000D+00  7 -2 2 23 -13 13 23 21 2 0.21461562D-01 0.29032133D+00 0.24945948D+06 0.24945948D+06 0.24945948D+06 0.10905298D+01  1  2  6  2  7  2        2 0.189554843463D-02 0.100000000000D+01
0.367197593159D-06 0.000000000000D+00 0.000000000000D+00 0.414158219173D-06 0.000000000000D+00  7 -2 21 23 -13 13 23 -2 2 0.21461562D-01 0.31393729D+00 0.27283067D+06 0.27283067D+06 0.27283067D+06 0.10876153D+01  1  2 12  4  7  2        2 0.121218572709D-05 0.100000000000D+01
-.112835876664D-05 0.000000000000D+00 -.193939856030D-06 0.414158219173D-06 0.000000000000D+00  7 -2 21 23 -13 13 23 -2 2 0.21461562D-01 0.31390707D+00 0.24945948D+06 0.24945948D+06 0.24945948D+06 0.10905298D+01  1  2  5  4  7  2        2 -.377751770591D-05 0.100000000000D+01
  </mgrwgt>
  </event>
  <event>
  8     66 0.53686478E-06 0.36988383E+03 0.75467711E-02 0.81651272E-01
       -2 -1    0    0    0  501 0.00000000E+00 0.00000000E+00 0.20711219E+03 0.20711243E+03 0.32000000E+00 0.0000E+00 0.9000E+01
        2 -1    0    0  501    0 0.00000000E+00 0.00000000E+00 -.10308300E+04 0.10308301E+04 0.32000000E+00 0.0000E+00 0.9000E+01
       25  2    1    2    0    0 0.30763341E+03 0.78810203E+02 -.79287866E+03 0.90558072E+03 0.30094934E+03 0.0000E+00 0.0000E+00
       23  2    1    2    0    0 -.30763341E+03 -.78810203E+02 -.30839195E+02 0.33236180E+03 0.93080329E+02 0.0000E+00 0.0000E+00
       23  1    3    3    0    0 0.10696405E+02 0.32526359E+02 -.34555709E+03 0.35902275E+03 0.91188000E+02 0.0000E+00 0.9000E+01
      -11  1    4    4    0    0 -.25818038E+03 -.96737189E+02 -.10327132E+02 0.27590187E+03 0.51099893E-03 0.0000E+00 0.9000E+01
       11  1    4    4    0    0 -.49453028E+02 0.17926986E+02 -.20512063E+02 0.56459929E+02 0.51099893E-03 0.0000E+00 0.9000E+01
       23  1    3    3    0    0 0.29693701E+03 0.46283844E+02 -.44732157E+03 0.54655797E+03 0.91188000E+02 0.0000E+00 0.9000E+01
#aMCatNLO 1  0  0  2  1 0.18270851D+04 0.00000000D+00  -5  7  0 0.00000000D+00 0.00000000D+00 0.00000000D+00 0.00000000D+00 0.00000000D+00
  <mgrwgt>
 0.3240344688D-03    5    2    0
 0.462058055156274D+03 0.000000000000000D+00 0.000000000000000D+00 0.462058055156274D+03
 0.462058055156274D+03 0.000000000000000D+00 0.000000000000000D+00 -.462058055156274D+03
 0.172930626129680D+03 0.106964052895725D+02 0.325263593523965D+02 -.142889373190462D+03
 0.360391964393891D+03 -.258180384903596D+03 -.967371891643212D+02 0.232093026787331D+03
 0.573499301106056D+02 -.494530282160532D+02 0.179269862448484D+02 0.228480994424178D+02
 0.333443589678371D+03 0.296937007830076D+03 0.462838435670763D+02 -.112051753039287D+03
 0.000000000000000D+00 0.000000000000000D+00 -.000000000000000D+00 -.000000000000000D+00
 0.149501690137814D+04 0.000000000000000D+00 0.000000000000000D+00 0.149501690137814D+04
 0.279462130382351D+04 0.000000000000000D+00 0.000000000000000D+00 -.279462130382351D+04
 0.367927901934490D+03 -.320475026355176D+03 0.627221985408790D+02 -.142889373190462D+03
 0.128947013621298D+04 -.126840240327503D+04 -.462628014083204D+01 0.232093026787331D+03
 0.227654730022857D+03 -.223963360261008D+03 0.338386423227518D+02 0.228480994424178D+02
 0.162440991642420D+03 -.669656399201614D+01 0.739688116255517D+02 -.112051753039287D+03
 0.224214444538891D+04 0.181953735388323D+04 -.165903372348350D+03 -.129960440244537D+04
0.116865017152D-04 0.000000000000D+00 0.000000000000D+00 0.134136736749D-06 0.000000000000D+00  7 -2 2 23 -11 11 23 21 0 0.31863436D-01 0.15858926D+00 0.13681405D+06 0.13681405D+06 0.13681405D+06 0.11107192D+01  1  2  2  2  7  2        2 0.319791435356D-03 0.100000000000D+01
-.610169639901D-06 0.000000000000D+00 -.448792437128D-07 0.134136736749D-06 0.000000000000D+00  7 -2 2 23 -11 11 23 21 2 0.31863436D-01 0.15858926D+00 0.13681405D+06 0.13681405D+06 0.13681405D+06 0.11107192D+01  1  2  3  2  7  2        2 -.205987787634D-04 0.100000000000D+01
0.735853657749D-06 0.000000000000D+00 0.000000000000D+00 0.134136736749D-06 0.000000000000D+00  7 -2 2 23 -11 11 23 21 2 0.31863436D-01 0.15858926D+00 0.13681405D+06 0.13681405D+06 0.13681405D+06 0.11107192D+01  1  2 15  2  7  2        2 0.248417582701D-04 0.100000000000D+01
0.940820167950D-05 0.000000000000D+00 -.527309686850D-05 0.134136736749D-06 0.000000000000D+00  7 -2 2 23 -11 11 23 21 2 0.31863436D-01 0.97904637D+00 0.13681405D+06 0.13681405D+06 0.13681405D+06 0.11107192D+01  1  2  5  2  7  2        2 0.538635996196D-10 0.100000000000D+01
0.173222053001D-05 0.000000000000D+00 -.117635137444D-05 0.134136736749D-06 0.000000000000D+00  7 -2 21 23 -11 11 23 -2 2 0.31863436D-01 0.97904637D+00 0.13681405D+06 0.13681405D+06 0.13681405D+06 0.11107192D+01  1  2  5  4  7  2        2 0.545016668404D-13 0.100000000000D+01
  </mgrwgt>
  </event>
  <event>
  8     66 0.53686478E-06 0.20997402E+03 0.75467711E-02 0.99870581E-01
       -2 -1    0    0    0  501 0.00000000E+00 0.00000000E+00 0.11817764E+03 0.11817807E+03 0.32000000E+00 0.0000E+00 0.9000E+01
        2 -1    0    0  501    0 0.00000000E+00 0.00000000E+00 -.75896799E+03 0.75896806E+03 0.32000000E+00 0.0000E+00 0.9000E+01
       25  2    1    2    0    0 0.10424518E+03 -.48076827E+01 -.66568035E+03 0.73756905E+03 0.29997934E+03 0.0000E+00 0.0000E+00
       23  2    1    2    0    0 -.10424518E+03 0.48076827E+01 0.24889992E+02 0.13957709E+03 0.89286504E+02 0.0000E+00 0.0000E+00
       23  1    3    3    0    0 0.29095720E+02 0.99211845E+02 -.17820096E+03 0.22530065E+03 0.91188000E+02 0.0000E+00 0.9000E+01
      -13  1    4    4    0    0 -.10185146E+03 0.24557512E+02 0.42447945E+02 0.11304261E+03 0.10565837E+00 0.0000E+00 0.9000E+01
       13  1    4    4    0    0 -.23937158E+01 -.19749829E+02 -.17557953E+02 0.26534478E+02 0.10565837E+00 0.0000E+00 0.9000E+01
       23  1    3    3    0    0 0.75149459E+02 -.10401953E+03 -.48747939E+03 0.51226840E+03 0.91188000E+02 0.0000E+00 0.9000E+01
#aMCatNLO 1  0  0  1  1 0.19359866D+03 0.00000000D+00  -5  7  0 0.00000000D+00 0.00000000D+00 0.00000000D+00 0.00000000D+00 0.00000000D+00
  <mgrwgt>
 0.1671555372D-03    4    2    0
 0.299488338981683D+03 0.000000000000000D+00 0.000000000000000D+00 0.299488338981683D+03
 0.299488338981683D+03 0.000000000000000D+00 0.000000000000000D+00 -.299488338981683D+03
 0.139291134272945D+03 0.290957204512727D+02 0.992118450191785D+02 -.199303186716972D+02
 0.210951919603578D+03 -.101851602787208D+03 0.245575735496542D+02 0.183095300254989D+03
 0.200733814089072D+02 -.239357681405290D+01 -.197498908129854D+02 0.267455493453517D+01
 0.228660242677937D+03 0.751494591499880D+02 -.104019527755847D+03 -.165839536517827D+03
 0.000000000000000D+00 -.000000000000000D+00 -.000000000000000D+00 -.000000000000000D+00
 0.390556841816213D+03 0.000000000000000D+00 0.000000000000000D+00 0.390556841816213D+03
 0.438337580859523D+03 0.000000000000000D+00 0.000000000000000D+00 -.438337580859523D+03
 0.179803380765961D+03 0.434038989463788D+02 0.147420786678021D+03 -.199303186716972D+02
 0.219939811802509D+03 -.825304439629269D+02 0.896568885225258D+02 0.183095300254989D+03
 0.147561034514854D+02 -.831824847823293D+00 -.144878367051689D+02 0.267455493453517D+01
 0.214987401631337D+03 0.950425923269606D+02 -.369930437720009D+02 -.165839536517827D+03
 0.199407725024444D+03 -.550842224625893D+02 -.185596794723377D+03 -.477807390433103D+02
0.207179681925D-05 0.000000000000D+00 0.000000000000D+00 0.252153909576D-06 0.000000000000D+00  7 -2 2 23 -13 13 23 21 0 0.18181214D-01 0.11676435D+00 0.44089090D+05 0.44089090D+05 0.44089090D+05 0.11521326D+01  1  2  2  1  7  1       -2 0.222061547622D-03 0.100000000000D+01
-.974541955608D-07 0.000000000000D+00 -.795624530255D-08 0.252153909576D-06 0.000000000000D+00  7 -2 2 23 -13 13 23 21 2 0.18181214D-01 0.11676435D+00 0.44089090D+05 0.44089090D+05 0.44089090D+05 0.11521326D+01  1  2  3  1  7  1       -2 -.138653774366D-04 0.100000000000D+01
0.125678798470D-06 0.000000000000D+00 0.000000000000D+00 0.252153909576D-06 0.000000000000D+00  7 -2 2 23 -13 13 23 21 2 0.18181214D-01 0.11676435D+00 0.44089090D+05 0.44089090D+05 0.44089090D+05 0.11521326D+01  1  2 15  1  7  1       -2 0.178810564957D-04 0.100000000000D+01
-.414137002611D-06 0.000000000000D+00 0.000000000000D+00 0.252153909576D-06 0.000000000000D+00  7 -2 2 23 -13 13 23 21 2 0.18181214D-01 0.11676435D+00 0.44089090D+05 0.44089090D+05 0.44089090D+05 0.11521326D+01  1  2  4  1  7  1       -2 -.589216895035D-04 0.100000000000D+01
  </mgrwgt>
  </event>
  <event>
  8     66 0.53686478E-06 0.19788593E+03 0.75467711E-02 0.99932414E-01
       -2 -1    0    0    0  501 0.00000000E+00 0.00000000E+00 0.10538078E+03 0.10538127E+03 0.32000000E+00 0.0000E+00 0.9000E+01
        2 -1    0    0  501    0 0.00000000E+00 0.00000000E+00 -.97744214E+03 0.97744219E+03 0.32000000E+00 0.0000E+00 0.9000E+01
       25  2    1    2    0    0 0.12334591E+03 -.14308273E+03 -.76507379E+03 0.84370416E+03 0.30135017E+03 0.0000E+00 0.0000E+00
       23  2    1    2    0    0 -.12334591E+03 0.14308273E+03 -.10698757E+03 0.23911930E+03 0.10022385E+03 0.0000E+00 0.0000E+00
       23  1    3    3    0    0 0.81813489E+02 -.13866414E+03 -.70024473E+03 0.72427835E+03 0.91188000E+02 0.0000E+00 0.9000E+01
      -11  1    4    4    0    0 -.92738551E+02 0.39026013E+02 -.76667105E+02 0.12649630E+03 0.51099893E-03 0.0000E+00 0.9000E+01
       11  1    4    4    0    0 -.30607356E+02 0.10405671E+03 -.30320466E+02 0.11262300E+03 0.51099893E-03 0.0000E+00 0.9000E+01
       23  1    3    3    0    0 0.41532418E+02 -.44185838E+01 -.64829057E+02 0.11942581E+03 0.91188000E+02 0.0000E+00 0.9000E+01
#aMCatNLO 1  0  0  1  2 0.12829879D+03 0.00000000D+00  -5  7  0 0.00000000D+00 0.00000000D+00 0.00000000D+00 0.00000000D+00 0.00000000D+00
  <mgrwgt>
 0.1485607785D-03    9    2    0
 0.320942215998903D+03 0.000000000000000D+00 0.000000000000000D+00 0.320942215998903D+03
 0.320942215998903D+03 0.000000000000000D+00 0.000000000000000D+00 -.320942215998903D+03
 0.270468022427624D+03 0.818134895083228D+02 -.138664142259092D+03 -.197272675244018D+03
 0.109232653090793D+03 -.927385513069454D+02 0.390260128250904D+02 0.425241569665828D+02
 0.148795509286870D+03 -.306073562360300D+02 0.104056713212768D+03 0.101860167698347D+03
 0.113388247192518D+03 0.415324180346525D+02 -.441858377876640D+01 0.528883505790877D+02
 0.000000000000000D+00 -.000000000000000D+00 0.000000000000000D+00 0.000000000000000D+00
 0.397482171484570D+03 0.000000000000000D+00 0.000000000000000D+00 0.397482171484570D+03
 0.385917693888253D+03 0.000000000000000D+00 0.000000000000000D+00 -.385917693888253D+03
 0.299787281708950D+03 0.135603330270915D+03 -.155731793003057D+03 -.197272675244018D+03
 0.913657693765174D+02 -.738169259867192D+02 0.330221338788941D+02 0.425241569665828D+02
 0.139617048104181D+03 -.340258422696298D+01 0.954245711458440D+02 0.101860167698347D+03
 0.123810837888469D+03 0.639064335378615D+02 -.115179147478663D+02 0.528883505790877D+02
 0.128818928294706D+03 -.122290253595095D+03 0.388030027261852D+02 0.115644775963166D+02
0.129702003472D-05 0.000000000000D+00 0.000000000000D+00 0.860518044786D-09 0.000000000000D+00  7 -2 2 23 -11 11 23 21 0 0.16212469D-01 0.15037575D+00 0.61110139D+05 0.61110139D+05 0.61110139D+05 0.11397083D+01  1  2  2  1  7  1       -2 0.120633080306D-03 0.100000000000D+01
-.660865222939D-07 0.000000000000D+00 -.498089844656D-08 0.860518044786D-09 0.000000000000D+00  7 -2 2 23 -11 11 23 21 2 0.16212469D-01 0.15037575D+00 0.61110139D+05 0.61110139D+05 0.61110139D+05 0.11397083D+01  1  2  3  1  7  1       -2 -.798399112416D-05 0.100000000000D+01
0.835223675444D-07 0.000000000000D+00 0.000000000000D+00 0.860518044786D-09 0.000000000000D+00  7 -2 2 23 -11 11 23 21 2 0.16212469D-01 0.15037575D+00 0.61110139D+05 0.61110139D+05 0.61110139D+05 0.11397083D+01  1  2 15  1  7  1       -2 0.100904362644D-04 0.100000000000D+01
0.369749685317D-06 0.000000000000D+00 0.000000000000D+00 0.860518044786D-09 0.000000000000D+00  7 -2 2 23 -11 11 23 21 2 0.21378481D-01 0.15037575D+00 0.10314724D+06 0.10314724D+06 0.10314724D+06 0.11206194D+01  1  2 12  1  7  1       -2 0.273572324857D-04 0.100000000000D+01
-.558379116173D-06 0.000000000000D+00 0.000000000000D+00 0.860518044786D-09 0.000000000000D+00  7 -2 2 23 -11 11 23 21 2 0.16212469D-01 0.15037575D+00 0.61110139D+05 0.61110139D+05 0.61110139D+05 0.11397083D+01  1  2  4  1  7  1       -2 -.674584431545D-04 0.100000000000D+01
-.869065597927D-06 0.000000000000D+00 -.539576664818D-06 0.860518044786D-09 0.000000000000D+00  7 -2 2 23 -11 11 23 21 2 0.24184395D-01 0.15037575D+00 0.61110139D+05 0.61110139D+05 0.61110139D+05 0.11397083D+01  1  2  5  1  7  1       -2 -.544436212454D-04 0.100000000000D+01
0.104094645533D-05 0.000000000000D+00 0.499126289372D-06 0.860518044786D-09 0.000000000000D+00  7 -2 2 23 -11 11 23 21 2 0.16212469D-01 0.15037575D+00 0.61110139D+05 0.61110139D+05 0.61110139D+05 0.11397083D+01  1  2  6  1  7  1       -2 0.125757975629D-03 0.100000000000D+01
0.134757104671D-07 0.000000000000D+00 0.000000000000D+00 0.860518044786D-09 0.000000000000D+00  7 21 2 23 -11 11 23 2 2 0.21378481D-01 0.15037575D+00 0.10314724D+06 0.10314724D+06 0.10314724D+06 0.11206194D+01  1  2 12  3  7  1       -2 0.126228269144D-04 0.100000000000D+01
-.229494449625D-07 0.000000000000D+00 -.256802858704D-07 0.860518044786D-09 0.000000000000D+00  7 21 2 23 -11 11 23 2 2 0.24184395D-01 0.15037575D+00 0.61110139D+05 0.61110139D+05 0.61110139D+05 0.11397083D+01  1  2  5  3  7  1       -2 -.180147175944D-04 0.100000000000D+01
  </mgrwgt>
  </event>
  <event>
  8     66 0.53686478E-06 0.85502878E+02 0.75467711E-02 0.98504853E-01
       -2 -1    0    0    0  501 0.00000000E+00 0.00000000E+00 0.24500647E+03 0.24500667E+03 0.32000000E+00 0.0000E+00 0.9000E+01
        2 -1    0    0  501    0 0.00000000E+00 0.00000000E+00 -.10140424E+04 0.10140424E+04 0.32000000E+00 0.0000E+00 0.9000E+01
       25  2    1    2    0    0 -.62635361E+02 -.24409628E+03 0.51941678E+02 0.39554508E+03 0.30041936E+03 0.0000E+00 0.0000E+00
       23  2    1    2    0    0 0.62635361E+02 0.24409628E+03 -.82097757E+03 0.86350400E+03 0.90159874E+02 0.0000E+00 0.0000E+00
       23  1    3    3    0    0 -.11213035E+03 -.21630579E+02 0.96383716E+01 0.14645561E+03 0.91188000E+02 0.0000E+00 0.9000E+01
      -13  1    4    4    0    0 0.43439104E+02 0.21473840E+03 -.77674284E+03 0.80704955E+03 0.10565837E+00 0.0000E+00 0.9000E+01
       13  1    4    4    0    0 0.19196257E+02 0.29357888E+02 -.44234734E+02 0.56454448E+02 0.10565837E+00 0.0000E+00 0.9000E+01
       23  1    3    3    0    0 0.49494986E+02 -.22246571E+03 0.42303307E+02 0.24908947E+03 0.91188000E+02 0.0000E+00 0.9000E+01
#aMCatNLO 1  0  0  1  2 0.65731888D+02 0.00000000D+00  -5  7  0 0.00000000D+00 0.00000000D+00 0.00000000D+00 0.00000000D+00 0.00000000D+00
  <mgrwgt>
 0.3274923255D-03    6    2    0
 0.498444679274636D+03 0.000000000000000D+00 0.000000000000000D+00 0.498444679274636D+03
 0.498444679274636D+03 0.000000000000000D+00 0.000000000000000D+00 -.498444679274636D+03
 0.192405562008926D+03 -.112130346428057D+03 -.216305794725568D+02 0.125154114553122D+03
 0.420079119849351D+03 0.434391372251239D+02 0.214738651836311D+03 -.358422683012760D+03
 0.371759397789846D+02 0.191962234875496D+02 0.293576331411340D+02 -.123160415157359D+02
 0.347228736912011D+03 0.494949857153837D+02 -.222465705504888D+03 0.245584609975374D+03
 0.000000000000000D+00 -.000000000000000D+00 -.000000000000000D+00 -.000000000000000D+00
 0.527206117295913D+03 0.000000000000000D+00 0.000000000000000D+00 0.527206117295913D+03
 0.538551844678816D+03 0.000000000000000D+00 0.000000000000000D+00 -.538551844678816D+03
 0.189421308061602D+03 -.108676700471363D+03 -.953954867118715D+01 0.125154114553122D+03
 0.435392696008538D+03 0.511769289037389D+02 0.241828248944369D+03 -.358422683012760D+03
 0.394656176203965D+02 0.198894507734612D+02 0.317845849976381D+02 -.123160415157359D+02
 0.334774468051255D+03 0.556637438513387D+02 -.200869211375702D+03 0.245584609975374D+03
 0.667038722329373D+02 -.180534230571757D+02 -.632040738951176D+02 -.113457273829034D+02
0.111225908658D-04 0.000000000000D+00 0.000000000000D+00 0.885483594088D-06 0.000000000000D+00  7 -2 2 23 -13 13 23 21 0 0.37693322D-01 0.15600654D+00 0.10425597D+06 0.10425597D+06 0.10425597D+06 0.11202397D+01  1  2  2  1  7  1       -2 0.231406401410D-03 0.100000000000D+01
-.476285146188D-06 0.000000000000D+00 -.427136775701D-07 0.885483594088D-06 0.000000000000D+00  7 -2 2 23 -13 13 23 21 2 0.37693322D-01 0.15600654D+00 0.10425597D+06 0.10425597D+06 0.10425597D+06 0.11202397D+01  1  2  3  1  7  1       -2 -.124353594140D-04 0.100000000000D+01
0.662175346339D-06 0.000000000000D+00 0.000000000000D+00 0.885483594088D-06 0.000000000000D+00  7 -2 2 23 -13 13 23 21 2 0.37693322D-01 0.15600654D+00 0.10425597D+06 0.10425597D+06 0.10425597D+06 0.11202397D+01  1  2 15  1  7  1       -2 0.172887785662D-04 0.100000000000D+01
0.126176443860D-04 0.000000000000D+00 0.000000000000D+00 0.885483594088D-06 0.000000000000D+00  7 -2 2 23 -13 13 23 21 2 0.41285789D-01 0.15600654D+00 0.12963949D+06 0.12963949D+06 0.12963949D+06 0.11125864D+01  1  2 12  1  7  1       -2 0.272866137823D-03 0.100000000000D+01
-.868943277831D-05 0.000000000000D+00 0.000000000000D+00 0.885483594088D-06 0.000000000000D+00  7 -2 2 23 -13 13 23 21 2 0.37693322D-01 0.15600654D+00 0.10425597D+06 0.10425597D+06 0.10425597D+06 0.11202397D+01  1  2  4  1  7  1       -2 -.226872957444D-03 0.100000000000D+01
0.188871104398D-06 0.000000000000D+00 0.000000000000D+00 0.885483594088D-06 0.000000000000D+00  7 21 2 23 -13 13 23 2 2 0.41285789D-01 0.15600654D+00 0.12963949D+06 0.12963949D+06 0.12963949D+06 0.11125864D+01  1  2 12  3  7  1       -2 0.452393245465D-04 0.100000000000D+01
  </mgrwgt>
  </event>
  <event>
  8     66 0.53686478E-06 0.27081751E+03 0.75467711E-02 0.92603721E-01
       -2 -1    0    0    0  501 0.00000000E+00 0.00000000E+00 0.20778830E+03 0.20778854E+03 0.32000000E+00 0.0000E+00 0.9000E+01
        2 -1    0    0  501    0 0.00000000E+00 0.00000000E+00 -.10227390E+04 0.10227391E+04 0.32000000E+00 0.0000E+00 0.9000E+01
       25  2    1    2    0    0 -.32369985E+03 0.56392241E+02 -.13399967E+03 0.46569183E+03 0.30158132E+03 0.0000E+00 0.0000E+00
       23  2    1    2    0    0 0.32369985E+03 -.56392241E+02 -.68095104E+03 0.76483576E+03 0.11540255E+03 0.0000E+00 0.0000E+00
       23  1    3    3    0    0 -.30045138E+03 -.31451419E+02 -.11344152E+03 0.33532739E+03 0.91188000E+02 0.0000E+00 0.9000E+01
      -13  1    4    4    0    0 0.21592032E+03 -.59958765E+02 -.55787271E+03 0.60119764E+03 0.10565837E+00 0.0000E+00 0.9000E+01
       13  1    4    4    0    0 0.10777953E+03 0.35665237E+01 -.12307833E+03 0.16363812E+03 0.10565837E+00 0.0000E+00 0.9000E+01
       23  1    3    3    0    0 -.23248471E+02 0.87843660E+02 -.20558147E+02 0.13036445E+03 0.91188000E+02 0.0000E+00 0.9000E+01
#aMCatNLO 1  0  0  2  1 0.34661736D+03 0.00000000D+00  -5  7  0 0.00000000D+00 0.00000000D+00 0.00000000D+00 0.00000000D+00 0.00000000D+00
  <mgrwgt>
 0.2696420256D-03    8    2    0
 0.460991731687652D+03 0.000000000000000D+00 0.000000000000000D+00 0.460991731687652D+03
 0.460991731687652D+03 0.000000000000000D+00 0.000000000000000D+00 -.460991731687652D+03
 0.347273441609865D+03 -.300451400354637D+03 -.314514160654426D+02 0.144994332151213D+03
 0.309280693391040D+03 0.215920472566364D+03 -.599587897181880D+02 -.213161535851782D+03
 0.109609639398696D+03 0.107779406427961D+03 0.356654441632020D+01 -.196252989805259D+02
 0.155819688975703D+03 -.232484786396877D+02 0.878436613673104D+02 0.877925026810948D+02
 0.000000000000000D+00 -.000000000000000D+00 0.000000000000000D+00 -.000000000000000D+00
 0.595535926460028D+03 0.000000000000000D+00 0.000000000000000D+00 0.595535926460028D+03
 0.783981878410859D+03 0.000000000000000D+00 0.000000000000000D+00 -.783981878410859D+03
 0.275427459898907D+03 -.199352927100310D+03 -.823412923321341D+02 0.144994332151213D+03
 0.413056894847048D+03 0.333195439036049D+03 -.118991417419786D+03 -.213161535851782D+03
 0.152689526599844D+03 0.150364932085759D+03 -.178697054271917D+02 -.196252989805259D+02
 0.143811957289682D+03 0.253981539614766D+02 0.633564358516819D+02 0.877925026810948D+02
 0.394531966235406D+03 -.309605597982974D+03 0.155845979327430D+03 -.188445951950831D+03
0.657596943409D-05 0.000000000000D+00 0.000000000000D+00 0.508689658996D-09 0.000000000000D+00  7 -2 2 23 -13 13 23 21 0 0.31967453D-01 0.15734448D+00 0.15062873D+06 0.15062873D+06 0.15062873D+06 0.11074086D+01  1  2  2  2  7  2        2 0.180553608877D-03 0.100000000000D+01
-.352176436900D-06 0.000000000000D+00 -.252534541194D-07 0.508689658996D-09 0.000000000000D+00  7 -2 2 23 -13 13 23 21 2 0.31967453D-01 0.15734448D+00 0.15062873D+06 0.15062873D+06 0.15062873D+06 0.11074086D+01  1  2  3  2  7  2        2 -.118583003626D-04 0.100000000000D+01
0.416314183056D-06 0.000000000000D+00 0.000000000000D+00 0.508689658996D-09 0.000000000000D+00  7 -2 2 23 -13 13 23 21 2 0.31967453D-01 0.15734448D+00 0.15062873D+06 0.15062873D+06 0.15062873D+06 0.11074086D+01  1  2 15  2  7  2        2 0.140179129284D-04 0.100000000000D+01
0.551849334239D-07 0.000000000000D+00 0.000000000000D+00 0.508689658996D-09 0.000000000000D+00  7 -2 2 23 -13 13 23 21 2 0.31967453D-01 0.27746743D+00 0.35995413D+06 0.35995413D+06 0.35995413D+06 0.10787459D+01  1  2 12  2  7  2        2 0.625450077616D-06 0.100000000000D+01
-.229366006402D-05 0.000000000000D+00 -.199503278867D-05 0.508689658996D-09 0.000000000000D+00  7 -2 2 23 -13 13 23 21 2 0.31967453D-01 0.30426421D+00 0.15062873D+06 0.15062873D+06 0.15062873D+06 0.11074086D+01  1  2  5  2  7  2        2 -.228631061933D-04 0.100000000000D+01
0.324481377708D-05 0.000000000000D+00 0.162801562571D-05 0.508689658996D-09 0.000000000000D+00  7 -2 2 23 -13 13 23 21 2 0.31967453D-01 0.15734448D+00 0.15062873D+06 0.15062873D+06 0.15062873D+06 0.11074086D+01  1  2  6  2  7  2        2 0.109257668481D-03 0.100000000000D+01
0.345056812037D-08 0.000000000000D+00 0.000000000000D+00 0.508689658996D-09 0.000000000000D+00  7 -2 21 23 -13 13 23 -2 2 0.31967453D-01 0.27746743D+00 0.35995413D+06 0.35995413D+06 0.35995413D+06 0.10787459D+01  1  2 12  4  7  2        2 0.952901113207D-08 0.100000000000D+01
-.479404316225D-07 0.000000000000D+00 -.142681587947D-06 0.508689658996D-09 0.000000000000D+00  7 -2 21 23 -13 13 23 -2 2 0.31967453D-01 0.30426421D+00 0.15062873D+06 0.15062873D+06 0.15062873D+06 0.11074086D+01  1  2  5  4  7  2        2 -.100737169167D-06 0.100000000000D+01
  </mgrwgt>
  </event>
  <event>
  8     66 0.53686478E-06 0.21161727E+03 0.75467711E-02 0.98898756E-01
       -2 -1    0    0    0  501 0.00000000E+00 0.00000000E+00 0.16222010E+03 0.16222042E+03 0.32000000E+00 0.0000E+00 0.9000E+01
        2 -1    0    0  501    0 0.00000000E+00 0.00000000E+00 -.30903799E+03 0.30903815E+03 0.32000000E+00 0.0000E+00 0.9000E+01
       25  2    1    2    0    0 0.31585654E+02 0.87740299E+02 -.11437447E+03 0.33541155E+03 0.30120321E+03 0.0000E+00 0.0000E+00
       23  2    1    2    0    0 -.31585654E+02 -.87740299E+02 -.32443412E+02 0.13584702E+03 0.93305010E+02 0.0000E+00 0.0000E+00
       23  1    3    3    0    0 0.87725273E+02 0.14406551E+03 -.49088391E+02 0.19792806E+03 0.91188000E+02 0.0000E+00 0.9000E+01
      -13  1    4    4    0    0 0.43128702E+01 -.70572437E+02 -.55475124E+02 0.89869740E+02 0.10565837E+00 0.0000E+00 0.9000E+01
       13  1    4    4    0    0 -.35898525E+02 -.17167862E+02 0.23031712E+02 0.45977282E+02 0.10565837E+00 0.0000E+00 0.9000E+01
       23  1    3    3    0    0 -.56139619E+02 -.56325211E+02 -.65286084E+02 0.13748349E+03 0.91188000E+02 0.0000E+00 0.9000E+01
#aMCatNLO 1  0  0  2  1 0.22992365D+03 0.00000000D+00  -5  7  0 0.00000000D+00 0.00000000D+00 0.00000000D+00 0.00000000D+00 0.00000000D+00
  <mgrwgt>
 0.4303645857D-03    3    2    0
 0.223902406173588D+03 0.000000000000000D+00 0.000000000000000D+00 0.223902406173588D+03
 0.223902406173588D+03 0.000000000000000D+00 0.000000000000000D+00 -.223902406173588D+03
 0.192200463565801D+03 0.877253192293490D+02 0.144065639108190D+03 0.132335499910764D+02
 0.763885332497323D+02 0.431279998709494D+01 -.705725582809135D+02 -.289157705414162D+02
 0.559364643872816D+02 -.358985303212421D+02 -.171679518728539D+02 0.393121482167517D+02
 0.123279351144360D+03 -.561395888952018D+02 -.563251289544226D+02 -.236299276664120D+02
 0.000000000000000D+00 -.000000000000000D+00 -.000000000000000D+00 0.000000000000000D+00
 0.674489164808102D+03 0.000000000000000D+00 0.000000000000000D+00 0.674489164808102D+03
 0.282950255924476D+03 0.000000000000000D+00 0.000000000000000D+00 -.282950255924476D+03
 0.293769789456108D+03 0.186827042387767D+03 0.207137556325161D+03 0.132335499910764D+02
 0.682820004089613D+02 0.338148098049224D+02 -.517964133092484D+02 -.289157705414162D+02
 0.425961602314777D+02 -.158052163245100D+02 -.437984086301172D+01 0.393121482167517D+02
 0.987346432516089D+02 -.108652757595540D+02 -.275109202894318D+02 -.236299276664120D+02
 0.454056827384422D+03 -.193971360108626D+03 -.123450381863469D+03 0.391538908883626D+03
0.247033750719D-05 0.000000000000D+00 0.000000000000D+00 0.647402856007D-08 0.000000000000D+00  7 -2 2 23 -13 13 23 21 0 0.24956976D-01 0.47544343D-01 0.44781870D+05 0.44781870D+05 0.44781870D+05 0.11515298D+01  1  2  2  2  7  2        2 0.426473673529D-03 0.100000000000D+01
-.136709599115D-06 0.000000000000D+00 -.948674648242D-08 0.647402856007D-08 0.000000000000D+00  7 -2 2 23 -13 13 23 21 2 0.24956976D-01 0.47544343D-01 0.44781870D+05 0.44781870D+05 0.44781870D+05 0.11515298D+01  1  2  3  2  7  2        2 -.312957440859D-04 0.100000000000D+01
0.153706320441D-06 0.000000000000D+00 0.000000000000D+00 0.647402856007D-08 0.000000000000D+00  7 -2 2 23 -13 13 23 21 2 0.24956976D-01 0.47544343D-01 0.44781870D+05 0.44781870D+05 0.44781870D+05 0.11515298D+01  1  2 15  2  7  2        2 0.351866562410D-04 0.100000000000D+01
  </mgrwgt>
  </event>
  <event>
  9     66 0.53686478E-06 0.27328671E+03 0.75467711E-02 0.99942823E-01
       21 -1    0    0  502  501 0.00000000E+00 0.00000000E+00 0.41628300E+03 0.41628368E+03 0.75000000E+00 0.0000E+00 0.9000E+01
        2 -1    0    0  501    0 0.00000000E+00 0.00000000E+00 -.47680608E+03 0.47680618E+03 0.32000000E+00 0.0000E+00 0.9000E+01
       25  2    1    2    0    0 0.68829558E+02 -.19751883E+03 -.11661546E+03 0.38285349E+03 0.29870795E+03 0.0000E+00 0.0000E+00
       23  2    1    2    0    0 -.12558463E+03 0.12943248E+03 -.17172415E+03 0.26578317E+03 0.92882931E+02 0.0000E+00 0.0000E+00
       23  1    3    3    0    0 0.15426034E+03 -.13770749E+03 -.67293998E+02 0.23580360E+03 0.91188000E+02 0.0000E+00 0.9000E+01
      -11  1    4    4    0    0 -.11196985E+03 0.80658000E+02 -.16436341E+03 0.21461195E+03 0.51099893E-03 0.0000E+00 0.9000E+01
       11  1    4    4    0    0 -.13614781E+02 0.48774483E+02 -.73607459E+01 0.51171213E+02 0.51099893E-03 0.0000E+00 0.9000E+01
       23  1    3    3    0    0 -.85430777E+02 -.59811337E+02 -.49321463E+02 0.14704990E+03 0.91188000E+02 0.0000E+00 0.9000E+01
        2  1    1    2  502    0 0.56755077E+02 0.68086343E+02 0.22781654E+03 0.24445320E+03 0.32000000E+00 0.0000E+00 0.9000E+01
#aMCatNLO 2  0  0  1  2 0.88639093D+02 0.00000000D+00  -5  7  0 0.00000000D+00 0.00000000D+00 0.00000000D+00 0.00000000D+00 0.00000000D+00
  <mgrwgt>
 0.6085604997D-04    2    2    0
 0.287111866302443D+03 0.000000000000000D+00 0.000000000000000D+00 0.287111866302443D+03
 0.287111866302443D+03 0.000000000000000D+00 0.000000000000000D+00 -.287111866302443D+03
 0.231488848642568D+03 0.176924898972004D+03 -.110517898402387D+03 0.418952259610538D+02
 0.158386957570704D+03 -.964254754289674D+02 0.993058444200543D+02 -.769863967257962D+02
 0.585439026095979D+02 -.811161237257727D+01 0.553763702941712D+02 0.171769581277352D+02
 0.125804023782016D+03 -.723878111704589D+02 -.441643163118385D+02 0.179142126370072D+02
 0.000000000000000D+00 0.000000000000000D+00 0.000000000000000D+00 0.000000000000000D+00
 0.671309717022700D+03 0.000000000000000D+00 0.000000000000000D+00 0.671309717022700D+03
 0.295670567912795D+03 0.000000000000000D+00 0.000000000000000D+00 -.295670567912795D+03
 0.229847916347541D+03 0.154260335110352D+03 -.137707488389776D+03 0.418952259610538D+02
 0.158018563150362D+03 -.111969853581260D+03 0.806579996545573D+02 -.769863967257962D+02
 0.534729870661219D+02 -.136147808653231D+02 0.487744830545737D+02 0.171769581277352D+02
 0.139685303900434D+03 -.854307773471838D+02 -.598113371294144D+02 0.179142126370072D+02
 0.385955514471036D+03 0.567550766834144D+02 0.680863428100592D+02 0.375639149109905D+03
-.916773459947D-06 0.000000000000D+00 0.000000000000D+00 0.178962350380D-07 0.000000000000D+00  7 21 2 23 -11 11 23 2 2 0.63864098D-01 0.71231441D-01 0.10297798D+06 0.10297798D+06 0.10297798D+06 0.11206777D+01  1  2 13  3  7  1       -2 -.228423482248D-03 0.100000000000D+01
0.120706044257D-05 0.000000000000D+00 0.000000000000D+00 0.178962350380D-07 0.224829880815D-11  7 21 2 23 -11 11 23 2 2 0.64043584D-01 0.73354825D-01 0.10297798D+06 0.10297798D+06 0.10297798D+06 0.11206777D+01  1  2  1  3  7  1       -2 0.289279532219D-03 0.100000000000D+01
  </mgrwgt>
  </event>
  <event>
  8     66 0.53686478E-06 0.25729839E+03 0.75467711E-02 0.89952111E-01
       -2 -1    0    0    0  501 0.00000000E+00 0.00000000E+00 0.12056854E+03 0.12056896E+03 0.32000000E+00 0.0000E+00 0.9000E+01
        2 -1    0    0  501    0 0.00000000E+00 0.00000000E+00 -.84587035E+03 0.84587041E+03 0.32000000E+00 0.0000E+00 0.9000E+01
       25  2    1    2    0    0 0.28973834E+02 -.17382489E+03 -.19227460E+03 0.39791263E+03 0.30051683E+03 0.0000E+00 0.0000E+00
       23  2    1    2    0    0 -.28973834E+02 0.17382489E+03 -.53302722E+03 0.56852674E+03 0.89722179E+02 0.0000E+00 0.0000E+00
       23  1    3    3    0    0 -.63222440E+01 -.21374260E+03 -.85400825E+02 0.24765787E+03 0.91188000E+02 0.0000E+00 0.9000E+01
      -11  1    4    4    0    0 -.17680214E+01 0.35248074E+02 -.24729042E+03 0.24979613E+03 0.51099893E-03 0.0000E+00 0.9000E+01
       11  1    4    4    0    0 -.27205813E+02 0.13857681E+03 -.28573679E+03 0.31873061E+03 0.51099893E-03 0.0000E+00 0.9000E+01
       23  1    3    3    0    0 0.35296078E+02 0.39917714E+02 -.10687377E+03 0.15025476E+03 0.91188000E+02 0.0000E+00 0.9000E+01
#aMCatNLO 1  0  0  2  2 0.68093175D+03 0.00000000D+00  -5  7  0 0.00000000D+00 0.00000000D+00 0.00000000D+00 0.00000000D+00 0.00000000D+00
  <mgrwgt>
 0.2384542706D-03    5    2    0
 0.319351817782681D+03 0.000000000000000D+00 0.000000000000000D+00 0.319351817782681D+03
 0.319351817782681D+03 0.000000000000000D+00 0.000000000000000D+00 -.319351817782681D+03
 0.277757843313478D+03 -.632224400988519D+01 -.213742598873023D+03 0.152014140249649D+03
 0.971540125775992D+02 -.176802138886973D+01 0.352480741576261D+02 -.905171228468697D+02
 0.157801510523557D+03 -.272058127509207D+02 0.138576811199181D+03 -.704104244692825D+02
 0.105990269150728D+03 0.352960781496756D+02 0.399177135162153D+02 0.891340706650320D+01
 0.000000000000000D+00 0.000000000000000D+00 0.000000000000000D+00 -.000000000000000D+00
 0.612424756982037D+03 0.000000000000000D+00 0.000000000000000D+00 0.612424756982037D+03
 0.126280043797272D+04 0.000000000000000D+00 0.000000000000000D+00 -.126280043797272D+04
 0.434534053550336D+03 -.313382951578257D+03 -.243284646402411D+03 0.152014140249649D+03
 0.140288656827019D+03 -.104126779638572D+03 0.254002257461241D+02 -.905171228468697D+02
 0.245383083418046D+03 -.201013976568971D+03 0.121854876708865D+03 -.704104244692825D+02
 0.113394967562196D+03 -.592783320208293D+02 0.308187905623600D+02 0.891340706650320D+01
 0.941624433597156D+03 0.677802039806629D+03 0.652107533850623D+02 -.650375680990679D+03
0.258489635003D-05 0.000000000000D+00 0.000000000000D+00 0.119952385813D-06 0.000000000000D+00  7 -2 2 23 -11 11 23 21 0 0.18549043D-01 0.13013394D+00 0.66202463D+05 0.66202463D+05 0.66202463D+05 0.11367247D+01  1  2  2  2  7  2        2 0.234103387690D-03 0.100000000000D+01
-.135454774907D-06 0.000000000000D+00 -.992668260297D-08 0.119952385813D-06 0.000000000000D+00  7 -2 2 23 -11 11 23 21 2 0.18549043D-01 0.13013394D+00 0.66202463D+05 0.66202463D+05 0.66202463D+05 0.11367247D+01  1  2  3  2  7  2        2 -.158514666052D-04 0.100000000000D+01
0.160422979574D-06 0.000000000000D+00 0.000000000000D+00 0.119952385813D-06 0.000000000000D+00  7 -2 2 23 -11 11 23 21 2 0.18549043D-01 0.13013394D+00 0.66202463D+05 0.66202463D+05 0.66202463D+05 0.11367247D+01  1  2 15  2  7  2        2 0.187733470833D-04 0.100000000000D+01
0.960815819921D-06 0.000000000000D+00 -.996219046425D-06 0.119952385813D-06 0.000000000000D+00  7 -2 2 23 -11 11 23 21 2 0.18549043D-01 0.61248184D+00 0.66202463D+05 0.66202463D+05 0.66202463D+05 0.11367247D+01  1  2  5  2  7  2        2 0.142393541968D-05 0.100000000000D+01
0.163699818531D-06 0.000000000000D+00 -.187294785208D-06 0.119952385813D-06 0.000000000000D+00  7 -2 21 23 -11 11 23 -2 2 0.18549043D-01 0.61248184D+00 0.66202463D+05 0.66202463D+05 0.66202463D+05 0.11367247D+01  1  2  5  4  7  2        2 0.506706207785D-08 0.100000000000D+01
  </mgrwgt>
  </event>
  <event>
  7     66 0.53686478E-06 0.64813865E+03 0.75467711E-02 0.82491042E-01
       -2 -1    0    0    0  501 0.00000000E+00 0.00000000E+00 0.71814943E+03 0.71814950E+03 0.32000000E+00 0.0000E+00 0.9000E+01
        2 -1    0    0  501    0 0.00000000E+00 0.00000000E+00 -.18525147E+04 0.18525147E+04 0.32000000E+00 0.0000E+00 0.9000E+01
       23  2    1    2    0    0 0.26312689E+03 -.53599950E+03 0.47662729E+03 0.76935126E+03 0.90534876E+02 0.0000E+00 0.0000E+00
       23  1    1    2    0    0 0.21318359E+02 0.30646463E+03 -.30618954E+03 0.44321815E+03 0.91188000E+02 0.0000E+00 0.9000E+01
      -13  1    3    3    0    0 0.63767119E+02 -.18186714E+03 0.20000425E+03 0.27774739E+03 0.10565837E+00 0.0000E+00 0.9000E+01
       13  1    3    3    0    0 0.19935977E+03 -.35413235E+03 0.27662304E+03 0.49160386E+03 0.10565837E+00 0.0000E+00 0.9000E+01
       23  1    1    2    0    0 -.28444525E+03 0.22953487E+03 -.13048030E+04 0.13580948E+04 0.91188000E+02 0.0000E+00 0.9000E+01
#aMCatNLO 1  0  0  1  2 0.14462305D+04 0.00000000D+00  -5  7  0 0.00000000D+00 0.00000000D+00 0.00000000D+00 0.00000000D+00 0.00000000D+00
  <mgrwgt>
 0.2813504309D-02    3    2    0
 0.115342208415323D+04 0.000000000000000D+00 0.000000000000000D+00 0.115342208415323D+04
 0.115342208415323D+04 0.000000000000000D+00 0.000000000000000D+00 -.115342208415323D+04
 0.343340860105070D+03 0.213180085922763D+02 0.306464227242568D+03 -.123259542445866D+03
 0.407861364800877D+03 0.637669667369164D+02 -.181866975314213D+03 0.359456631793693D+03
 0.683852621076072D+03 0.199360013736330D+03 -.354132697871594D+03 0.550000022339864D+03
 0.871789322324444D+03 -.284444989065523D+03 0.229535445943238D+03 -.786197111687690D+03
 0.000000000000000D+00 0.000000000000000D+00 0.000000000000000D+00 -.000000000000000D+00
 0.188749056141242D+04 0.000000000000000D+00 0.000000000000000D+00 0.188749056141242D+04
 0.235518722787696D+04 0.000000000000000D+00 0.000000000000000D+00 -.235518722787696D+04
 0.220722201361488D+03 -.358470694329442D+02 0.154677443859687D+03 -.123259542445866D+03
 0.573998890013853D+03 -.357398471473583D+02 -.446081067657609D+03 0.359456631793693D+03
 0.970851444604941D+03 0.316637161320014D+02 -.799405974457510D+03 0.550000022339864D+03
 0.957130650092508D+03 -.469797230804717D+03 -.262618532294771D+03 -.786197111687690D+03
 0.151997460321659D+04 0.509720431253018D+03 0.135342813055020D+04 -.467696666464542D+03
0.409633471469D-02 0.000000000000D+00 0.000000000000D+00 0.257842109096D-09 0.000000000000D+00  7 -2 2 23 -13 13 23 21 0 0.11048453D+00 0.28500227D+00 0.42008371D+06 0.42008371D+06 0.42008371D+06 0.10738972D+01  1  2  2  1  7  1       -2 0.274610129456D-02 0.100000000000D+01
-.135650323437D-03 0.000000000000D+00 -.157310038941D-04 0.257842109096D-09 0.000000000000D+00  7 -2 2 23 -13 13 23 21 2 0.11048453D+00 0.28500227D+00 0.42008371D+06 0.42008371D+06 0.42008371D+06 0.10738972D+01  1  2  3  1  7  1       -2 -.104873892116D-03 0.100000000000D+01
0.222833515816D-03 0.000000000000D+00 0.000000000000D+00 0.257842109096D-09 0.000000000000D+00  7 -2 2 23 -13 13 23 21 2 0.11048453D+00 0.28500227D+00 0.42008371D+06 0.42008371D+06 0.42008371D+06 0.10738972D+01  1  2 15  1  7  1       -2 0.172276906573D-03 0.100000000000D+01
  </mgrwgt>
  </event>
  <event>
  9     66 0.53686478E-06 0.10489007E+04 0.75467711E-02 0.86034774E-01
       -2 -1    0    0    0  502 0.00000000E+00 0.00000000E+00 0.56675295E+03 0.56675304E+03 0.32000000E+00 0.0000E+00 0.9000E+01
        2 -1    0    0  501    0 0.00000000E+00 0.00000000E+00 -.25756785E+04 0.25756785E+04 0.32000000E+00 0.0000E+00 0.9000E+01
       25  2    1    2    0    0 0.94184419E+03 0.92094904E+02 -.11372812E+04 0.15096561E+04 0.30016842E+03 0.0000E+00 0.0000E+00
       23  2    1    2    0    0 -.11247674E+04 -.16517031E+02 -.55098339E+03 0.12559506E+04 0.91949811E+02 0.0000E+00 0.0000E+00
       23  1    3    3    0    0 0.61496450E+03 0.13601934E+03 -.85629490E+03 0.10668828E+04 0.91188000E+02 0.0000E+00 0.9000E+01
      -11  1    4    4    0    0 -.96912619E+03 0.11911830E+02 -.45288984E+03 0.10697928E+04 0.51099893E-03 0.0000E+00 0.9000E+01
       11  1    4    4    0    0 -.15564123E+03 -.28428861E+02 -.98093554E+02 0.18615783E+03 0.51099893E-03 0.0000E+00 0.9000E+01
       23  1    3    3    0    0 0.32687969E+03 -.43924437E+02 -.28098627E+03 0.44277333E+03 0.91188000E+02 0.0000E+00 0.9000E+01
       21  1    1    2  501  502 0.18292322E+03 -.75577873E+02 -.32066095E+03 0.37682480E+03 0.75000000E+00 0.0000E+00 0.9000E+01
#aMCatNLO 2  0  0  1  2 0.19792150D+03 0.00000000D+00  -5  7  0 0.00000000D+00 0.00000000D+00 0.00000000D+00 0.00000000D+00 0.00000000D+00
  <mgrwgt>
 0.2994843732D-04    1    2    0
 0.109077614789799D+04 0.000000000000000D+00 0.000000000000000D+00 0.109077614789799D+04
 0.109077614789799D+04 0.000000000000000D+00 0.000000000000000D+00 -.109077614789799D+04
 0.736694243256952D+03 0.674531420478224D+03 0.111408244548989D+03 -.258841114466141D+03
 0.924044951514830D+03 -.888558726239080D+03 -.213760018267369D+02 0.252716301394135D+03
 0.148018302968984D+03 -.142777903607960D+03 -.337435636214183D+02 0.196280454773562D+02
 0.372794798055223D+03 0.356805209368816D+03 -.562886791008338D+02 -.135032324053501D+02
 0.000000000000000D+00 0.000000000000000D+00 -.000000000000000D+00 -.000000000000000D+00
 0.115235319051904D+04 0.000000000000000D+00 0.000000000000000D+00 0.115235319051904D+04
 0.126677483570605D+04 0.000000000000000D+00 0.000000000000000D+00 -.126677483570605D+04
 0.687020066748996D+03 0.614964500640791D+03 0.136019341217869D+03 -.258841114466141D+03
 0.100160520637438D+04 -.969126188252894D+03 0.119118297650215D+02 0.252716301394135D+03
 0.159429143449671D+03 -.155641226864834D+03 -.284288605442412D+02 0.196280454773562D+02
 0.342457701591098D+03 0.326879691299269D+03 -.439244369999169D+02 -.135032324053501D+02
 0.228615908060942D+03 0.182923223177669D+03 -.755778734387319D+02 -.114421645187004D+03
0.651107966176D-04 0.000000000000D+00 0.000000000000D+00 0.557968489262D-05 0.843339683912D-09  7 -2 2 23 -11 11 23 21 2 0.87192725D-01 0.39625803D+00 0.13270153D+07 0.13270153D+07 0.13270153D+07 0.10397812D+01  1  2  1  1  7  1       -2 0.299484373171D-04 0.100000000000D+01
  </mgrwgt>
  </event>
  <event>
  8     66 0.53686478E-06 0.34907793E+03 0.75467711E-02 0.94961205E-01
       -2 -1    0    0    0  501 0.00000000E+00 0.00000000E+00 0.12311028E+04 0.12311028E+04 0.32000000E+00 0.0000E+00 0.9000E+01
        2 -1    0    0  501    0 0.00000000E+00 0.00000000E+00 -.15790617E+03 0.15790650E+03 0.32000000E+00 0.0000E+00 0.9000E+01
       25  2    1    2    0    0 0.70945064E+02 -.37716655E+03 0.59404932E+03 0.76859584E+03 0.30092718E+03 0.0000E+00 0.0000E+00
       23  2    1    2    0    0 -.70945064E+02 0.37716655E+03 0.47914727E+03 0.62041345E+03 0.89682432E+02 0.0000E+00 0.0000E+00
       23  1    3    3    0    0 0.20364932E+00 -.12650364E+03 0.40529576E+03 0.43426158E+03 0.91188000E+02 0.0000E+00 0.9000E+01
      -13  1    4    4    0    0 -.89601356E+02 0.33731054E+03 0.43915911E+03 0.56095235E+03 0.10565837E+00 0.0000E+00 0.9000E+01
       13  1    4    4    0    0 0.18656292E+02 0.39856010E+02 0.39988157E+02 0.59461102E+02 0.10565837E+00 0.0000E+00 0.9000E+01
       23  1    3    3    0    0 0.70741415E+02 -.25066291E+03 0.18875356E+03 0.33433426E+03 0.91188000E+02 0.0000E+00 0.9000E+01
#aMCatNLO 1  0  0  1  2 0.13045160D+03 0.00000000D+00  -5  7  0 0.00000000D+00 0.00000000D+00 0.00000000D+00 0.00000000D+00 0.00000000D+00
  <mgrwgt>
 0.2454934338D-03    9    2    0
 0.440906993680917D+03 0.000000000000000D+00 0.000000000000000D+00 0.440906993680917D+03
 0.440906993680917D+03 0.000000000000000D+00 0.000000000000000D+00 -.440906993680917D+03
 0.190778715203400D+03 0.203649320803198D+00 -.126503638699616D+03 0.109900203609325D+03
 0.349126174234907D+03 -.896015066491272D+02 0.337310954868215D+03 0.905401943899872D+01
 0.449941798738833D+02 0.186564423191617D+02 0.398555970178910D+02 -.937788722808300D+01
 0.296914918049644D+03 0.707414150091622D+02 -.250662913186490D+03 -.109576335820241D+03
 0.000000000000000D+00 0.000000000000000D+00 0.000000000000000D+00 0.000000000000000D+00
 0.710245589193366D+03 0.000000000000000D+00 0.000000000000000D+00 0.710245589193366D+03
 0.461787757193631D+03 0.000000000000000D+00 0.000000000000000D+00 -.461787757193631D+03
 0.210377350608644D+03 -.101163068042115D+02 -.154152469614937D+03 0.109900203609325D+03
 0.310811074585251D+03 -.106578748260321D+03 0.291826179833304D+03 0.905401943899872D+01
 0.389949238486436D+02 0.164957773329768D+02 0.340668261991006D+02 -.937788722808300D+01
 0.331227627236171D+03 0.545821092923645D+02 -.293956305722313D+03 -.109576335820241D+03
 0.280622370108288D+03 0.456171684391909D+02 0.122215769304846D+03 0.248457831999735D+03
0.497594311702D-04 0.000000000000D+00 0.000000000000D+00 0.961860416300D-07 0.000000000000D+00  7 -2 2 23 -13 13 23 21 0 0.18940045D+00 0.24293285D-01 0.17012085D+06 0.17012085D+06 0.17012085D+06 0.11032636D+01  1  2  2  1  7  1       -2 0.208820654964D-03 0.100000000000D+01
-.274945877858D-05 0.000000000000D+00 -.191089317653D-06 0.961860416300D-07 0.000000000000D+00  7 -2 2 23 -13 13 23 21 2 0.18940045D+00 0.24293285D-01 0.17012085D+06 0.17012085D+06 0.17012085D+06 0.11032636D+01  1  2  3  1  7  1       -2 -.140444215231D-04 0.100000000000D+01
0.307252817711D-05 0.000000000000D+00 0.000000000000D+00 0.961860416300D-07 0.000000000000D+00  7 -2 2 23 -13 13 23 21 2 0.18940045D+00 0.24293285D-01 0.17012085D+06 0.17012085D+06 0.17012085D+06 0.11032636D+01  1  2 15  1  7  1       -2 0.156946818760D-04 0.100000000000D+01
0.816681434839D-04 0.000000000000D+00 0.000000000000D+00 0.961860416300D-07 0.000000000000D+00  7 -2 2 23 -13 13 23 21 2 0.30728089D+00 0.24293285D-01 0.23568517D+06 0.23568517D+06 0.23568517D+06 0.10923908D+01  1  2 12  1  7  1       -2 0.689808406980D-04 0.100000000000D+01
-.832765863242D-04 0.000000000000D+00 0.000000000000D+00 0.961860416300D-07 0.000000000000D+00  7 -2 2 23 -13 13 23 21 2 0.18940045D+00 0.24293285D-01 0.17012085D+06 0.17012085D+06 0.17012085D+06 0.11032636D+01  1  2  4  1  7  1       -2 -.425382439067D-03 0.100000000000D+01
-.949744499599D-04 0.000000000000D+00 -.150463532006D-04 0.961860416300D-07 0.000000000000D+00  7 -2 2 23 -13 13 23 21 2 0.30959639D+00 0.24293285D-01 0.17012085D+06 0.17012085D+06 0.17012085D+06 0.11032636D+01  1  2  5  1  7  1       -2 -.804187550083D-04 0.100000000000D+01
0.926100164315D-04 0.000000000000D+00 0.133960983367D-04 0.961860416300D-07 0.000000000000D+00  7 -2 2 23 -13 13 23 21 2 0.18940045D+00 0.24293285D-01 0.17012085D+06 0.17012085D+06 0.17012085D+06 0.11032636D+01  1  2  6  1  7  1       -2 0.473058231738D-03 0.100000000000D+01
0.448764524023D-05 0.000000000000D+00 0.000000000000D+00 0.961860416300D-07 0.000000000000D+00  7 21 2 23 -13 13 23 2 2 0.30728089D+00 0.24293285D-01 0.23568517D+06 0.23568517D+06 0.23568517D+06 0.10923908D+01  1  2 12  3  7  1       -2 0.275163233596D-04 0.100000000000D+01
-.461673648052D-05 0.000000000000D+00 -.836823256079D-06 0.961860416300D-07 0.000000000000D+00  7 21 2 23 -13 13 23 2 2 0.30959639D+00 0.24293285D-01 0.17012085D+06 0.17012085D+06 0.17012085D+06 0.11032636D+01  1  2  5  3  7  1       -2 -.287316832080D-04 0.100000000000D+01
  </mgrwgt>
  </event>
  <event>
  8     66 0.53686478E-06 0.64869482E+02 0.75467711E-02 0.10744950E+00
       -2 -1    0    0    0  501 0.00000000E+00 0.00000000E+00 0.32600668E+02 0.32602239E+02 0.32000000E+00 0.0000E+00 0.9000E+01
        2 -1    0    0  501    0 0.00000000E+00 0.00000000E+00 -.16872751E+04 0.16872752E+04 0.32000000E+00 0.0000E+00 0.9000E+01
       25  2    1    2    0    0 -.52412121E+02 -.98609188E+02 -.12610457E+04 0.13008645E+04 0.29923469E+03 0.0000E+00 0.0000E+00
       23  2    1    2    0    0 0.52412121E+02 0.98609188E+02 -.39362877E+03 0.41901290E+03 0.90318330E+02 0.0000E+00 0.0000E+00
       23  1    3    3    0    0 -.23972400E+02 -.11643999E+02 -.12253825E+03 0.15505204E+03 0.91188000E+02 0.0000E+00 0.9000E+01
      -13  1    4    4    0    0 -.68343544E+01 -.55507096E+01 -.14353866E+01 0.89213382E+01 0.10565837E+00 0.0000E+00 0.9000E+01
       13  1    4    4    0    0 0.59246475E+02 0.10415990E+03 -.39219339E+03 0.41009157E+03 0.10565837E+00 0.0000E+00 0.9000E+01
       23  1    3    3    0    0 -.28439720E+02 -.86965189E+02 -.11385074E+04 0.11458124E+04 0.91188000E+02 0.0000E+00 0.9000E+01
#aMCatNLO 1  0  0  2  1 0.15347131D+02 0.00000000D+00  -5  7  0 0.00000000D+00 0.00000000D+00 0.00000000D+00 0.00000000D+00 0.00000000D+00
  <mgrwgt>
 0.4144811679D-03    9    2    0
 0.234537146570073D+03 0.000000000000000D+00 0.000000000000000D+00 0.234537146570073D+03
 0.234537146570073D+03 0.000000000000000D+00 0.000000000000000D+00 -.234537146570073D+03
 0.136246158296131D+03 -.239724015536384D+02 -.116440018886595D+02 0.976601530319424D+02
 0.276469009949997D+02 -.683444384815819D+01 -.555085809392554D+01 0.262074318912554D+02
 0.120140663133873D+03 0.592465670573207D+02 0.104160051316963D+03 0.862014731989373D+01
 0.185040570715143D+03 -.284397216555241D+02 -.869651913343783D+02 -.132487732243092D+03
 0.000000000000000D+00 0.000000000000000D+00 0.000000000000000D+00 -.000000000000000D+00
 0.237236894442439D+03 0.000000000000000D+00 0.000000000000000D+00 0.237236894442439D+03
 0.257536727468598D+03 0.000000000000000D+00 0.000000000000000D+00 -.257536727468598D+03
 0.137190284554275D+03 -.280715947754482D+02 -.134314149896253D+02 0.976601530319424D+02
 0.279392546776216D+02 -.766775776266202D+01 -.591421647383222D+01 0.262074318912554D+02
 0.117065974841915D+03 0.556905090848631D+02 0.102609467027853D+03 0.862014731989373D+01
 0.187129774943424D+03 -.340190736335515D+02 -.893980131802396D+02 -.132487732243092D+03
 0.254483328938009D+02 0.140679170867987D+02 0.613417761584383D+01 -.202998330261592D+02
0.100497014272D-05 0.000000000000D+00 0.000000000000D+00 0.423834452741D-07 0.000000000000D+00  7 -2 2 23 -13 13 23 21 0 0.50156106D-02 0.25958091D+00 0.31119882D+05 0.31119882D+05 0.31119882D+05 0.11658620D+01  1  2  2  2  7  2        2 0.227495823297D-03 0.100000000000D+01
-.503251008630D-07 0.000000000000D+00 -.385934996276D-08 0.423834452741D-07 0.000000000000D+00  7 -2 2 23 -13 13 23 21 2 0.50156106D-02 0.25958091D+00 0.31119882D+05 0.31119882D+05 0.31119882D+05 0.11658620D+01  1  2  3  2  7  2        2 -.154845728763D-04 0.100000000000D+01
0.632552526294D-07 0.000000000000D+00 0.000000000000D+00 0.423834452741D-07 0.000000000000D+00  7 -2 2 23 -13 13 23 21 2 0.50156106D-02 0.25958091D+00 0.31119882D+05 0.31119882D+05 0.31119882D+05 0.11658620D+01  1  2 15  2  7  2        2 0.194630622165D-04 0.100000000000D+01
0.549178528008D-05 0.000000000000D+00 0.000000000000D+00 0.423834452741D-07 0.000000000000D+00  7 -2 2 23 -13 13 23 21 2 0.50156106D-02 0.28643970D+00 0.34277605D+05 0.34277605D+05 0.34277605D+05 0.11620027D+01  1  2 12  2  7  2        2 0.136057480615D-02 0.100000000000D+01
-.559394486532D-05 0.000000000000D+00 0.000000000000D+00 0.423834452741D-07 0.000000000000D+00  7 -2 2 23 -13 13 23 21 2 0.50156106D-02 0.25958091D+00 0.31119882D+05 0.31119882D+05 0.31119882D+05 0.11658620D+01  1  2  4  2  7  2        2 -.172120562995D-02 0.100000000000D+01
-.906543089679D-05 0.000000000000D+00 -.113720372954D-05 0.423834452741D-07 0.000000000000D+00  7 -2 2 23 -13 13 23 21 2 0.50156106D-02 0.28628294D+00 0.31119882D+05 0.31119882D+05 0.31119882D+05 0.11658620D+01  1  2  5  2  7  2        2 -.226460200713D-02 0.100000000000D+01
0.913836754205D-05 0.000000000000D+00 0.113177434870D-05 0.423834452741D-07 0.000000000000D+00  7 -2 2 23 -13 13 23 21 2 0.50156106D-02 0.25958091D+00 0.31119882D+05 0.31119882D+05 0.31119882D+05 0.11658620D+01  1  2  6  2  7  2        2 0.281179204311D-02 0.100000000000D+01
0.880107147306D-07 0.000000000000D+00 0.000000000000D+00 0.423834452741D-07 0.000000000000D+00  7 -2 21 23 -13 13 23 -2 2 0.50156106D-02 0.28643970D+00 0.34277605D+05 0.34277605D+05 0.34277605D+05 0.11620027D+01  1  2 12  4  7  2        2 0.567282643512D-05 0.100000000000D+01
-.140974532146D-06 0.000000000000D+00 -.181367122163D-07 0.423834452741D-07 0.000000000000D+00  7 -2 21 23 -13 13 23 -2 2 0.50156106D-02 0.28628294D+00 0.31119882D+05 0.31119882D+05 0.31119882D+05 0.11658620D+01  1  2  5  4  7  2        2 -.922518330846D-05 0.100000000000D+01
  </mgrwgt>
  </event>
  <event>
  8     66 0.53686478E-06 0.22246064E+03 0.75467711E-02 0.92146723E-01
       -2 -1    0    0    0  501 0.00000000E+00 0.00000000E+00 0.16898564E+03 0.16898594E+03 0.32000000E+00 0.0000E+00 0.9000E+01
        2 -1    0    0  501    0 0.00000000E+00 0.00000000E+00 -.25075675E+04 0.25075675E+04 0.32000000E+00 0.0000E+00 0.9000E+01
       25  2    1    2    0    0 0.19737971E+03 -.42928497E+03 -.42221986E+03 0.70082631E+03 0.29940536E+03 0.0000E+00 0.0000E+00
       23  2    1    2    0    0 -.19737971E+03 0.42928497E+03 -.19163620E+04 0.19757271E+04 0.88374945E+02 0.0000E+00 0.0000E+00
       23  1    3    3    0    0 0.22388263E+03 -.23042236E+03 -.29948654E+03 0.44858147E+03 0.91188000E+02 0.0000E+00 0.9000E+01
      -13  1    4    4    0    0 -.58008717E+02 0.23170892E+03 -.94040437E+03 0.97026513E+03 0.10565837E+00 0.0000E+00 0.9000E+01
       13  1    4    4    0    0 -.13937100E+03 0.19757606E+03 -.97595760E+03 0.10054620E+04 0.10565837E+00 0.0000E+00 0.9000E+01
       23  1    3    3    0    0 -.26502910E+02 -.19886261E+03 -.12273332E+03 0.25224485E+03 0.91188000E+02 0.0000E+00 0.9000E+01
#aMCatNLO 1  0  0  2  1 0.19756538D+03 0.00000000D+00  -5  7  0 0.00000000D+00 0.00000000D+00 0.00000000D+00 0.00000000D+00 0.00000000D+00
  <mgrwgt>
 0.2999769290D-03    8    2    0
 0.650955706879932D+03 0.000000000000000D+00 0.000000000000000D+00 0.650955706879932D+03
 0.650955706879932D+03 0.000000000000000D+00 0.000000000000000D+00 -.650955706879932D+03
 0.384264614975207D+03 0.223882625243785D+03 -.230422360843305D+03 0.190068799952525D+03
 0.305515320656009D+03 -.580086003898774D+02 0.231708967091423D+03 -.190487710904870D+03
 0.314012195544572D+03 -.139371114575501D+03 0.197576006425700D+03 -.200357363372492D+03
 0.298119282584077D+03 -.265029102784068D+02 -.198862612673819D+03 0.200776274324836D+03
 0.000000000000000D+00 0.000000000000000D+00 0.000000000000000D+00 -.000000000000000D+00
 0.674331945134883D+03 0.000000000000000D+00 0.000000000000000D+00 0.674331945134883D+03
 0.127120480945847D+04 0.000000000000000D+00 0.000000000000000D+00 -.127120480945847D+04
 0.386944598065566D+03 0.180749600870622D+03 -.269470413399766D+03 0.190068799952525D+03
 0.291940699052436D+03 -.914237679270617D+02 0.201458428504411D+03 -.190487710904870D+03
 0.313164251715834D+03 -.174448518383081D+03 0.165820655918102D+03 -.200357363372492D+03
 0.324766842449648D+03 -.613403602964792D+02 -.230400734542342D+03 0.200776274324836D+03
 0.628720363309866D+03 0.146463045736000D+03 0.132592063519594D+03 -.596872864323585D+03
0.156902702395D-04 0.000000000000D+00 0.000000000000D+00 0.983136344797D-07 0.000000000000D+00  7 -2 2 23 -13 13 23 21 0 0.25997816D-01 0.38577964D+00 0.26779813D+06 0.26779813D+06 0.26779813D+06 0.10882193D+01  1  2  2  2  7  2        2 0.903580917052D-04 0.100000000000D+01
-.815885419514D-06 0.000000000000D+00 -.602547690627D-07 0.983136344797D-07 0.000000000000D+00  7 -2 2 23 -13 13 23 21 2 0.25997816D-01 0.38577964D+00 0.26779813D+06 0.26779813D+06 0.26779813D+06 0.10882193D+01  1  2  3  2  7  2        2 -.556414739678D-05 0.100000000000D+01
0.935579422513D-06 0.000000000000D+00 0.000000000000D+00 0.983136344797D-07 0.000000000000D+00  7 -2 2 23 -13 13 23 21 2 0.25997816D-01 0.38577964D+00 0.26779813D+06 0.26779813D+06 0.26779813D+06 0.10882193D+01  1  2 15  2  7  2        2 0.638043245259D-05 0.100000000000D+01
0.308616070019D-04 0.000000000000D+00 0.000000000000D+00 0.983136344797D-07 0.000000000000D+00  7 -2 2 23 -13 13 23 21 2 0.25997816D-01 0.75393733D+00 0.39174894D+06 0.39174894D+06 0.39174894D+06 0.10760808D+01  1  2 12  2  7  2        2 0.246974304188D-05 0.100000000000D+01
-.349032161505D-04 0.000000000000D+00 -.344851410453D-05 0.983136344797D-07 0.000000000000D+00  7 -2 2 23 -13 13 23 21 2 0.25997816D-01 0.75570111D+00 0.26779813D+06 0.26779813D+06 0.26779813D+06 0.10882193D+01  1  2  5  2  7  2        2 -.288122350701D-05 0.100000000000D+01
0.306776127259D-04 0.000000000000D+00 0.279301390374D-05 0.983136344797D-07 0.000000000000D+00  7 -2 2 23 -13 13 23 21 2 0.25997816D-01 0.38577964D+00 0.26779813D+06 0.26779813D+06 0.26779813D+06 0.10882193D+01  1  2  6  2  7  2        2 0.209214130937D-03 0.100000000000D+01
0.224056285523D-05 0.000000000000D+00 0.000000000000D+00 0.983136344797D-07 0.000000000000D+00  7 -2 21 23 -13 13 23 -2 2 0.25997816D-01 0.75393733D+00 0.39174894D+06 0.39174894D+06 0.39174894D+06 0.10760808D+01  1  2 12  4  7  2        2 0.132493373433D-08 0.100000000000D+01
-.233914914432D-05 0.000000000000D+00 -.251192009955D-06 0.983136344797D-07 0.000000000000D+00  7 -2 21 23 -13 13 23 -2 2 0.25997816D-01 0.75570111D+00 0.26779813D+06 0.26779813D+06 0.26779813D+06 0.10882193D+01  1  2  5  4  7  2        2 -.142318715763D-08 0.100000000000D+01
  </mgrwgt>
  </event>
  <event>
  9     66 -.53686478E-06 0.25101971E+03 0.75467711E-02 0.10300668E+00
       -2 -1    0    0    0  502 0.00000000E+00 0.00000000E+00 0.73392896E+02 0.73393594E+02 0.32000000E+00 0.0000E+00 0.9000E+01
        2 -1    0    0  501    0 0.00000000E+00 0.00000000E+00 -.14173622E+04 0.14173623E+04 0.32000000E+00 0.0000E+00 0.9000E+01
       25  2    1    2    0    0 0.12670092E+03 -.73414780E+02 -.12424597E+04 0.12864024E+04 0.29946974E+03 0.0000E+00 0.0000E+00
       23  2    1    2    0    0 -.12076374E+03 0.73891258E+02 -.89937501E+02 0.19131685E+03 0.92030338E+02 0.0000E+00 0.0000E+00
       23  1    3    3    0    0 0.17055087E+03 -.11332079E+03 -.86672514E+03 0.89524126E+03 0.91188000E+02 0.0000E+00 0.9000E+01
      -13  1    4    4    0    0 -.13628493E+03 0.66048948E+02 -.81609280E+02 0.17203526E+03 0.10565837E+00 0.0000E+00 0.9000E+01
       13  1    4    4    0    0 0.15521189E+02 0.78423099E+01 -.83282212E+01 0.19281586E+02 0.10565837E+00 0.0000E+00 0.9000E+01
       23  1    3    3    0    0 -.43849952E+02 0.39906007E+02 -.37573454E+03 0.39116110E+03 0.91188000E+02 0.0000E+00 0.9000E+01
       21  1    1    2  501  502 -.59371759E+01 -.47647779E+00 -.11572145E+02 0.13036646E+02 0.75000000E+00 0.0000E+00 0.9000E+01
#aMCatNLO 2  0  0  1  2 0.59562646D+01 0.00000000D+00  -5  7  0 0.00000000D+00 0.00000000D+00 0.00000000D+00 0.00000000D+00 0.00000000D+00
  <mgrwgt>
 -.5963075139D-04    3    2    0
 0.319505997784118D+03 0.000000000000000D+00 0.000000000000000D+00 0.319505997784118D+03
 0.319505997784118D+03 0.000000000000000D+00 0.000000000000000D+00 -.319505997784118D+03
 0.261551397646324D+03 0.168113883521240D+03 -.113516363360642D+03 -.137643160685619D+03
 0.228887225082915D+03 -.138406015204236D+03 0.658788168011345D+02 0.169979758378238D+03
 0.270733773008294D+02 0.152691583018643D+02 0.782199096736633D+01 0.209436630161038D+02
 0.121499995538167D+03 -.449770266188681D+02 0.398155555921409D+02 -.532802607087225D+02
 0.000000000000000D+00 -.000000000000000D+00 -.000000000000000D+00 0.000000000000000D+00
 0.322716403148041D+03 0.000000000000000D+00 0.000000000000000D+00 0.322716403148041D+03
 0.322294536931672D+03 0.000000000000000D+00 0.000000000000000D+00 -.322294536931672D+03
 0.263040092710125D+03 0.170550867740959D+03 -.113320787405622D+03 -.137643160685619D+03
 0.227660335054549D+03 -.136285128342633D+03 0.660490249092095D+02 0.169979758378238D+03
 0.272222543274355D+02 0.155213880842952D+02 0.784223323245127D+01 0.209436630161038D+02
 0.121117072202313D+03 -.438499515968997D+02 0.399060070493218D+02 -.532802607087225D+02
 0.597118578528971D+01 -.593717588572128D+01 -.476477785360775D+00 0.421866216368829D+00
-.691796885924D-06 0.000000000000D+00 0.000000000000D+00 0.312916651300D-06 0.000000000000D+00  7 -2 2 23 -13 13 23 21 2 0.11338773D-01 0.21615341D+00 0.64443417D+05 0.64443417D+05 0.64443417D+05 0.11377258D+01  1  2 13  1  7  1       -2 -.836349057835D-04 0.100000000000D+01
-.106785455687D-04 0.000000000000D+00 0.000000000000D+00 0.312916651300D-06 0.000000000000D+00  7 -2 2 23 -13 13 23 21 2 0.11178132D-01 0.21615341D+00 0.63010895D+05 0.63010895D+05 0.63010895D+05 0.11385637D+01  1  2  8  1  7  1       -2 -.132208105173D-02 0.100000000000D+01
0.112308007355D-04 0.000000000000D+00 0.000000000000D+00 0.312916651300D-06 0.608966272606D-07  7 -2 2 23 -13 13 23 21 2 0.11290450D-01 0.21803992D+00 0.64443417D+05 0.64443417D+05 0.64443417D+05 0.11377258D+01  1  2  1  1  7  1       -2 0.134608520613D-02 0.100000000000D+01
  </mgrwgt>
  </event>
  <event>
  8     66 0.53686478E-06 0.27706348E+03 0.75467711E-02 0.90722081E-01
       -2 -1    0    0    0  501 0.00000000E+00 0.00000000E+00 0.19882682E+03 0.19882708E+03 0.32000000E+00 0.0000E+00 0.9000E+01
        2 -1    0    0  501    0 0.00000000E+00 0.00000000E+00 -.16721802E+04 0.16721802E+04 0.32000000E+00 0.0000E+00 0.9000E+01
       25  2    1    2    0    0 0.18298596E+03 0.65596617E+02 0.24528246E+02 0.35799248E+03 0.29961676E+03 0.0000E+00 0.0000E+00
       23  2    1    2    0    0 -.18298596E+03 -.65596617E+02 -.14978816E+04 0.15130148E+04 0.88191462E+02 0.0000E+00 0.0000E+00
       23  1    3    3    0    0 -.39012397E+02 -.21618223E+02 0.50876975E+00 0.10151268E+03 0.91188000E+02 0.0000E+00 0.9000E+01
      -11  1    4    4    0    0 -.91884301E+02 -.50723458E+02 -.50140824E+03 0.51227514E+03 0.51099893E-03 0.0000E+00 0.9000E+01
       11  1    4    4    0    0 -.91101655E+02 -.14873159E+02 -.99647334E+03 0.10007396E+04 0.51099893E-03 0.0000E+00 0.9000E+01
       23  1    3    3    0    0 0.22199835E+03 0.87214840E+02 0.24019476E+02 0.25647979E+03 0.91188000E+02 0.0000E+00 0.9000E+01
#aMCatNLO 1  0  0  1  2 0.60525645D+03 0.00000000D+00  -5  7  0 0.00000000D+00 0.00000000D+00 0.00000000D+00 0.00000000D+00 0.00000000D+00
  <mgrwgt>
 0.4098237823D-03    3    2    0
 0.576606044183788D+03 0.000000000000000D+00 0.000000000000000D+00 0.576606044183788D+03
 0.576606044183788D+03 0.000000000000000D+00 0.000000000000000D+00 -.576606044183788D+03
 0.165347351853336D+03 -.390123967253047D+02 -.216182228399491D+02 0.130518890448473D+03
 0.190527832727710D+03 -.918843011245069D+02 -.507234580774076D+02 -.159013398968290D+03
 0.350528607087660D+03 -.911016553148455D+02 -.148731589711271D+02 -.338156150214557D+03
 0.446808296698869D+03 0.221998353164657D+03 0.872148398884837D+02 0.366650658734374D+03
 0.000000000000000D+00 -.000000000000000D+00 0.000000000000000D+00 -.000000000000000D+00
 0.812411754708975D+03 0.000000000000000D+00 0.000000000000000D+00 0.812411754708975D+03
 0.121928589799770D+04 0.000000000000000D+00 0.000000000000000D+00 -.121928589799770D+04
 0.191656673431737D+03 -.134894008651898D+02 -.105829506411572D+03 0.130518890448473D+03
 0.226664755184948D+03 -.620582937408007D+02 -.149132217745141D+03 -.159013398968290D+03
 0.389475954364453D+03 -.381971163721072D+02 -.189427868596538D+03 -.338156150214557D+03
 0.494597906308994D+03 0.289301534418342D+03 -.134847151301326D+03 0.366650658734374D+03
 0.729302363416544D+03 -.175556723440244D+03 0.579236744054578D+03 -.406874143288726D+03
0.296789256678D-04 0.000000000000D+00 0.000000000000D+00 0.280206852668D-06 0.000000000000D+00  7 -2 2 23 -11 11 23 21 0 0.30588764D-01 0.25725851D+00 0.76764173D+05 0.76764173D+05 0.76764173D+05 0.11312697D+01  1  2  2  1  7  1       -2 0.390729059351D-03 0.100000000000D+01
-.571963463186D-06 0.000000000000D+00 -.113974889205D-06 0.280206852668D-06 0.000000000000D+00  7 -2 2 23 -11 11 23 21 2 0.30588764D-01 0.25725851D+00 0.76764173D+05 0.76764173D+05 0.76764173D+05 0.11312697D+01  1  2  3  1  7  1       -2 -.963669595498D-05 0.100000000000D+01
0.170528591303D-05 0.000000000000D+00 0.000000000000D+00 0.280206852668D-06 0.000000000000D+00  7 -2 2 23 -11 11 23 21 2 0.30588764D-01 0.25725851D+00 0.76764173D+05 0.76764173D+05 0.76764173D+05 0.11312697D+01  1  2 15  1  7  1       -2 0.287314189068D-04 0.100000000000D+01
  </mgrwgt>
  </event>
  <event>
  8     66 0.53686478E-06 0.20415563E+03 0.75467711E-02 0.99471783E-01
       -2 -1    0    0    0  501 0.00000000E+00 0.00000000E+00 0.60054376E+03 0.60054385E+03 0.32000000E+00 0.0000E+00 0.9000E+01
        2 -1    0    0  501    0 0.00000000E+00 0.00000000E+00 -.87336909E+02 0.87337496E+02 0.32000000E+00 0.0000E+00 0.9000E+01
       25  2    1    2    0    0 -.93509593E+02 0.35129441E+02 0.31062943E+03 0.44415234E+03 0.30133459E+03 0.0000E+00 0.0000E+00
       23  2    1    2    0    0 0.93509593E+02 -.35129441E+02 0.20257743E+03 0.24372901E+03 0.91586530E+02 0.0000E+00 0.0000E+00
       23  1    3    3    0    0 0.60860193E+02 0.10529880E+02 0.20989128E+03 0.23703258E+03 0.91188000E+02 0.0000E+00 0.9000E+01
      -13  1    4    4    0    0 0.62781692E+02 0.90067228E+01 0.16855127E+03 0.18008943E+03 0.10565837E+00 0.0000E+00 0.9000E+01
       13  1    4    4    0    0 0.30727902E+02 -.44136164E+02 0.34026160E+02 0.63639576E+02 0.10565837E+00 0.0000E+00 0.9000E+01
       23  1    3    3    0    0 -.15436979E+03 0.24599561E+02 0.10073814E+03 0.20711976E+03 0.91188000E+02 0.0000E+00 0.9000E+01
#aMCatNLO 1  0  0  1  1 0.20995509D+03 0.00000000D+00  -5  7  0 0.00000000D+00 0.00000000D+00 0.00000000D+00 0.00000000D+00 0.00000000D+00
  <mgrwgt>
 0.1210474096D-03    5    2    0
 0.229019359370693D+03 0.000000000000000D+00 0.000000000000000D+00 0.229019359370693D+03
 0.229019359370693D+03 0.000000000000000D+00 0.000000000000000D+00 -.229019359370693D+03
 0.120803370426474D+03 0.608601214241595D+02 0.105298915825863D+02 0.496323479788288D+02
 0.816056009125646D+02 0.627817745901633D+02 0.900677673023982D+01 0.513497892161429D+02
 0.574493186616980D+02 0.307278882965493D+02 -.441362436755082D+02 -.202042839453488D+02
 0.198180428740648D+03 -.154369784310872D+03 0.245995753626820D+02 -.807778532496229D+02
 0.000000000000000D+00 0.000000000000000D+00 -.000000000000000D+00 0.000000000000000D+00
 0.543594517058991D+03 0.000000000000000D+00 0.000000000000000D+00 0.543594517058991D+03
 0.289717309976689D+03 0.000000000000000D+00 0.000000000000000D+00 -.289717309976689D+03
 0.123856934615072D+03 0.354430203259456D+02 0.574953150484905D+02 0.496323479788288D+02
 0.797041569765059D+02 0.460237376715930D+02 0.399720822265940D+02 0.513497892161429D+02
 0.387006682912178D+02 0.207391247390151D+02 -.256791226778129D+02 -.202042839453488D+02
 0.261603903259849D+03 -.202135542012543D+03 0.112860586284435D+03 -.807778532496229D+02
 0.329446163893035D+03 0.999296592759895D+02 -.184648860881706D+03 0.253877207082301D+03
0.217871910729D-05 0.000000000000D+00 0.000000000000D+00 0.264751915875D-07 0.000000000000D+00  7 -2 2 23 -13 13 23 21 0 0.92391400D-01 0.13436499D-01 0.41679522D+05 0.41679522D+05 0.41679522D+05 0.11543139D+01  1  2  2  1  7  1       -2 0.125061607146D-03 0.100000000000D+01
-.119096241637D-06 0.000000000000D+00 -.836685504192D-08 0.264751915875D-07 0.000000000000D+00  7 -2 2 23 -13 13 23 21 2 0.92391400D-01 0.13436499D-01 0.41679522D+05 0.41679522D+05 0.41679522D+05 0.11543139D+01  1  2  3  1  7  1       -2 -.910895803567D-05 0.100000000000D+01
0.143205696565D-06 0.000000000000D+00 0.000000000000D+00 0.264751915875D-07 0.000000000000D+00  7 -2 2 23 -13 13 23 21 2 0.92391400D-01 0.13436499D-01 0.41679522D+05 0.41679522D+05 0.41679522D+05 0.11543139D+01  1  2 15  1  7  1       -2 0.109529458070D-04 0.100000000000D+01
-.776285370272D-06 0.000000000000D+00 -.620410303996D-06 0.264751915875D-07 0.000000000000D+00  7 -2 2 23 -13 13 23 21 2 0.24632927D+00 0.13436499D-01 0.41679522D+05 0.41679522D+05 0.41679522D+05 0.11543139D+01  1  2  5  1  7  1       -2 -.389824970929D-05 0.100000000000D+01
-.481499741498D-07 0.000000000000D+00 -.677088229313D-07 0.264751915875D-07 0.000000000000D+00  7 21 2 23 -13 13 23 2 2 0.24632927D+00 0.13436499D-01 0.41679522D+05 0.41679522D+05 0.41679522D+05 0.11543139D+01  1  2  5  3  7  1       -2 -.195993562404D-05 0.100000000000D+01
  </mgrwgt>
  </event>
  <event>
  8     66 0.53686478E-06 0.23296217E+03 0.75467711E-02 0.93998682E-01
       -2 -1    0    0    0  501 0.00000000E+00 0.00000000E+00 0.25994283E+03 0.25994303E+03 0.32000000E+00 0.0000E+00 0.9000E+01
        2 -1    0    0  501    0 0.00000000E+00 0.00000000E+00 -.24890290E+03 0.24890311E+03 0.32000000E+00 0.0000E+00 0.9000E+01
       25  2    1    2    0    0 -.47498624E+01 -.11608120E+03 -.87245563E+02 0.33147501E+03 0.29793705E+03 0.0000E+00 0.0000E+00
       23  2    1    2    0    0 0.47498624E+01 0.11608120E+03 0.98285494E+02 0.17737113E+03 0.91121198E+02 0.0000E+00 0.0000E+00
       23  1    3    3    0    0 0.25447136E+02 -.17994023E+03 -.68870829E+02 0.21467297E+03 0.91188000E+02 0.0000E+00 0.9000E+01
      -13  1    4    4    0    0 0.42051466E+02 0.96183173E+02 0.64056836E+02 0.12297487E+03 0.10565837E+00 0.0000E+00 0.9000E+01
       13  1    4    4    0    0 -.37301604E+02 0.19898029E+02 0.34228659E+02 0.54396263E+02 0.10565837E+00 0.0000E+00 0.9000E+01
       23  1    3    3    0    0 -.30196999E+02 0.63859026E+02 -.18374734E+02 0.11680204E+03 0.91188000E+02 0.0000E+00 0.9000E+01
#aMCatNLO 1  0  0  1  2 0.43686833D+03 0.00000000D+00  -5  7  0 0.00000000D+00 0.00000000D+00 0.00000000D+00 0.00000000D+00 0.00000000D+00
  <mgrwgt>
 0.1612175977D-03    5    2    0
 0.254363181813024D+03 0.000000000000000D+00 0.000000000000000D+00 0.254363181813024D+03
 0.254363181813024D+03 0.000000000000000D+00 0.000000000000000D+00 -.254363181813024D+03
 0.216218090273474D+03 0.254471362417603D+02 -.179940229112868D+03 -.735456893462136D+02
 0.121613806401057D+03 0.420515689949939D+02 0.961832755180848D+02 0.614032650844005D+02
 0.536661770995568D+02 -.373017065092322D+02 0.198979290450461D+02 0.330562199245226D+02
 0.117228289851961D+03 -.301969987275221D+02 0.638590245497372D+02 -.209137956627095D+02
 0.000000000000000D+00 0.000000000000000D+00 0.000000000000000D+00 0.000000000000000D+00
 0.820354521054731D+03 0.000000000000000D+00 0.000000000000000D+00 0.820354521054731D+03
 0.433645779866837D+03 0.000000000000000D+00 0.000000000000000D+00 -.433645779866837D+03
 0.439021135288146D+03 0.202377923040690D+02 -.422617757822527D+03 -.735456893462136D+02
 0.769487581530748D+02 0.404729383948098D+02 0.226426958634603D+02 0.614032650844005D+02
 0.543427276952866D+02 -.381604089669909D+02 -.201047647371876D+02 0.330562199245226D+02
 0.100251658637787D+03 -.319260280759458D+02 -.166878877602812D+02 -.209137956627095D+02
 0.583436021147273D+03 0.937570634405797D+01 0.436767714456536D+03 0.386708741187894D+03
0.163471039947D-05 0.000000000000D+00 0.000000000000D+00 0.128259488745D-07 0.000000000000D+00  7 -2 2 23 -13 13 23 21 0 0.39991236D-01 0.38292785D-01 0.54271372D+05 0.54271372D+05 0.54271372D+05 0.11441771D+01  1  2  2  1  7  1       -2 0.155903929324D-03 0.100000000000D+01
-.899643420260D-07 0.000000000000D+00 -.627771836310D-08 0.128259488745D-07 0.000000000000D+00  7 -2 2 23 -13 13 23 21 2 0.39991236D-01 0.38292785D-01 0.54271372D+05 0.54271372D+05 0.54271372D+05 0.11441771D+01  1  2  3  1  7  1       -2 -.112324144379D-04 0.100000000000D+01
0.101535488414D-06 0.000000000000D+00 0.000000000000D+00 0.128259488745D-07 0.000000000000D+00  7 -2 2 23 -13 13 23 21 2 0.39991236D-01 0.38292785D-01 0.54271372D+05 0.54271372D+05 0.54271372D+05 0.11441771D+01  1  2 15  1  7  1       -2 0.126771191823D-04 0.100000000000D+01
0.469533697546D-06 0.000000000000D+00 -.634146350227D-06 0.128259488745D-07 0.000000000000D+00  7 -2 2 23 -13 13 23 21 2 0.18923216D+00 0.38292785D-01 0.54271372D+05 0.54271372D+05 0.54271372D+05 0.11441771D+01  1  2  5  1  7  1       -2 0.160537476331D-05 0.100000000000D+01
0.772017217509D-07 0.000000000000D+00 -.119684956087D-06 0.128259488745D-07 0.000000000000D+00  7 21 2 23 -13 13 23 2 2 0.18923216D+00 0.38292785D-01 0.54271372D+05 0.54271372D+05 0.54271372D+05 0.11441771D+01  1  2  5  3  7  1       -2 0.226358890027D-05 0.100000000000D+01
  </mgrwgt>
  </event>
  <event>
  8     66 0.53686478E-06 0.10678928E+03 0.75467711E-02 0.10364980E+00
       -2 -1    0    0    0  501 0.00000000E+00 0.00000000E+00 0.17315909E+03 0.17315938E+03 0.32000000E+00 0.0000E+00 0.9000E+01
        2 -1    0    0  501    0 0.00000000E+00 0.00000000E+00 -.53176736E+03 0.53176745E+03 0.32000000E+00 0.0000E+00 0.9000E+01
       25  2    1    2    0    0 0.74557369E+02 0.15015430E+02 0.19213098E+02 0.31017688E+03 0.30009380E+03 0.0000E+00 0.0000E+00
       23  2    1    2    0    0 -.74557369E+02 -.15015430E+02 -.37782137E+03 0.39474995E+03 0.85406524E+02 0.0000E+00 0.0000E+00
       23  1    3    3    0    0 0.14245958E+03 -.34562912E+02 -.32716267E+02 0.17571264E+03 0.91188000E+02 0.0000E+00 0.9000E+01
      -13  1    4    4    0    0 -.63587112E+02 -.47851782E+02 -.27267040E+03 0.28404625E+03 0.10565837E+00 0.0000E+00 0.9000E+01
       13  1    4    4    0    0 -.10970257E+02 0.32836351E+02 -.10515097E+03 0.11070370E+03 0.10565837E+00 0.0000E+00 0.9000E+01
       23  1    3    3    0    0 -.67902210E+02 0.49578342E+02 0.51929365E+02 0.13446424E+03 0.91188000E+02 0.0000E+00 0.9000E+01
#aMCatNLO 1  0  0  2  1 0.73618360D+02 0.00000000D+00  -5  7  0 0.00000000D+00 0.00000000D+00 0.00000000D+00 0.00000000D+00 0.00000000D+00
  <mgrwgt>
 0.2578563037D-03    9    2    0
 0.303447668651710D+03 0.000000000000000D+00 0.000000000000000D+00 0.303447668651710D+03
 0.303447668651710D+03 0.000000000000000D+00 0.000000000000000D+00 -.303447668651710D+03
 0.184763705195952D+03 0.142459578226018D+03 -.345629115829023D+02 0.658259001329572D+02
 0.168810094332237D+03 -.635871927580413D+02 -.478519045055265D+02 -.148874820237690D+03
 0.664528224110876D+02 -.109701764405027D+02 0.328364739820528D+02 -.567221192454033D+02
 0.186868715364143D+03 -.679022090274743D+02 0.495783421063760D+02 0.139771039350136D+03
 0.000000000000000D+00 -.000000000000000D+00 0.000000000000000D+00 -.000000000000000D+00
 0.321884065039342D+03 0.000000000000000D+00 0.000000000000000D+00 0.321884065039342D+03
 0.389246849838667D+03 0.000000000000000D+00 0.000000000000000D+00 -.389246849838667D+03
 0.198170524530340D+03 0.153690215243371D+03 -.547957485464186D+02 0.658259001329572D+02
 0.171379284189224D+03 -.536101702545581D+02 -.658262606691540D+02 -.148874820237690D+03
 0.628114893123854D+02 -.717913230923805D+01 0.260066229494836D+02 -.567221192454033D+02
 0.178982805823459D+03 -.571725710955480D+02 0.302480926629297D+02 0.139771039350136D+03
 0.997868110226015D+02 -.357283415840266D+02 0.643672936031593D+02 -.673627847993251D+02
0.277092786671D-05 0.000000000000D+00 0.000000000000D+00 0.188620459705D-07 0.000000000000D+00  7 -2 2 23 -13 13 23 21 0 0.26639890D-01 0.81810393D-01 0.42204293D+05 0.42204293D+05 0.42204293D+05 0.11538272D+01  1  2  2  2  7  2        2 0.237698306960D-03 0.100000000000D+01
-.125461710713D-06 0.000000000000D+00 -.106410926102D-07 0.188620459705D-07 0.000000000000D+00  7 -2 2 23 -13 13 23 21 2 0.26639890D-01 0.81810393D-01 0.42204293D+05 0.42204293D+05 0.42204293D+05 0.11538272D+01  1  2  3  2  7  2        2 -.143282661389D-04 0.100000000000D+01
0.162171961052D-06 0.000000000000D+00 0.000000000000D+00 0.188620459705D-07 0.000000000000D+00  7 -2 2 23 -13 13 23 21 2 0.26639890D-01 0.81810393D-01 0.42204293D+05 0.42204293D+05 0.42204293D+05 0.11538272D+01  1  2 15  2  7  2        2 0.185207343739D-04 0.100000000000D+01
0.363576857178D-05 0.000000000000D+00 0.000000000000D+00 0.188620459705D-07 0.000000000000D+00  7 -2 2 23 -13 13 23 21 2 0.26639890D-01 0.10691013D+00 0.58614721D+05 0.58614721D+05 0.58614721D+05 0.11412720D+01  1  2 12  2  7  2        2 0.298795738405D-03 0.100000000000D+01
-.421447218987D-05 0.000000000000D+00 0.000000000000D+00 0.188620459705D-07 0.000000000000D+00  7 -2 2 23 -13 13 23 21 2 0.26639890D-01 0.81810393D-01 0.42204293D+05 0.42204293D+05 0.42204293D+05 0.11538272D+01  1  2  4  2  7  2        2 -.481310822466D-03 0.100000000000D+01
-.542394996448D-05 0.000000000000D+00 -.150474271296D-05 0.188620459705D-07 0.000000000000D+00  7 -2 2 23 -13 13 23 21 2 0.26639890D-01 0.10905856D+00 0.42204293D+05 0.42204293D+05 0.42204293D+05 0.11538272D+01  1  2  5  2  7  2        2 -.445959720010D-03 0.100000000000D+01
0.568029719915D-05 0.000000000000D+00 0.144463441620D-05 0.188620459705D-07 0.000000000000D+00  7 -2 2 23 -13 13 23 21 2 0.26639890D-01 0.81810393D-01 0.42204293D+05 0.42204293D+05 0.42204293D+05 0.11538272D+01  1  2  6  2  7  2        2 0.648714333279D-03 0.100000000000D+01
0.129342089630D-06 0.000000000000D+00 0.000000000000D+00 0.188620459705D-07 0.000000000000D+00  7 -2 21 23 -13 13 23 -2 2 0.26639890D-01 0.10691013D+00 0.58614721D+05 0.58614721D+05 0.58614721D+05 0.11412720D+01  1  2 12  4  7  2        2 0.137343644237D-04 0.100000000000D+01
-.171730103855D-06 0.000000000000D+00 -.563992180585D-07 0.188620459705D-07 0.000000000000D+00  7 -2 21 23 -13 13 23 -2 2 0.26639890D-01 0.10905856D+00 0.42204293D+05 0.42204293D+05 0.42204293D+05 0.11538272D+01  1  2  5  4  7  2        2 -.180083651166D-04 0.100000000000D+01
  </mgrwgt>
  </event>
  <event>
  8     66 0.53686478E-06 0.21261978E+03 0.75467711E-02 0.93338321E-01
       -2 -1    0    0    0  501 0.00000000E+00 0.00000000E+00 0.19880147E+03 0.19880172E+03 0.32000000E+00 0.0000E+00 0.9000E+01
        2 -1    0    0  501    0 0.00000000E+00 0.00000000E+00 -.11779313E+04 0.11779313E+04 0.32000000E+00 0.0000E+00 0.9000E+01
       25  2    1    2    0    0 -.59920989E+02 -.43497020E+02 0.73267412E+02 0.31756259E+03 0.29999228E+03 0.0000E+00 0.0000E+00
       23  2    1    2    0    0 0.59920989E+02 0.43497020E+02 -.10523972E+04 0.10591705E+04 0.93912864E+02 0.0000E+00 0.0000E+00
       23  1    3    3    0    0 -.65360419E+02 -.13678828E+03 0.26582975E+02 0.17889920E+03 0.91188000E+02 0.0000E+00 0.9000E+01
      -11  1    4    4    0    0 0.58302798E+02 -.14225220E+02 -.44366295E+03 0.44770346E+03 0.51099893E-03 0.0000E+00 0.9000E+01
       11  1    4    4    0    0 0.16181911E+01 0.57722240E+02 -.60873427E+03 0.61146699E+03 0.51099893E-03 0.0000E+00 0.9000E+01
       23  1    3    3    0    0 0.54394307E+01 0.93291260E+02 0.46684437E+02 0.13866339E+03 0.91188000E+02 0.0000E+00 0.9000E+01
#aMCatNLO 1  0  0  1  2 0.47508729D+03 0.00000000D+00  -5  7  0 0.00000000D+00 0.00000000D+00 0.00000000D+00 0.00000000D+00 0.00000000D+00
  <mgrwgt>
 0.2406760065D-03    5    2    0
 0.483915975150298D+03 0.000000000000000D+00 0.000000000000000D+00 0.483915975150298D+03
 0.483915975150298D+03 0.000000000000000D+00 0.000000000000000D+00 -.483915975150298D+03
 0.281375938643360D+03 -.653604194623318D+02 -.136788280098246D+03 0.218801621335181D+03
 0.188012521087838D+03 0.583027976483733D+02 -.142252202855119D+02 -.178177257190715D+03
 0.253966555246891D+03 0.161819106924847D+01 0.577222399932128D+02 -.247314649084525D+03
 0.244476935322508D+03 0.543943074471005D+01 0.932912603905448D+02 0.206690284940059D+03
 0.000000000000000D+00 -.000000000000000D+00 0.000000000000000D+00 0.000000000000000D+00
 0.904854685039279D+03 0.000000000000000D+00 0.000000000000000D+00 0.904854685039279D+03
 0.693339684485961D+03 0.000000000000000D+00 0.000000000000000D+00 -.693339684485961D+03
 0.307405806159125D+03 0.623775158357606D+02 -.185520819143290D+03 0.218801621335181D+03
 0.238671717294306D+03 0.150873201055595D+03 -.495412036535732D+02 -.178177257190715D+03
 0.273557195416183D+03 0.116066023946628D+03 0.140599287831392D+02 -.247314649084525D+03
 0.258514909566848D+03 0.114564994342981D+03 0.516594164402334D+02 0.206690284940059D+03
 0.520044741088778D+03 -.443881735180965D+03 0.169342677573490D+03 0.211515000553318D+03
0.769194146345D-05 0.000000000000D+00 0.000000000000D+00 0.320250732406D-06 0.000000000000D+00  7 -2 2 23 -11 11 23 21 0 0.30584864D-01 0.18122022D+00 0.45207171D+05 0.45207171D+05 0.45207171D+05 0.11511647D+01  1  2  2  1  7  1       -2 0.190526844442D-03 0.100000000000D+01
-.759175201222D-07 0.000000000000D+00 -.295390805544D-07 0.320250732406D-06 0.000000000000D+00  7 -2 2 23 -11 11 23 21 2 0.30584864D-01 0.18122022D+00 0.45207171D+05 0.45207171D+05 0.45207171D+05 0.11511647D+01  1  2  3  1  7  1       -2 -.249193766870D-05 0.100000000000D+01
0.443508595434D-06 0.000000000000D+00 0.000000000000D+00 0.320250732406D-06 0.000000000000D+00  7 -2 2 23 -11 11 23 21 2 0.30584864D-01 0.18122022D+00 0.45207171D+05 0.45207171D+05 0.45207171D+05 0.11511647D+01  1  2 15  1  7  1       -2 0.145578487492D-04 0.100000000000D+01
0.296434707027D-05 0.000000000000D+00 -.233431615767D-05 0.320250732406D-06 0.000000000000D+00  7 -2 2 23 -11 11 23 21 2 0.80278778D-01 0.18122022D+00 0.45207171D+05 0.45207171D+05 0.45207171D+05 0.11511647D+01  1  2  5  1  7  1       -2 0.148165875023D-04 0.100000000000D+01
0.457007480351D-06 0.000000000000D+00 -.249998260240D-06 0.320250732406D-06 0.000000000000D+00  7 21 2 23 -11 11 23 2 2 0.80278778D-01 0.18122022D+00 0.45207171D+05 0.45207171D+05 0.45207171D+05 0.11511647D+01  1  2  5  3  7  1       -2 0.232666634457D-04 0.100000000000D+01
  </mgrwgt>
  </event>
  <event>
  9     66 0.53686478E-06 0.39585770E+03 0.75467711E-02 0.95002178E-01
       21 -1    0    0  502  501 0.00000000E+00 0.00000000E+00 0.28511003E+03 0.28511102E+03 0.75000000E+00 0.0000E+00 0.9000E+01
        2 -1    0    0  501    0 0.00000000E+00 0.00000000E+00 -.85434842E+03 0.85434848E+03 0.32000000E+00 0.0000E+00 0.9000E+01
       25  2    1    2    0    0 0.18593778E+03 0.20229416E+03 -.16278218E+03 0.43683381E+03 0.29804354E+03 0.0000E+00 0.0000E+00
       23  2    1    2    0    0 -.18306340E+03 -.36042255E+03 -.31137095E+03 0.51808801E+03 0.89703379E+02 0.0000E+00 0.0000E+00
       23  1    3    3    0    0 0.15623230E+03 0.24125514E+03 -.12860105E+03 0.32782016E+03 0.91188000E+02 0.0000E+00 0.9000E+01
      -11  1    4    4    0    0 -.15729639E+03 -.31202631E+03 -.30323437E+03 0.46265933E+03 0.51099893E-03 0.0000E+00 0.9000E+01
       11  1    4    4    0    0 -.25767013E+02 -.48396235E+02 -.81365798E+01 0.55428679E+02 0.51099893E-03 0.0000E+00 0.9000E+01
       23  1    3    3    0    0 0.29705477E+02 -.38960986E+02 -.34181127E+02 0.10901364E+03 0.91188000E+02 0.0000E+00 0.9000E+01
        2  1    1    2  502    0 -.28743757E+01 0.15812839E+03 -.95085258E+02 0.18453769E+03 0.32000000E+00 0.0000E+00 0.9000E+01
#aMCatNLO 2  0  0  1  2 0.15815451D+03 0.00000000D+00  -5  7  0 0.00000000D+00 0.00000000D+00 0.00000000D+00 0.00000000D+00 0.00000000D+00
  <mgrwgt>
 0.3771946253D-04    1    2    0
 0.406829704659355D+03 0.000000000000000D+00 0.000000000000000D+00 0.406829704659355D+03
 0.406829704659355D+03 0.000000000000000D+00 0.000000000000000D+00 -.406829704659355D+03
 0.356127202844036D+03 0.155076934279201D+03 0.304815532784211D+03 0.393696417250604D+02
 0.306191842079556D+03 -.158461400122696D+03 -.247935476945094D+03 -.846842848422021D+02
 0.509959266640281D+02 -.259598541599829D+02 -.377874226715253D+02 0.223334098641218D+02
 0.100344437731089D+03 0.293443200034787D+02 -.190926331675912D+02 0.229812332530199D+02
 0.000000000000000D+00 -.000000000000000D+00 0.000000000000000D+00 -.000000000000000D+00
 0.491555515710599D+03 0.000000000000000D+00 0.000000000000000D+00 0.491555515710599D+03
 0.495536591465302D+03 0.000000000000000D+00 0.000000000000000D+00 -.495536591465302D+03
 0.304101622115112D+03 0.156232302024569D+03 0.241255143662445D+03 0.393696417250604D+02
 0.359546938718300D+03 -.157296390227495D+03 -.312026310851930D+03 -.846842848422021D+02
 0.592023288818514D+02 -.257670126704260D+02 -.483962354622563D+02 0.223334098641218D+02
 0.106036607997280D+03 0.297054766123327D+02 -.389609864989741D+02 0.229812332530199D+02
 0.158204609463358D+03 -.287437573898037D+01 0.158128389150715D+03 -.398107575470359D+01
0.151326972359D-06 0.000000000000D+00 0.000000000000D+00 0.560452397143D-07 0.520744521132D-12  7 21 2 23 -11 11 23 2 2 0.43863148D-01 0.13143826D+00 0.23400112D+06 0.23400112D+06 0.23400112D+06 0.10926265D+01  1  2  1  3  7  1       -2 0.377194625342D-04 0.100000000000D+01
  </mgrwgt>
  </event>
  <event>
  8     66 0.53686478E-06 0.22061106E+03 0.75467711E-02 0.96847079E-01
       -2 -1    0    0    0  501 0.00000000E+00 0.00000000E+00 0.32014048E+03 0.32014064E+03 0.32000000E+00 0.0000E+00 0.9000E+01
        2 -1    0    0  501    0 0.00000000E+00 0.00000000E+00 -.63140839E+03 0.63140847E+03 0.32000000E+00 0.0000E+00 0.9000E+01
       25  2    1    2    0    0 0.17371936E+03 0.29290068E+03 0.37672878E+02 0.45568076E+03 0.30042717E+03 0.0000E+00 0.0000E+00
       23  2    1    2    0    0 -.17371936E+03 -.29290068E+03 -.34894079E+03 0.49586835E+03 0.90313445E+02 0.0000E+00 0.0000E+00
       23  1    3    3    0    0 0.13058348E+03 0.14029969E+03 0.13191198E+03 0.24990412E+03 0.91188000E+02 0.0000E+00 0.9000E+01
      -13  1    4    4    0    0 -.79824853E+02 -.20298685E+03 -.18065849E+03 0.28321929E+03 0.10565837E+00 0.0000E+00 0.9000E+01
       13  1    4    4    0    0 -.93894512E+02 -.89913830E+02 -.16828230E+03 0.21264905E+03 0.10565837E+00 0.0000E+00 0.9000E+01
       23  1    3    3    0    0 0.43135885E+02 0.15260099E+03 -.94239100E+02 0.20577664E+03 0.91188000E+02 0.0000E+00 0.9000E+01
#aMCatNLO 1  0  0  1  2 0.76804618D+02 0.00000000D+00  -5  7  0 0.00000000D+00 0.00000000D+00 0.00000000D+00 0.00000000D+00 0.00000000D+00
  <mgrwgt>
 0.1815757702D-03    9    2    0
 0.449599262822131D+03 0.000000000000000D+00 0.000000000000000D+00 0.449599262822131D+03
 0.449599262822131D+03 0.000000000000000D+00 0.000000000000000D+00 -.449599262822131D+03
 0.310116175434751D+03 0.130583479668276D+03 0.140299688212743D+03 0.226098967815886D+03
 0.237171163494359D+03 -.798248335061834D+02 -.202987000723643D+03 -.931366430906653D+02
 0.166776352595868D+03 -.938945312709247D+02 -.899136757332200D+02 -.104468654144369D+03
 0.185134834119284D+03 0.431358851088319D+02 0.152600988244120D+03 -.284936705808517D+02
 0.000000000000000D+00 -.000000000000000D+00 -.000000000000000D+00 0.000000000000000D+00
 0.606041393295920D+03 0.000000000000000D+00 0.000000000000000D+00 0.606041393295920D+03
 0.460762755828956D+03 0.000000000000000D+00 0.000000000000000D+00 -.460762755828956D+03
 0.326939976800175D+03 0.142665907519391D+03 0.164621361525041D+03 0.226098967815886D+03
 0.219473730745294D+03 -.711640914838758D+02 -.185553109066742D+03 -.931366430906653D+02
 0.156937531069063D+03 -.877549631495523D+02 -.775548541481327D+02 -.104468654144369D+03
 0.199121441204982D+03 0.504237022135813D+02 0.167271210898513D+03 -.284936705808517D+02
 0.164331469305362D+03 -.341705550995444D+02 -.687846092086786D+02 0.145278637466964D+03
0.652695483827D-05 0.000000000000D+00 0.000000000000D+00 0.340357390566D-06 0.000000000000D+00  7 -2 2 23 -13 13 23 21 0 0.49252400D-01 0.97139771D-01 0.13812485D+06 0.13812485D+06 0.13812485D+06 0.11103897D+01  1  2  2  1  7  1       -2 0.148620128295D-03 0.100000000000D+01
-.346625772289D-06 0.000000000000D+00 -.250652251656D-07 0.340357390566D-06 0.000000000000D+00  7 -2 2 23 -13 13 23 21 2 0.49252400D-01 0.97139771D-01 0.13812485D+06 0.13812485D+06 0.13812485D+06 0.11103897D+01  1  2  3  1  7  1       -2 -.973147616937D-05 0.100000000000D+01
0.414155271513D-06 0.000000000000D+00 0.000000000000D+00 0.340357390566D-06 0.000000000000D+00  7 -2 2 23 -13 13 23 21 2 0.49252400D-01 0.97139771D-01 0.13812485D+06 0.13812485D+06 0.13812485D+06 0.11103897D+01  1  2 15  1  7  1       -2 0.116273586021D-04 0.100000000000D+01
0.210046886569D-04 0.000000000000D+00 0.000000000000D+00 0.340357390566D-06 0.000000000000D+00  7 -2 2 23 -13 13 23 21 2 0.66845392D-01 0.97139771D-01 0.17051826D+06 0.17051826D+06 0.17051826D+06 0.11031846D+01  1  2 12  1  7  1       -2 0.310718052829D-03 0.100000000000D+01
-.210033826024D-04 0.000000000000D+00 0.000000000000D+00 0.340357390566D-06 0.000000000000D+00  7 -2 2 23 -13 13 23 21 2 0.49252400D-01 0.97139771D-01 0.13812485D+06 0.13812485D+06 0.13812485D+06 0.11103897D+01  1  2  4  1  7  1       -2 -.589667398133D-03 0.100000000000D+01
-.245890873163D-04 0.000000000000D+00 -.312400839029D-05 0.340357390566D-06 0.000000000000D+00  7 -2 2 23 -13 13 23 21 2 0.67356325D-01 0.97139771D-01 0.13812485D+06 0.13812485D+06 0.13812485D+06 0.11103897D+01  1  2  5  1  7  1       -2 -.364590372818D-03 0.100000000000D+01
0.245036463925D-04 0.000000000000D+00 0.297695275154D-05 0.340357390566D-06 0.000000000000D+00  7 -2 2 23 -13 13 23 21 2 0.49252400D-01 0.97139771D-01 0.13812485D+06 0.13812485D+06 0.13812485D+06 0.11103897D+01  1  2  6  1  7  1       -2 0.687936876005D-03 0.100000000000D+01
0.822516753242D-06 0.000000000000D+00 0.000000000000D+00 0.340357390566D-06 0.000000000000D+00  7 21 2 23 -13 13 23 2 2 0.66845392D-01 0.97139771D-01 0.17051826D+06 0.17051826D+06 0.17051826D+06 0.11031846D+01  1  2 12  3  7  1       -2 0.122420297721D-03 0.100000000000D+01
-.905347322877D-06 0.000000000000D+00 -.124524535262D-06 0.340357390566D-06 0.000000000000D+00  7 21 2 23 -13 13 23 2 2 0.67356325D-01 0.97139771D-01 0.13812485D+06 0.13812485D+06 0.13812485D+06 0.11103897D+01  1  2  5  3  7  1       -2 -.135757696124D-03 0.100000000000D+01
  </mgrwgt>
  </event>
  <event>
  7     66 0.53686478E-06 0.30567107E+03 0.75467711E-02 0.93292555E-01
       -2 -1    0    0    0  501 0.00000000E+00 0.00000000E+00 0.10307223E+04 0.10307223E+04 0.32000000E+00 0.0000E+00 0.9000E+01
        2 -1    0    0  501    0 0.00000000E+00 0.00000000E+00 -.16571998E+03 0.16572029E+03 0.32000000E+00 0.0000E+00 0.9000E+01
       23  2    1    2    0    0 0.23182050E+03 0.85378286E+02 0.78448860E+01 0.26319993E+03 0.90456971E+02 0.0000E+00 0.0000E+00
       23  1    1    2    0    0 -.15960345E+03 -.13972816E+03 0.64704351E+03 0.68700639E+03 0.91188000E+02 0.0000E+00 0.9000E+01
      -11  1    3    3    0    0 0.15109601E+03 0.29688724E+02 0.41561896E+02 0.15949551E+03 0.51099893E-03 0.0000E+00 0.9000E+01
       11  1    3    3    0    0 0.80724486E+02 0.55689562E+02 -.33717009E+02 0.10370442E+03 0.51099893E-03 0.0000E+00 0.9000E+01
       23  1    1    2    0    0 -.72217052E+02 0.54349877E+02 0.21011388E+03 0.24623628E+03 0.91188000E+02 0.0000E+00 0.9000E+01
#aMCatNLO 1  0  0  2  2 0.43198901D+03 0.00000000D+00  -5  7  0 0.00000000D+00 0.00000000D+00 0.00000000D+00 0.00000000D+00 0.00000000D+00
  <mgrwgt>
 0.4491351165D-03    5    2    0
 0.413293461081360D+03 0.000000000000000D+00 0.000000000000000D+00 0.413293461081360D+03
 0.413293461081360D+03 0.000000000000000D+00 0.000000000000000D+00 -.413293461081360D+03
 0.317292212986911D+03 -.159603446654791D+03 -.139728162817990D+03 0.217627841531252D+03
 0.187368174839154D+03 0.151096012697994D+03 0.296887240933394D+02 -.106749274241247D+03
 0.185390877321035D+03 0.807244858775646D+02 0.556895619668761D+02 -.157327707227950D+03
 0.136535657015619D+03 -.722170519207674D+02 0.543498767577741D+02 0.464491399379445D+02
 0.000000000000000D+00 0.000000000000000D+00 0.000000000000000D+00 -.000000000000000D+00
 0.601108602165137D+03 0.000000000000000D+00 0.000000000000000D+00 0.601108602165137D+03
 0.812485607883689D+03 0.000000000000000D+00 0.000000000000000D+00 -.812485607883689D+03
 0.452525432148728D+03 -.345936302240212D+03 -.171552361628192D+03 0.217627841531252D+03
 0.130962682431461D+03 0.740446512086926D+02 0.165289523562065D+02 -.106749274241247D+03
 0.162696422514580D+03 -.352936434427689D+01 0.412996613153740D+02 -.157327707227950D+03
 0.186478554364973D+03 -.150402010113839D+03 0.409964955428170D+02 0.464491399379445D+02
 0.480931118589083D+03 0.425823025489635D+03 0.727272524137946D+02 -.211377005718552D+03
0.608583221490D-04 0.000000000000D+00 0.000000000000D+00 0.269581842053D-09 0.000000000000D+00  7 -2 2 23 -11 11 23 21 0 0.15857268D+00 0.25495409D-01 0.93434805D+05 0.93434805D+05 0.93434805D+05 0.11241502D+01  1  2  2  2  7  2        2 0.410772490496D-03 0.100000000000D+01
-.300696696492D-05 0.000000000000D+00 -.233711981417D-06 0.269581842053D-09 0.000000000000D+00  7 -2 2 23 -11 11 23 21 2 0.15857268D+00 0.25495409D-01 0.93434805D+05 0.93434805D+05 0.93434805D+05 0.11241502D+01  1  2  3  2  7  2        2 -.256483083057D-04 0.100000000000D+01
0.377212005622D-05 0.000000000000D+00 0.000000000000D+00 0.269581842053D-09 0.000000000000D+00  7 -2 2 23 -11 11 23 21 2 0.15857268D+00 0.25495409D-01 0.93434805D+05 0.93434805D+05 0.93434805D+05 0.11241502D+01  1  2 15  2  7  2        2 0.321747792033D-04 0.100000000000D+01
0.733266640392D-05 0.000000000000D+00 -.206535070852D-04 0.269581842053D-09 0.000000000000D+00  7 -2 2 23 -11 11 23 21 2 0.15857268D+00 0.71282997D-01 0.93434805D+05 0.93434805D+05 0.93434805D+05 0.11241502D+01  1  2  5  2  7  2        2 0.200325488099D-04 0.100000000000D+01
0.200096142905D-05 0.000000000000D+00 -.238406323453D-05 0.269581842053D-09 0.000000000000D+00  7 -2 21 23 -11 11 23 -2 2 0.15857268D+00 0.71282997D-01 0.93434805D+05 0.93434805D+05 0.93434805D+05 0.11241502D+01  1  2  5  4  7  2        2 0.118036062616D-04 0.100000000000D+01
  </mgrwgt>
  </event>
  <event>
  8     66 0.53686478E-06 0.33675728E+03 0.75467711E-02 0.96667791E-01
       -2 -1    0    0    0  501 0.00000000E+00 0.00000000E+00 0.90696336E+02 0.90696901E+02 0.32000000E+00 0.0000E+00 0.9000E+01
        2 -1    0    0  501    0 0.00000000E+00 0.00000000E+00 -.15121655E+04 0.15121656E+04 0.32000000E+00 0.0000E+00 0.9000E+01
       25  2    1    2    0    0 -.15890938E+03 0.22390174E+03 -.54824466E+03 0.68287798E+03 0.30060930E+03 0.0000E+00 0.0000E+00
       23  2    1    2    0    0 0.15890938E+03 -.22390174E+03 -.87322454E+03 0.91998449E+03 0.92011823E+02 0.0000E+00 0.0000E+00
       23  1    3    3    0    0 -.19703500E+03 0.15657547E+03 -.27086838E+03 0.38081965E+03 0.91188000E+02 0.0000E+00 0.9000E+01
      -11  1    4    4    0    0 0.26301483E+02 -.33197966E+00 -.12945768E+03 0.13210288E+03 0.51099893E-03 0.0000E+00 0.9000E+01
       11  1    4    4    0    0 0.13260790E+03 -.22356976E+03 -.74376686E+03 0.78788161E+03 0.51099893E-03 0.0000E+00 0.9000E+01
       23  1    3    3    0    0 0.38125621E+02 0.67326268E+02 -.27737627E+03 0.30205833E+03 0.91188000E+02 0.0000E+00 0.9000E+01
#aMCatNLO 1  0  0  2  1 0.14887376D+03 0.00000000D+00  -5  7  0 0.00000000D+00 0.00000000D+00 0.00000000D+00 0.00000000D+00 0.00000000D+00
  <mgrwgt>
 0.4099779255D-03    4    2    0
 0.370335460410348D+03 0.000000000000000D+00 0.000000000000000D+00 0.370335460410348D+03
 0.370335460410348D+03 0.000000000000000D+00 0.000000000000000D+00 -.370335460410348D+03
 0.304278795169832D+03 -.197035001212854D+03 0.156575474452105D+03 0.144677790082491D+03
 0.374290830433502D+02 0.263014832612002D+02 -.331979650297164D+00 -.266281434808850D+02
 0.277618816725666D+03 0.132607897095581D+03 -.223569762908952D+03 -.974880204993480D+02
 0.121344225881849D+03 0.381256208560722D+02 0.673262681071444D+02 -.205616261022584D+02
 0.000000000000000D+00 0.000000000000000D+00 0.000000000000000D+00 0.000000000000000D+00
 0.581236973808910D+03 0.000000000000000D+00 0.000000000000000D+00 0.581236973808910D+03
 0.404970708232841D+03 0.000000000000000D+00 0.000000000000000D+00 -.404970708232841D+03
 0.343886711302427D+03 -.260545978591563D+03 0.145351123019431D+03 0.144677790082491D+03
 0.329834004172138D+02 0.194020639005773D+02 -.155132016088722D+01 -.266281434808850D+02
 0.264744601369619D+03 0.794640157354526D+02 -.232961928255827D+03 -.974880204993480D+02
 0.113869773506092D+03 0.150780028555566D+02 0.632530421106170D+02 -.205616261022584D+02
 0.230723195446399D+03 0.146601896099977D+03 0.259090832866662D+02 0.176266265576069D+03
0.784851186059D-05 0.000000000000D+00 0.000000000000D+00 0.265727559519D-06 0.000000000000D+00  7 -2 2 23 -11 11 23 21 0 0.13953328D-01 0.23264090D+00 0.11340547D+06 0.11340547D+06 0.11340547D+06 0.11172661D+01  1  2  2  2  7  2        2 0.459584964506D-03 0.100000000000D+01
-.431239144595D-06 0.000000000000D+00 -.301403521053D-07 0.265727559519D-06 0.000000000000D+00  7 -2 2 23 -11 11 23 21 2 0.13953328D-01 0.23264090D+00 0.11340547D+06 0.11340547D+06 0.11340547D+06 0.11172661D+01  1  2  3  2  7  2        2 -.315217190931D-04 0.100000000000D+01
0.510365935402D-06 0.000000000000D+00 0.000000000000D+00 0.265727559519D-06 0.000000000000D+00  7 -2 2 23 -11 11 23 21 2 0.13953328D-01 0.23264090D+00 0.11340547D+06 0.11340547D+06 0.11340547D+06 0.11172661D+01  1  2 15  2  7  2        2 0.373055457790D-04 0.100000000000D+01
-.757785749214D-06 0.000000000000D+00 0.000000000000D+00 0.265727559519D-06 0.000000000000D+00  7 -2 2 23 -11 11 23 21 2 0.13953328D-01 0.23264090D+00 0.11340547D+06 0.11340547D+06 0.11340547D+06 0.11172661D+01  1  2  4  2  7  2        2 -.553908656457D-04 0.100000000000D+01
  </mgrwgt>
  </event>
  <event>
  8     66 0.53686478E-06 0.16263803E+03 0.75467711E-02 0.10028485E+00
       -2 -1    0    0    0  501 0.00000000E+00 0.00000000E+00 0.78546163E+02 0.78546815E+02 0.32000000E+00 0.0000E+00 0.9000E+01
        2 -1    0    0  501    0 0.00000000E+00 0.00000000E+00 -.13605891E+04 0.13605891E+04 0.32000000E+00 0.0000E+00 0.9000E+01
       25  2    1    2    0    0 -.19779335E+02 -.23470475E+03 -.58513937E+03 0.69833215E+03 0.29967010E+03 0.0000E+00 0.0000E+00
       23  2    1    2    0    0 0.19779335E+02 0.23470475E+03 -.69690355E+03 0.74080378E+03 0.87396520E+02 0.0000E+00 0.0000E+00
       23  1    3    3    0    0 0.61304042E+02 -.19767102E+03 -.48856282E+03 0.53836874E+03 0.91188000E+02 0.0000E+00 0.9000E+01
      -13  1    4    4    0    0 -.20489544E+02 0.55928688E+02 -.99919705E+02 0.11632626E+03 0.10565837E+00 0.0000E+00 0.9000E+01
       13  1    4    4    0    0 0.40268879E+02 0.17877606E+03 -.59698384E+03 0.62447753E+03 0.10565837E+00 0.0000E+00 0.9000E+01
       23  1    3    3    0    0 -.81083377E+02 -.37033728E+02 -.96576547E+02 0.15996341E+03 0.91188000E+02 0.0000E+00 0.9000E+01
#aMCatNLO 1  0  0  2  1 0.26859771D+02 0.00000000D+00  -5  7  0 0.00000000D+00 0.00000000D+00 0.00000000D+00 0.00000000D+00 0.00000000D+00
  <mgrwgt>
 0.3692730583D-03    9    2    0
 0.326909081687095D+03 0.000000000000000D+00 0.000000000000000D+00 0.326909081687095D+03
 0.326909081687095D+03 0.000000000000000D+00 0.000000000000000D+00 -.326909081687095D+03
 0.227016166544405D+03 0.613040417629492D+02 -.197671020112870D+03 -.197248776822796D+02
 0.601204001188492D+02 -.204896322765348D+02 0.559285089417911D+02 0.816329389222873D+01
 0.203954686041487D+03 0.402689671973634D+02 0.178776239588527D+03 -.895264229025424D+02
 0.162726910669448D+03 -.810833766837778D+02 -.370337284174488D+02 0.101088006692593D+03
 0.000000000000000D+00 0.000000000000000D+00 -.000000000000000D+00 -.000000000000000D+00
 0.329879336467640D+03 0.000000000000000D+00 0.000000000000000D+00 0.329879336467640D+03
 0.394121562149673D+03 0.000000000000000D+00 0.000000000000000D+00 -.394121562149673D+03
 0.221651083042087D+03 0.528611234126869D+02 -.193986035842011D+03 -.197248776822796D+02
 0.618616636308510D+02 -.227850630337037D+02 0.569303694222671D+02 0.816329389222873D+01
 0.205548416001858D+03 0.325630308761419D+02 0.182139561719323D+03 -.895264229025424D+02
 0.165308486731490D+03 -.872562722512713D+02 -.343395150982874D+02 0.101088006692593D+03
 0.696312492110271D+02 0.246171809961462D+02 -.107443802012925D+02 -.642422256820326D+02
0.279558503181D-05 0.000000000000D+00 0.000000000000D+00 0.392822168669D-07 0.000000000000D+00  7 -2 2 23 -13 13 23 21 0 0.12084078D-01 0.20932145D+00 0.88951947D+05 0.88951947D+05 0.88951947D+05 0.11259185D+01  1  2  2  2  7  2        2 0.249149642906D-03 0.100000000000D+01
-.153720439094D-06 0.000000000000D+00 -.107357826166D-07 0.392822168669D-07 0.000000000000D+00  7 -2 2 23 -13 13 23 21 2 0.12084078D-01 0.20932145D+00 0.88951947D+05 0.88951947D+05 0.88951947D+05 0.11259185D+01  1  2  3  2  7  2        2 -.173673300348D-04 0.100000000000D+01
0.182706291566D-06 0.000000000000D+00 0.000000000000D+00 0.392822168669D-07 0.000000000000D+00  7 -2 2 23 -13 13 23 21 2 0.12084078D-01 0.20932145D+00 0.88951947D+05 0.88951947D+05 0.88951947D+05 0.11259185D+01  1  2 15  2  7  2        2 0.206421506715D-04 0.100000000000D+01
0.204659482945D-04 0.000000000000D+00 0.000000000000D+00 0.392822168669D-07 0.000000000000D+00  7 -2 2 23 -13 13 23 21 2 0.12084078D-01 0.25318100D+00 0.97586759D+05 0.97586759D+05 0.97586759D+05 0.11225937D+01  1  2 12  2  7  2        2 0.161117396370D-02 0.100000000000D+01
-.204557818044D-04 0.000000000000D+00 0.000000000000D+00 0.392822168669D-07 0.000000000000D+00  7 -2 2 23 -13 13 23 21 2 0.12084078D-01 0.20932145D+00 0.88951947D+05 0.88951947D+05 0.88951947D+05 0.11259185D+01  1  2  4  2  7  2        2 -.231109353975D-02 0.100000000000D+01
-.245433659481D-04 0.000000000000D+00 -.184291445533D-05 0.392822168669D-07 0.000000000000D+00  7 -2 2 23 -13 13 23 21 2 0.12084078D-01 0.25318402D+00 0.88951947D+05 0.88951947D+05 0.88951947D+05 0.11259185D+01  1  2  5  2  7  2        2 -.194677534696D-02 0.100000000000D+01
0.244824385726D-04 0.000000000000D+00 0.181005949668D-05 0.392822168669D-07 0.000000000000D+00  7 -2 2 23 -13 13 23 21 2 0.12084078D-01 0.20932145D+00 0.88951947D+05 0.88951947D+05 0.88951947D+05 0.11259185D+01  1  2  6  2  7  2        2 0.276602508589D-02 0.100000000000D+01
0.563505198414D-06 0.000000000000D+00 0.000000000000D+00 0.392822168669D-07 0.000000000000D+00  7 -2 21 23 -13 13 23 -2 2 0.12084078D-01 0.25318100D+00 0.97586759D+05 0.97586759D+05 0.97586759D+05 0.11225937D+01  1  2 12  4  7  2        2 0.138265808423D-04 0.100000000000D+01
-.656337097795D-06 0.000000000000D+00 -.507448846236D-07 0.392822168669D-07 0.000000000000D+00  7 -2 21 23 -13 13 23 -2 2 0.12084078D-01 0.25318402D+00 0.88951947D+05 0.88951947D+05 0.88951947D+05 0.11259185D+01  1  2  5  4  7  2        2 -.163081489528D-04 0.100000000000D+01
  </mgrwgt>
  </event>
  <event>
  8     66 0.53686478E-06 0.29539701E+03 0.75467711E-02 0.94875370E-01
       -2 -1    0    0    0  501 0.00000000E+00 0.00000000E+00 0.19968485E+03 0.19968511E+03 0.32000000E+00 0.0000E+00 0.9000E+01
        2 -1    0    0  501    0 0.00000000E+00 0.00000000E+00 -.98139153E+03 0.98139158E+03 0.32000000E+00 0.0000E+00 0.9000E+01
       25  2    1    2    0    0 -.33161126E+03 0.15334231E+03 -.26712942E+03 0.54308324E+03 0.30016894E+03 0.0000E+00 0.0000E+00
       23  2    1    2    0    0 0.33161126E+03 -.15334231E+03 -.51457726E+03 0.63799345E+03 0.93626845E+02 0.0000E+00 0.0000E+00
       23  1    3    3    0    0 -.72522773E+02 0.13734026E+03 -.35807769E+02 0.18362829E+03 0.91188000E+02 0.0000E+00 0.9000E+01
      -11  1    4    4    0    0 0.82507120E+02 -.16869786E+02 -.18262578E+03 0.20110741E+03 0.51099893E-03 0.0000E+00 0.9000E+01
       11  1    4    4    0    0 0.24910414E+03 -.13647253E+03 -.33195149E+03 0.43688604E+03 0.51099893E-03 0.0000E+00 0.9000E+01
       23  1    3    3    0    0 -.25908849E+03 0.16002050E+02 -.23132165E+03 0.35945496E+03 0.91188000E+02 0.0000E+00 0.9000E+01
#aMCatNLO 1  0  0  1  2 0.14008655D+03 0.00000000D+00  -5  7  0 0.00000000D+00 0.00000000D+00 0.00000000D+00 0.00000000D+00 0.00000000D+00
  <mgrwgt>
 0.3301677327D-03    9    2    0
 0.442684090530657D+03 0.000000000000000D+00 0.000000000000000D+00 0.442684090530657D+03
 0.442684090530657D+03 0.000000000000000D+00 0.000000000000000D+00 -.442684090530657D+03
 0.213343920615173D+03 -.725227734238017D+02 0.137340263264808D+03 0.114361167101103D+03
 0.107032850916127D+03 0.825071202575480D+02 -.168697856580327D+02 -.660607040069388D+02
 0.289718141883076D+03 0.249104139014921D+03 -.136472527746541D+03 -.570874665078665D+02
 0.275273267646939D+03 -.259088485848668D+03 0.160020501397657D+02 0.878700341370222D+01
 0.000000000000000D+00 -.000000000000000D+00 -.000000000000000D+00 0.000000000000000D+00
 0.611537009544398D+03 0.000000000000000D+00 0.000000000000000D+00 0.611537009544398D+03
 0.478225896728696D+03 0.000000000000000D+00 0.000000000000000D+00 -.478225896728696D+03
 0.234980687552022D+03 -.654425802719361D+02 0.171870487068158D+03 0.114361167101103D+03
 0.108371746416790D+03 0.859089102265432D+02 -.279197457702704D+00 -.660607040069388D+02
 0.280086025391446D+03 0.258102805359681D+03 -.925858771776442D+02 -.570874665078665D+02
 0.272943746291201D+03 -.250430735912323D+03 0.582260455199811D+02 0.878700341370222D+01
 0.193380700621635D+03 -.281383994019642D+02 -.137231457952793D+03 0.133311112815703D+03
0.861514495574D-05 0.000000000000D+00 0.000000000000D+00 0.228871913373D-06 0.000000000000D+00  7 -2 2 23 -11 11 23 21 0 0.30720770D-01 0.15098334D+00 0.16953325D+06 0.16953325D+06 0.16953325D+06 0.11033808D+01  1  2  2  1  7  1       -2 0.268508070811D-03 0.100000000000D+01
-.475564251028D-06 0.000000000000D+00 -.330844250498D-07 0.228871913373D-06 0.000000000000D+00  7 -2 2 23 -11 11 23 21 2 0.30720770D-01 0.15098334D+00 0.16953325D+06 0.16953325D+06 0.16953325D+06 0.11033808D+01  1  2  3  1  7  1       -2 -.180449138055D-04 0.100000000000D+01
0.568200116781D-06 0.000000000000D+00 0.000000000000D+00 0.228871913373D-06 0.000000000000D+00  7 -2 2 23 -11 11 23 21 2 0.30720770D-01 0.15098334D+00 0.16953325D+06 0.16953325D+06 0.16953325D+06 0.11033808D+01  1  2 15  1  7  1       -2 0.215599093276D-04 0.100000000000D+01
0.875645340668D-05 0.000000000000D+00 0.000000000000D+00 0.228871913373D-06 0.000000000000D+00  7 -2 2 23 -11 11 23 21 2 0.43310487D-01 0.15098334D+00 0.23925733D+06 0.23925733D+06 0.23925733D+06 0.10918970D+01  1  2 12  1  7  1       -2 0.171583545989D-03 0.100000000000D+01
-.975141243810D-05 0.000000000000D+00 0.000000000000D+00 0.228871913373D-06 0.000000000000D+00  7 -2 2 23 -11 11 23 21 2 0.30720770D-01 0.15098334D+00 0.16953325D+06 0.16953325D+06 0.16953325D+06 0.11033808D+01  1  2  4  1  7  1       -2 -.370009723286D-03 0.100000000000D+01
-.129700121984D-04 0.000000000000D+00 -.360378986388D-05 0.228871913373D-06 0.000000000000D+00  7 -2 2 23 -11 11 23 21 2 0.45280012D-01 0.15098334D+00 0.16953325D+06 0.16953325D+06 0.16953325D+06 0.11033808D+01  1  2  5  1  7  1       -2 -.240581479050D-03 0.100000000000D+01
0.135878725842D-04 0.000000000000D+00 0.334864981450D-05 0.228871913373D-06 0.000000000000D+00  7 -2 2 23 -11 11 23 21 2 0.30720770D-01 0.15098334D+00 0.16953325D+06 0.16953325D+06 0.16953325D+06 0.11033808D+01  1  2  6  1  7  1       -2 0.515581204962D-03 0.100000000000D+01
0.373153167404D-06 0.000000000000D+00 0.000000000000D+00 0.228871913373D-06 0.000000000000D+00  7 21 2 23 -11 11 23 2 2 0.43310487D-01 0.15098334D+00 0.23925733D+06 0.23925733D+06 0.23925733D+06 0.10918970D+01  1  2 12  3  7  1       -2 0.789013548606D-04 0.100000000000D+01
-.485725132378D-06 0.000000000000D+00 -.167735007419D-06 0.228871913373D-06 0.000000000000D+00  7 21 2 23 -11 11 23 2 2 0.45280012D-01 0.15098334D+00 0.16953325D+06 0.16953325D+06 0.16953325D+06 0.11033808D+01  1  2  5  3  7  1       -2 -.973302370933D-04 0.100000000000D+01
  </mgrwgt>
  </event>
  <event>
  8     66 0.53686478E-06 0.27735362E+03 0.75467711E-02 0.95033796E-01
       -2 -1    0    0    0  501 0.00000000E+00 0.00000000E+00 0.12677824E+03 0.12677864E+03 0.32000000E+00 0.0000E+00 0.9000E+01
        2 -1    0    0  501    0 0.00000000E+00 0.00000000E+00 -.14638732E+04 0.14638733E+04 0.32000000E+00 0.0000E+00 0.9000E+01
       25  2    1    2    0    0 -.34322864E+03 -.49648700E+02 -.50590989E+03 0.68307683E+03 0.30062975E+03 0.0000E+00 0.0000E+00
       23  2    1    2    0    0 0.34322864E+03 0.49648700E+02 -.83118509E+03 0.90757506E+03 0.11203992E+03 0.0000E+00 0.0000E+00
       23  1    3    3    0    0 -.71060124E+01 0.87413720E+01 -.18205304E+03 0.20392515E+03 0.91188000E+02 0.0000E+00 0.9000E+01
      -13  1    4    4    0    0 0.64472647E+02 0.25842207E+02 -.29176758E+03 0.29992145E+03 0.10565837E+00 0.0000E+00 0.9000E+01
       13  1    4    4    0    0 0.27875599E+03 0.23806493E+02 -.53941751E+03 0.60765361E+03 0.10565837E+00 0.0000E+00 0.9000E+01
       23  1    3    3    0    0 -.33612263E+03 -.58390072E+02 -.32385685E+03 0.47915168E+03 0.91188000E+02 0.0000E+00 0.9000E+01
#aMCatNLO 1  0  0  1  2 0.15851781D+03 0.00000000D+00  -5  7  0 0.00000000D+00 0.00000000D+00 0.00000000D+00 0.00000000D+00 0.00000000D+00
  <mgrwgt>
 0.4217029468D-03    9    2    0
 0.430798809538536D+03 0.000000000000000D+00 0.000000000000000D+00 0.430798809538536D+03
 0.430798809538536D+03 0.000000000000000D+00 0.000000000000000D+00 -.430798809538536D+03
 0.939553699428479D+02 -.710601605215922D+01 0.874137147239266D+01 -.196329610030047D+02
 0.100916596012145D+03 0.644724863651221D+02 0.258421964958685D+02 -.732095535626770D+02
 0.284718828697869D+03 0.278756172648904D+03 0.238065056842814D+02 -.528493889494063D+02
 0.382006824424210D+03 -.336122642961867D+03 -.583900736525426D+02 0.145691903515088D+03
 0.000000000000000D+00 0.000000000000000D+00 0.000000000000000D+00 0.000000000000000D+00
 0.605716513472682D+03 0.000000000000000D+00 0.000000000000000D+00 0.605716513472682D+03
 0.475491640509451D+03 0.000000000000000D+00 0.000000000000000D+00 -.475491640509451D+03
 0.964601435324122D+02 -.240640377037585D+02 0.497763778715886D+01 -.196329610030047D+02
 0.900002411159887D+02 0.474698178399319D+02 0.220685536982673D+02 -.732095535626770D+02
 0.238480865306537D+03 0.232161062948508D+03 0.134649937113914D+02 -.528493889494063D+02
 0.451117169009662D+03 -.410318985797946D+03 -.748575178267851D+02 0.145691903515088D+03
 0.205149735017534D+03 0.154752142713264D+03 0.343463326299675D+02 0.130224872963231D+03
0.997946575428D-05 0.000000000000D+00 0.000000000000D+00 0.254738451551D-08 0.000000000000D+00  7 -2 2 23 -13 13 23 21 0 0.19504378D-01 0.22521130D+00 0.15770593D+06 0.15770593D+06 0.15770593D+06 0.11058391D+01  1  2  2  1  7  1       -2 0.358176839792D-03 0.100000000000D+01
-.549948562320D-06 0.000000000000D+00 -.383237761501D-07 0.254738451551D-08 0.000000000000D+00  7 -2 2 23 -13 13 23 21 2 0.19504378D-01 0.22521130D+00 0.15770593D+06 0.15770593D+06 0.15770593D+06 0.11058391D+01  1  2  3  1  7  1       -2 -.241377138107D-04 0.100000000000D+01
0.646320451353D-06 0.000000000000D+00 0.000000000000D+00 0.254738451551D-08 0.000000000000D+00  7 -2 2 23 -13 13 23 21 2 0.19504378D-01 0.22521130D+00 0.15770593D+06 0.15770593D+06 0.15770593D+06 0.11058391D+01  1  2 15  1  7  1       -2 0.283675586294D-04 0.100000000000D+01
0.736468835427D-05 0.000000000000D+00 0.000000000000D+00 0.254738451551D-08 0.000000000000D+00  7 -2 2 23 -13 13 23 21 2 0.28114964D-01 0.22521130D+00 0.23271082D+06 0.23271082D+06 0.23271082D+06 0.10928083D+01  1  2 12  1  7  1       -2 0.167588263440D-03 0.100000000000D+01
-.896954487300D-05 0.000000000000D+00 0.000000000000D+00 0.254738451551D-08 0.000000000000D+00  7 -2 2 23 -13 13 23 21 2 0.19504378D-01 0.22521130D+00 0.15770593D+06 0.15770593D+06 0.15770593D+06 0.11058391D+01  1  2  4  1  7  1       -2 -.393681013082D-03 0.100000000000D+01
-.115405912641D-04 0.000000000000D+00 -.390927222113D-05 0.254738451551D-08 0.000000000000D+00  7 -2 2 23 -13 13 23 21 2 0.30194917D-01 0.22521130D+00 0.15770593D+06 0.15770593D+06 0.15770593D+06 0.11058391D+01  1  2  5  1  7  1       -2 -.240039821385D-03 0.100000000000D+01
0.123924151914D-04 0.000000000000D+00 0.356350730245D-05 0.254738451551D-08 0.000000000000D+00  7 -2 2 23 -13 13 23 21 2 0.19504378D-01 0.22521130D+00 0.15770593D+06 0.15770593D+06 0.15770593D+06 0.11058391D+01  1  2  6  1  7  1       -2 0.543913725408D-03 0.100000000000D+01
0.328371494991D-06 0.000000000000D+00 0.000000000000D+00 0.254738451551D-08 0.000000000000D+00  7 21 2 23 -13 13 23 2 2 0.28114964D-01 0.22521130D+00 0.23271082D+06 0.23271082D+06 0.23271082D+06 0.10928083D+01  1  2 12  3  7  1       -2 0.878729347542D-04 0.100000000000D+01
-.436690282954D-06 0.000000000000D+00 -.198713795553D-06 0.254738451551D-08 0.000000000000D+00  7 21 2 23 -13 13 23 2 2 0.30194917D-01 0.22521130D+00 0.15770593D+06 0.15770593D+06 0.15770593D+06 0.11058391D+01  1  2  5  3  7  1       -2 -.106357826959D-03 0.100000000000D+01
  </mgrwgt>
  </event>
  <event>
  8     66 0.53686478E-06 0.23191037E+03 0.75467711E-02 0.88373622E-01
       -2 -1    0    0    0  501 0.00000000E+00 0.00000000E+00 0.11635051E+03 0.11635095E+03 0.32000000E+00 0.0000E+00 0.9000E+01
        2 -1    0    0  501    0 0.00000000E+00 0.00000000E+00 -.19187885E+04 0.19187885E+04 0.32000000E+00 0.0000E+00 0.9000E+01
       25  2    1    2    0    0 -.72905122E+02 0.94971630E+02 -.18499056E+04 0.18779176E+04 0.30014868E+03 0.0000E+00 0.0000E+00
       23  2    1    2    0    0 0.72905122E+02 -.94971630E+02 0.47467626E+02 0.15722180E+03 0.90170687E+02 0.0000E+00 0.0000E+00
       23  1    3    3    0    0 0.81834501E+02 0.54774297E+02 -.62375707E+03 0.63803232E+03 0.91188000E+02 0.0000E+00 0.9000E+01
      -11  1    4    4    0    0 -.18086653E+02 -.83238940E+01 -.58170707E+01 0.20742530E+02 0.51099893E-03 0.0000E+00 0.9000E+01
       11  1    4    4    0    0 0.90991775E+02 -.86647736E+02 0.53284697E+02 0.13647927E+03 0.51099893E-03 0.0000E+00 0.9000E+01
       23  1    3    3    0    0 -.15473962E+03 0.40197333E+02 -.12261485E+04 0.12398853E+04 0.91188000E+02 0.0000E+00 0.9000E+01
#aMCatNLO 1  0  0  2  2 0.85938355D+03 0.00000000D+00  -5  7  0 0.00000000D+00 0.00000000D+00 0.00000000D+00 0.00000000D+00 0.00000000D+00
  <mgrwgt>
 0.5217998608D-03    3    2    0
 0.472496023323340D+03 0.000000000000000D+00 0.000000000000000D+00 0.472496023323340D+03
 0.472496023323340D+03 0.000000000000000D+00 0.000000000000000D+00 -.472496023323340D+03
 0.184341577979283D+03 0.818345008923102D+02 0.547742967962812D+02 -.126370316538622D+03
 0.335759776653607D+02 -.180866532524832D+02 -.832389403277283D+01 0.270357548154366D+02
 0.395555407555099D+03 0.909917752642093D+02 -.866477357772947D+02 0.375068989873884D+03
 0.331519083446938D+03 -.154739622904036D+03 0.401973330137864D+02 -.275734428150699D+03
 0.000000000000000D+00 0.000000000000000D+00 -.000000000000000D+00 0.000000000000000D+00
 0.174792649546026D+04 0.000000000000000D+00 0.000000000000000D+00 0.174792649546026D+04
 0.805108676931720D+03 0.000000000000000D+00 0.000000000000000D+00 -.805108676931720D+03
 0.280326886212887D+03 0.400831852487276D+02 0.229546930164744D+03 -.126370316538622D+03
 0.418428895172382D+02 -.248631771009359D+02 0.200428987214647D+02 0.270357548154366D+02
 0.438793691394008D+03 0.160239750548189D+02 0.227170395662830D+03 0.375068989873884D+03
 0.516357971939798D+03 -.230922934865923D+03 0.359103643990279D+03 -.275734428150699D+03
 0.127571373332805D+04 0.199678951663313D+03 -.835863868539317D+03 0.942817818528542D+03
0.204497627530D-04 0.000000000000D+00 0.000000000000D+00 0.125577132501D-05 0.000000000000D+00  7 -2 2 23 -11 11 23 21 0 0.17900114D-01 0.29519826D+00 0.53782417D+05 0.53782417D+05 0.53782417D+05 0.11445201D+01  1  2  2  2  7  2        2 0.496868947376D-03 0.100000000000D+01
-.436473723562D-06 0.000000000000D+00 -.785324735178D-07 0.125577132501D-05 0.000000000000D+00  7 -2 2 23 -11 11 23 21 2 0.17900114D-01 0.29519826D+00 0.53782417D+05 0.53782417D+05 0.53782417D+05 0.11445201D+01  1  2  3  2  7  2        2 -.138917993665D-04 0.100000000000D+01
0.121979115714D-05 0.000000000000D+00 0.000000000000D+00 0.125577132501D-05 0.000000000000D+00  7 -2 2 23 -11 11 23 21 2 0.17900114D-01 0.29519826D+00 0.53782417D+05 0.53782417D+05 0.53782417D+05 0.11445201D+01  1  2 15  2  7  2        2 0.388227128216D-04 0.100000000000D+01
  </mgrwgt>
  </event>
  <event>
  8     66 0.53686478E-06 0.36107035E+03 0.75467711E-02 0.88791992E-01
       -2 -1    0    0    0  501 0.00000000E+00 0.00000000E+00 0.13741941E+04 0.13741941E+04 0.32000000E+00 0.0000E+00 0.9000E+01
        2 -1    0    0  501    0 0.00000000E+00 0.00000000E+00 -.32250093E+03 0.32250109E+03 0.32000000E+00 0.0000E+00 0.9000E+01
       25  2    1    2    0    0 -.62202874E+03 -.70652474E+02 0.62637028E+03 0.93469654E+03 0.29900899E+03 0.0000E+00 0.0000E+00
       23  2    1    2    0    0 0.62202874E+03 0.70652474E+02 0.42532286E+03 0.76199865E+03 0.88492238E+02 0.0000E+00 0.0000E+00
       23  1    3    3    0    0 -.15265132E+03 -.27600510E+02 0.54480970E+02 0.18800969E+03 0.91188000E+02 0.0000E+00 0.9000E+01
      -11  1    4    4    0    0 0.51291509E+03 0.72478526E+02 0.38595957E+03 0.64598747E+03 0.51099893E-03 0.0000E+00 0.9000E+01
       11  1    4    4    0    0 0.10911366E+03 -.18260523E+01 0.39363285E+02 0.11601118E+03 0.51099893E-03 0.0000E+00 0.9000E+01
       23  1    3    3    0    0 -.46937742E+03 -.43051964E+02 0.57188931E+03 0.74668686E+03 0.91188000E+02 0.0000E+00 0.9000E+01
#aMCatNLO 1  0  0  2  1 0.39526850D+03 0.00000000D+00  -5  7  0 0.00000000D+00 0.00000000D+00 0.00000000D+00 0.00000000D+00 0.00000000D+00
  <mgrwgt>
 0.4253152132D-03    8    2    0
 0.665716929724291D+03 0.000000000000000D+00 0.000000000000000D+00 0.665716929724291D+03
 0.665716929724291D+03 0.000000000000000D+00 0.000000000000000D+00 -.665716929724291D+03
 0.196553412764718D+03 -.152651323774442D+03 -.276005104344782D+02 -.790808314266125D+02
 0.518338029987192D+03 0.512915085525942D+03 0.724785263502321D+02 -.184198694082593D+02
 0.116744444758088D+03 0.109113656868271D+03 -.182605229871879D+01 -.414745801631528D+02
 0.499797971938584D+03 -.469377418619771D+03 -.430519636170352D+02 0.138975280998025D+03
 0.000000000000000D+00 -.000000000000000D+00 -.000000000000000D+00 -.000000000000000D+00
 0.772919285588147D+03 0.000000000000000D+00 0.000000000000000D+00 0.772919285588147D+03
 0.119209659891326D+04 0.000000000000000D+00 0.000000000000000D+00 -.119209659891326D+04
 0.159556853815680D+03 -.103825624207260D+03 -.104690073267180D+02 -.790808314266125D+02
 0.691504864190892D+03 0.678794677377848D+03 0.130680800327172D+03 -.184198694082593D+02
 0.152167077918118D+03 0.145983678455749D+03 0.111105547547031D+02 -.414745801631528D+02
 0.385638839058193D+03 -.347976617304506D+03 -.455990114283317D+00 0.138975280998025D+03
 0.576148249518528D+03 -.372976114321831D+03 -.130866357640874D+03 -.419177313325117D+03
0.189671921625D-03 0.000000000000D+00 0.000000000000D+00 0.118291758789D-06 0.000000000000D+00  7 -2 2 23 -11 11 23 21 0 0.21141449D+00 0.49615543D-01 0.41420159D+06 0.41420159D+06 0.41420159D+06 0.10743370D+01  1  2  2  2  7  2        2 0.242735066730D-03 0.100000000000D+01
-.105226830896D-04 0.000000000000D+00 -.728390120802D-06 0.118291758789D-06 0.000000000000D+00  7 -2 2 23 -11 11 23 21 2 0.21141449D+00 0.49615543D-01 0.41420159D+06 0.41420159D+06 0.41420159D+06 0.10743370D+01  1  2  3  2  7  2        2 -.155430796526D-04 0.100000000000D+01
0.118659371350D-04 0.000000000000D+00 0.000000000000D+00 0.118291758789D-06 0.000000000000D+00  7 -2 2 23 -11 11 23 21 2 0.21141449D+00 0.49615543D-01 0.41420159D+06 0.41420159D+06 0.41420159D+06 0.10743370D+01  1  2 15  2  7  2        2 0.175272033256D-04 0.100000000000D+01
0.577739217290D-04 0.000000000000D+00 0.000000000000D+00 0.118291758789D-06 0.000000000000D+00  7 -2 2 23 -11 11 23 21 2 0.21141449D+00 0.90121970D-01 0.74929894D+06 0.74929894D+06 0.74929894D+06 0.10563111D+01  1  2 12  2  7  2        2 0.407499492541D-04 0.100000000000D+01
-.146882173121D-03 0.000000000000D+00 -.639877285591D-04 0.118291758789D-06 0.000000000000D+00  7 -2 2 23 -11 11 23 21 2 0.21141449D+00 0.99017843D-01 0.41420159D+06 0.41420159D+06 0.41420159D+06 0.10743370D+01  1  2  5  2  7  2        2 -.988716234059D-04 0.100000000000D+01
0.163273518596D-03 0.000000000000D+00 0.512562235170D-04 0.118291758789D-06 0.000000000000D+00  7 -2 2 23 -11 11 23 21 2 0.21141449D+00 0.49615543D-01 0.41420159D+06 0.41420159D+06 0.41420159D+06 0.10743370D+01  1  2  6  2  7  2        2 0.241171693863D-03 0.100000000000D+01
0.377455470411D-05 0.000000000000D+00 0.000000000000D+00 0.118291758789D-06 0.000000000000D+00  7 -2 21 23 -11 11 23 -2 2 0.21141449D+00 0.90121970D-01 0.74929894D+06 0.74929894D+06 0.74929894D+06 0.10563111D+01  1  2 12  4  7  2        2 0.392148161779D-05 0.100000000000D+01
-.715041230591D-05 0.000000000000D+00 -.478464061034D-05 0.118291758789D-06 0.000000000000D+00  7 -2 21 23 -11 11 23 -2 2 0.21141449D+00 0.99017843D-01 0.41420159D+06 0.41420159D+06 0.41420159D+06 0.10743370D+01  1  2  5  4  7  2        2 -.637547852643D-05 0.100000000000D+01
  </mgrwgt>
  </event>
  <event>
  8     66 0.53686478E-06 0.29301234E+03 0.75467711E-02 0.99723597E-01
       -2 -1    0    0    0  501 0.00000000E+00 0.00000000E+00 0.48407319E+02 0.48408377E+02 0.32000000E+00 0.0000E+00 0.9000E+01
        2 -1    0    0  501    0 0.00000000E+00 0.00000000E+00 -.22846684E+04 0.22846684E+04 0.32000000E+00 0.0000E+00 0.9000E+01
       25  2    1    2    0    0 0.20143845E+02 -.25562935E+03 -.14011325E+04 0.14556691E+04 0.30008018E+03 0.0000E+00 0.0000E+00
       23  2    1    2    0    0 -.20143845E+02 0.25562935E+03 -.83512857E+03 0.87740768E+03 0.81562121E+02 0.0000E+00 0.0000E+00
       23  1    3    3    0    0 0.12840039E+03 -.11642888E+03 -.72608050E+03 0.75203091E+03 0.91188000E+02 0.0000E+00 0.9000E+01
      -11  1    4    4    0    0 -.18584377E+02 0.92243659E+02 -.19158686E+03 0.21344741E+03 0.51099893E-03 0.0000E+00 0.9000E+01
       11  1    4    4    0    0 -.15594676E+01 0.16338569E+03 -.64354171E+03 0.66396028E+03 0.51099893E-03 0.0000E+00 0.9000E+01
       23  1    3    3    0    0 -.10825655E+03 -.13920047E+03 -.67505200E+03 0.70363819E+03 0.91188000E+02 0.0000E+00 0.9000E+01
#aMCatNLO 1  0  0  2  2 0.11390384D+01 0.00000000D+00  -5  7  0 0.00000000D+00 0.00000000D+00 0.00000000D+00 0.00000000D+00 0.00000000D+00
  <mgrwgt>
 0.3933352917D-02   10    2    0
 0.332559666817508D+03 0.000000000000000D+00 0.000000000000000D+00 0.332559666817508D+03
 0.332559666817508D+03 0.000000000000000D+00 0.000000000000000D+00 -.332559666817508D+03
 0.196717036954534D+03 0.128400394472874D+03 -.116428881441202D+03 -.184389682393673D+02
 0.104569145444999D+03 -.185843769355344D+02 0.922436588376320D+02 0.456117804658171D+02
 0.165298212759892D+03 -.155946757762400D+01 0.163385692802936D+03 -.250236406182967D+02
 0.198534938475590D+03 -.108256549959715D+03 -.139200470199366D+03 -.214917160815307D+01
 0.000000000000000D+00 -.000000000000000D+00 -.000000000000000D+00 -.000000000000000D+00
 0.333128626546126D+03 0.000000000000000D+00 0.000000000000000D+00 0.333128626546126D+03
 0.333130722774049D+03 0.000000000000000D+00 0.000000000000000D+00 -.333130722774049D+03
 0.196518322792423D+03 0.128400984486030D+03 -.116092168049498D+03 -.184389682393673D+02
 0.104727213030904D+03 -.185840629057760D+02 0.924228718330734D+02 0.456117804658171D+02
 0.165578253340611D+03 -.155897112819950D+01 0.163669010501546D+03 -.250236406182967D+02
 0.198296519790500D+03 -.108255954550947D+03 -.138860677596957D+03 -.214917160815307D+01
 0.113904036573692D+01 -.199590110714122D-02 -.113903668816477D+01 -.209622792232454D-02
0.137185165103D-04 0.000000000000D+00 0.000000000000D+00 0.963287324343D-08 0.000000000000D+00  7 -2 2 23 -11 11 23 21 0 0.74473630D-02 0.35148753D+00 0.10623184D+06 0.10623184D+06 0.10623184D+06 0.11195739D+01  1  2  2  2  7  2        2 0.814624017462D-03 0.100000000000D+01
-.761764322735D-06 0.000000000000D+00 -.526827155681D-07 0.963287324343D-08 0.000000000000D+00  7 -2 2 23 -11 11 23 21 2 0.74473630D-02 0.35148753D+00 0.10623184D+06 0.10623184D+06 0.10623184D+06 0.11195739D+01  1  2  3  2  7  2        2 -.566991058624D-04 0.100000000000D+01
0.870944982338D-06 0.000000000000D+00 0.000000000000D+00 0.963287324343D-08 0.000000000000D+00  7 -2 2 23 -11 11 23 21 2 0.74473630D-02 0.35148753D+00 0.10623184D+06 0.10623184D+06 0.10623184D+06 0.11195739D+01  1  2 15  2  7  2        2 0.648255638655D-04 0.100000000000D+01
-.500033324058D-03 0.000000000000D+00 0.000000000000D+00 0.963287324343D-08 0.000000000000D+00  7 -2 2 23 -11 11 23 21 2 0.74473630D-02 0.35148753D+00 0.10623184D+06 0.10623184D+06 0.10623184D+06 0.11195739D+01  1  2  4  2  7  2        2 -.372181284018D-01 0.100000000000D+01
-.609586820572D-02 0.000000000000D+00 -.498672529034D-03 0.963287324343D-08 0.000000000000D+00  7 -2 2 23 -11 11 23 21 2 0.74473630D-02 0.35237939D+00 0.10623184D+06 0.10623184D+06 0.10623184D+06 0.11195739D+01  1  2  5  2  7  2        2 -.450383640084D+00 0.100000000000D+01
0.609711396079D-02 0.000000000000D+00 0.498670927768D-03 0.963287324343D-08 0.000000000000D+00  7 -2 2 23 -11 11 23 21 2 0.74473630D-02 0.35148753D+00 0.10623184D+06 0.10623184D+06 0.10623184D+06 0.11195739D+01  1  2  6  2  7  2        2 0.453816094559D+00 0.100000000000D+01
0.500034856381D-03 0.000000000000D+00 0.000000000000D+00 0.963287324343D-08 0.496234488073D-07  7 -2 2 23 -11 11 23 21 2 0.74601043D-02 0.35209109D+00 0.10661024D+06 0.10661024D+06 0.10661024D+06 0.11194479D+01  1  2 11  2  7  2        2 0.369255548411D-01 0.100000000000D+01
0.862698554814D-11 0.000000000000D+00 0.000000000000D+00 0.963287324343D-08 0.000000000000D+00  7 -2 21 23 -11 11 23 -2 2 0.74473630D-02 0.35239124D+00 0.10661024D+06 0.10661024D+06 0.10661024D+06 0.11194479D+01  1  2 12  4  7  2        2 0.984618450666D-10 0.100000000000D+01
-.288434243266D-05 0.000000000000D+00 -.236051580121D-06 0.963287324343D-08 0.000000000000D+00  7 -2 21 23 -11 11 23 -2 2 0.74473630D-02 0.35237939D+00 0.10623184D+06 0.10623184D+06 0.10623184D+06 0.11195739D+01  1  2  5  4  7  2        2 -.329424492953D-04 0.100000000000D+01
0.320397742877D-06 0.000000000000D+00 0.000000000000D+00 0.963287324343D-08 0.159419446857D-10  7 -2 21 23 -11 11 23 -2 2 0.74601043D-02 0.35209109D+00 0.10661024D+06 0.10661024D+06 0.10661024D+06 0.11194479D+01  1  2 11  4  7  2        2 0.366387803208D-05 0.100000000000D+01
  </mgrwgt>
  </event>
  <event>
  8     66 0.53686478E-06 0.58303554E+03 0.75467711E-02 0.79749694E-01
       -2 -1    0    0    0  501 0.00000000E+00 0.00000000E+00 0.25761881E+03 0.25761901E+03 0.32000000E+00 0.0000E+00 0.9000E+01
        2 -1    0    0  501    0 0.00000000E+00 0.00000000E+00 -.22684465E+04 0.22684465E+04 0.32000000E+00 0.0000E+00 0.9000E+01
       25  2    1    2    0    0 0.52299765E+03 0.14589226E+03 -.23035526E+03 0.66200587E+03 0.30062790E+03 0.0000E+00 0.0000E+00
       23  2    1    2    0    0 -.52299765E+03 -.14589226E+03 -.17804724E+04 0.18640596E+04 0.99122468E+02 0.0000E+00 0.0000E+00
       23  1    3    3    0    0 0.15002056E+03 -.51567427E+02 -.27742293E+02 0.18506824E+03 0.91188000E+02 0.0000E+00 0.9000E+01
      -13  1    4    4    0    0 -.92448768E+02 -.65607345E+02 -.33193925E+03 0.35076313E+03 0.10565837E+00 0.0000E+00 0.9000E+01
       13  1    4    4    0    0 -.43054888E+03 -.80284916E+02 -.14485332E+04 0.15132965E+04 0.10565837E+00 0.0000E+00 0.9000E+01
       23  1    3    3    0    0 0.37297709E+03 0.19745969E+03 -.20261297E+03 0.47693763E+03 0.91188000E+02 0.0000E+00 0.9000E+01
#aMCatNLO 1  0  0  2  2 0.22397966D+04 0.00000000D+00  -5  7  0 0.00000000D+00 0.00000000D+00 0.00000000D+00 0.00000000D+00 0.00000000D+00
  <mgrwgt>
 0.3586486817D-03    3    2    0
 0.764457170742456D+03 0.000000000000000D+00 0.000000000000000D+00 0.764457170742456D+03
 0.764457170742456D+03 0.000000000000000D+00 0.000000000000000D+00 -.764457170742456D+03
 0.269282277538081D+03 0.150020562616896D+03 -.515674267873192D+02 0.197566001474800D+03
 0.142962382923132D+03 -.924483839342234D+02 -.656073271001742D+02 -.871046374757469D+02
 0.595151954186778D+03 -.430549264272840D+03 -.802849339246081D+02 -.402973335335204D+03
 0.521517726836921D+03 0.372977085590168D+03 0.197459687812101D+03 0.292511971336151D+03
 0.000000000000000D+00 -.000000000000000D+00 0.000000000000000D+00 0.000000000000000D+00
 0.626131550102587D+04 0.000000000000000D+00 0.000000000000000D+00 0.626131550102587D+04
 0.161161054411024D+04 0.000000000000000D+00 0.000000000000000D+00 -.161161054411024D+04
 0.622211574626247D+03 0.307205974742212D+03 -.495403024212429D+03 0.197566001474800D+03
 0.298962020648365D+03 -.145296531039675D+02 -.285622059899180D+03 -.871046374757469D+02
 0.955941186581219D+03 -.157065365326751D+03 -.852506020052588D+03 -.402973335335204D+03
 0.834760519944787D+03 0.612111830781532D+03 -.477771626990147D+03 0.292511971336151D+03
 0.516105074333549D+04 -.747722787093025D+03 0.211130273115434D+04 0.464970495691563D+04
0.975486116825D-04 0.000000000000D+00 0.000000000000D+00 0.512902993501D-07 0.000000000000D+00  7 -2 2 23 -13 13 23 21 0 0.39633681D-01 0.34899178D+00 0.33993044D+06 0.33993044D+06 0.33993044D+06 0.10805595D+01  1  2  2  2  7  2        2 0.355101827120D-03 0.100000000000D+01
-.493574610600D-05 0.000000000000D+00 -.374612354000D-06 0.512902993501D-07 0.000000000000D+00  7 -2 2 23 -13 13 23 21 2 0.39633681D-01 0.34899178D+00 0.33993044D+06 0.33993044D+06 0.33993044D+06 0.10805595D+01  1  2  3  2  7  2        2 -.209788659244D-04 0.100000000000D+01
0.577022274507D-05 0.000000000000D+00 0.000000000000D+00 0.512902993501D-07 0.000000000000D+00  7 -2 2 23 -13 13 23 21 2 0.39633681D-01 0.34899178D+00 0.33993044D+06 0.33993044D+06 0.33993044D+06 0.10805595D+01  1  2 15  2  7  2        2 0.245257204732D-04 0.100000000000D+01
  </mgrwgt>
  </event>
  <event>
  9     66 0.53686478E-06 0.35494815E+03 0.75467711E-02 0.96274568E-01
       21 -1    0    0  502  501 0.00000000E+00 0.00000000E+00 0.47281169E+03 0.47281228E+03 0.75000000E+00 0.0000E+00 0.9000E+01
        2 -1    0    0  501    0 0.00000000E+00 0.00000000E+00 -.11079460E+04 0.11079461E+04 0.32000000E+00 0.0000E+00 0.9000E+01
       25  2    1    2    0    0 -.20698062E+03 0.14138827E+03 -.90350849E+03 0.98457980E+03 0.30039669E+03 0.0000E+00 0.0000E+00
       23  2    1    2    0    0 0.33447592E+03 -.19175949E+03 0.19065381E+03 0.43859404E+03 0.85848778E+02 0.0000E+00 0.0000E+00
       23  1    3    3    0    0 -.62330562E+01 0.55322553E+02 -.54234474E+03 0.55276803E+03 0.91188000E+02 0.0000E+00 0.9000E+01
      -13  1    4    4    0    0 0.24937808E+03 -.15450202E+03 0.18214804E+03 0.34530888E+03 0.10565837E+00 0.0000E+00 0.9000E+01
       13  1    4    4    0    0 0.85097848E+02 -.37257471E+02 0.85057646E+01 0.93285165E+02 0.10565837E+00 0.0000E+00 0.9000E+01
       23  1    3    3    0    0 -.20074756E+03 0.86065721E+02 -.36116375E+03 0.43181176E+03 0.91188000E+02 0.0000E+00 0.9000E+01
        2  1    1    2  502    0 -.12749531E+03 0.50371222E+02 0.77720365E+02 0.15758449E+03 0.32000000E+00 0.0000E+00 0.9000E+01
#aMCatNLO 2  0  0  1  2 0.13708506D+03 0.00000000D+00  -5  7  0 0.00000000D+00 0.00000000D+00 0.00000000D+00 0.00000000D+00 0.00000000D+00
  <mgrwgt>
 0.4007598148D-04    2    2    0
 0.612059980457193D+03 0.000000000000000D+00 0.000000000000000D+00 0.612059980457193D+03
 0.612059980457193D+03 0.000000000000000D+00 0.000000000000000D+00 -.612059980457193D+03
 0.329749850692832D+03 -.402130785016684D+02 0.687474800260822D+02 -.306718771834113D+03
 0.475201262239871D+03 0.198524318969927D+03 -.134410650709434D+03 0.410290276984186D+03
 0.103010664550704D+03 0.738990587109020D+02 -.328329415329223D+02 0.638131967786910D+02
 0.316158183430980D+03 -.232210299179160D+03 0.984961122162738D+02 -.167384701928764D+03
 0.000000000000000D+00 -.000000000000000D+00 0.000000000000000D+00 0.000000000000000D+00
 0.819908109320018D+03 0.000000000000000D+00 0.000000000000000D+00 0.819908109320018D+03
 0.638913239771028D+03 0.000000000000000D+00 0.000000000000000D+00 -.638913239771028D+03
 0.324793922626828D+03 -.623305621766955D+01 0.553225527798799D+02 -.306718771834113D+03
 0.504379411395904D+03 0.249378325189099D+03 -.154502201208263D+03 0.410290276984186D+03
 0.112702401818458D+03 0.850975989781151D+02 -.372572937918612D+02 0.638131967786910D+02
 0.289896155456209D+03 -.200747560123138D+03 0.860657206390367D+02 -.167384701928764D+03
 0.227049457793647D+03 -.127495307826407D+03 0.503712215812072D+02 0.180994869548989D+03
-.213292607859D-05 0.000000000000D+00 0.000000000000D+00 0.137370027099D-06 0.000000000000D+00  7 21 2 23 -13 13 23 2 2 0.73631799D-01 0.16328917D+00 0.18786653D+06 0.18786653D+06 0.18786653D+06 0.10999190D+01  1  2 13  3  7  1       -2 -.127550727581D-03 0.100000000000D+01
0.290335327430D-05 0.000000000000D+00 0.000000000000D+00 0.137370027099D-06 0.197122336781D-11  7 21 2 23 -13 13 23 2 2 0.72740296D-01 0.17045325D+00 0.18786653D+06 0.18786653D+06 0.18786653D+06 0.10999190D+01  1  2  1  3  7  1       -2 0.167626709061D-03 0.100000000000D+01
  </mgrwgt>
  </event>
  <event>
  8     66 0.53686478E-06 0.29207001E+03 0.75467711E-02 0.90257596E-01
       -2 -1    0    0    0  501 0.00000000E+00 0.00000000E+00 0.18193568E+03 0.18193596E+03 0.32000000E+00 0.0000E+00 0.9000E+01
        2 -1    0    0  501    0 0.00000000E+00 0.00000000E+00 -.26249137E+04 0.26249138E+04 0.32000000E+00 0.0000E+00 0.9000E+01
       25  2    1    2    0    0 -.26677423E+03 0.58432464E+03 -.15356977E+04 0.16914816E+04 0.30023096E+03 0.0000E+00 0.0000E+00
       23  2    1    2    0    0 0.26677423E+03 -.58432464E+03 -.90728036E+03 0.11153682E+04 0.91020445E+02 0.0000E+00 0.0000E+00
       23  1    3    3    0    0 -.77666211E+02 0.42402512E+03 -.10476600E+04 0.11365456E+04 0.91188000E+02 0.0000E+00 0.9000E+01
      -11  1    4    4    0    0 0.28637925E+02 -.13361717E+03 -.15485016E+03 0.20652422E+03 0.51099893E-03 0.0000E+00 0.9000E+01
       11  1    4    4    0    0 0.23813631E+03 -.45070746E+03 -.75243021E+03 0.90884395E+03 0.51099893E-03 0.0000E+00 0.9000E+01
       23  1    3    3    0    0 -.18910802E+03 0.16029951E+03 -.48803775E+03 0.55493591E+03 0.91188000E+02 0.0000E+00 0.9000E+01
#aMCatNLO 1  0  0  1  2 0.13987874D+03 0.00000000D+00  -5  7  0 0.00000000D+00 0.00000000D+00 0.00000000D+00 0.00000000D+00 0.00000000D+00
  <mgrwgt>
 0.2336899699D-03    9    2    0
 0.691061414270033D+03 0.000000000000000D+00 0.000000000000000D+00 0.691061414270033D+03
 0.691061414270033D+03 0.000000000000000D+00 0.000000000000000D+00 -.691061414270033D+03
 0.456328837889930D+03 -.776662112062136D+02 0.424025124497392D+03 -.118707246526136D+03
 0.145708392693718D+03 0.286379247660548D+02 -.133617174477938D+03 0.505693153108975D+02
 0.515741358712414D+03 0.238136306433351D+03 -.450707461817891D+03 0.783775000014799D+02
 0.264344239244004D+03 -.189108019993192D+03 0.160299511798437D+03 -.102395687862416D+02
 0.000000000000000D+00 0.000000000000000D+00 -.000000000000000D+00 0.000000000000000D+00
 0.765511623841535D+03 0.000000000000000D+00 0.000000000000000D+00 0.765511623841535D+03
 0.763563740659609D+03 0.000000000000000D+00 0.000000000000000D+00 -.763563740659609D+03
 0.477815295230315D+03 -.123064900880347D+03 0.436756024349437D+03 -.118707246526136D+03
 0.140010754383862D+03 0.147521929691786D+02 -.129723276611121D+03 0.505693153108975D+02
 0.482854062451585D+03 0.189605333505216D+03 -.437098193345492D+03 0.783775000014799D+02
 0.288502948454284D+03 -.215975970046785D+03 0.167833940298847D+03 -.102395687862416D+02
 0.139892303981098D+03 0.134683344452738D+03 -.377684946916721D+02 0.194788318192594D+01
0.356231150536D-04 0.000000000000D+00 0.000000000000D+00 0.192065843646D-05 0.000000000000D+00  7 -2 2 23 -11 11 23 21 0 0.27990127D-01 0.40383291D+00 0.45641305D+06 0.45641305D+06 0.45641305D+06 0.10713213D+01  1  2  2  1  7  1       -2 0.149542948204D-03 0.100000000000D+01
-.197782727412D-05 0.000000000000D+00 -.136802141587D-06 0.192065843646D-05 0.000000000000D+00  7 -2 2 23 -11 11 23 21 2 0.27990127D-01 0.40383291D+00 0.45641305D+06 0.45641305D+06 0.45641305D+06 0.10713213D+01  1  2  3  1  7  1       -2 -.952931882183D-05 0.100000000000D+01
0.222193006142D-05 0.000000000000D+00 0.000000000000D+00 0.192065843646D-05 0.000000000000D+00  7 -2 2 23 -11 11 23 21 2 0.27990127D-01 0.40383291D+00 0.45641305D+06 0.45641305D+06 0.45641305D+06 0.10713213D+01  1  2 15  1  7  1       -2 0.107054241956D-04 0.100000000000D+01
0.263876989992D-04 0.000000000000D+00 0.000000000000D+00 0.192065843646D-05 0.000000000000D+00  7 -2 2 23 -11 11 23 21 2 0.32324607D-01 0.40383291D+00 0.56103436D+06 0.56103436D+06 0.56103436D+06 0.10649931D+01  1  2 12  1  7  1       -2 0.959841129979D-04 0.100000000000D+01
-.214874050126D-04 0.000000000000D+00 0.000000000000D+00 0.192065843646D-05 0.000000000000D+00  7 -2 2 23 -11 11 23 21 2 0.27990127D-01 0.40383291D+00 0.45641305D+06 0.45641305D+06 0.45641305D+06 0.10713213D+01  1  2  4  1  7  1       -2 -.103527914544D-03 0.100000000000D+01
-.675090529450D-04 0.000000000000D+00 -.216836266022D-04 0.192065843646D-05 0.000000000000D+00  7 -2 2 23 -11 11 23 21 2 0.35509606D-01 0.40383291D+00 0.45641305D+06 0.45641305D+06 0.45641305D+06 0.10713213D+01  1  2  5  1  7  1       -2 -.211784781048D-03 0.100000000000D+01
0.712419923751D-04 0.000000000000D+00 0.210839102345D-04 0.192065843646D-05 0.000000000000D+00  7 -2 2 23 -11 11 23 21 2 0.27990127D-01 0.40383291D+00 0.45641305D+06 0.45641305D+06 0.45641305D+06 0.10713213D+01  1  2  6  1  7  1       -2 0.343249214796D-03 0.100000000000D+01
0.582215967131D-06 0.000000000000D+00 0.000000000000D+00 0.192065843646D-05 0.000000000000D+00  7 21 2 23 -11 11 23 2 2 0.32324607D-01 0.40383291D+00 0.56103436D+06 0.56103436D+06 0.56103436D+06 0.10649931D+01  1  2 12  3  7  1       -2 0.236946371014D-04 0.100000000000D+01
-.186768766751D-05 0.000000000000D+00 -.707485573200D-06 0.192065843646D-05 0.000000000000D+00  7 21 2 23 -11 11 23 2 2 0.35509606D-01 0.40383291D+00 0.45641305D+06 0.45641305D+06 0.45641305D+06 0.10713213D+01  1  2  5  3  7  1       -2 -.646443530118D-04 0.100000000000D+01
  </mgrwgt>
  </event>
  <event>
  8     66 0.53686478E-06 0.23653031E+03 0.75467711E-02 0.98567408E-01
       -2 -1    0    0    0  501 0.00000000E+00 0.00000000E+00 0.52068561E+03 0.52068570E+03 0.32000000E+00 0.0000E+00 0.9000E+01
        2 -1    0    0  501    0 0.00000000E+00 0.00000000E+00 -.29594613E+03 0.29594630E+03 0.32000000E+00 0.0000E+00 0.9000E+01
       25  2    1    2    0    0 -.23437969E+03 -.20531874E+03 0.23438058E+03 0.49189805E+03 0.29989967E+03 0.0000E+00 0.0000E+00
       23  2    1    2    0    0 0.23437969E+03 0.20531874E+03 -.96410978E+01 0.32473395E+03 0.90937153E+02 0.0000E+00 0.0000E+00
       23  1    3    3    0    0 -.13868416E+03 -.20425845E+03 0.24461387E+03 0.35931325E+03 0.91188000E+02 0.0000E+00 0.9000E+01
      -13  1    4    4    0    0 0.22334605E+03 0.18104469E+03 0.15717116E+02 0.28793693E+03 0.10565837E+00 0.0000E+00 0.9000E+01
       13  1    4    4    0    0 0.11033643E+02 0.24274050E+02 -.25358214E+02 0.36797024E+02 0.10565837E+00 0.0000E+00 0.9000E+01
       23  1    3    3    0    0 -.95695531E+02 -.10602861E+01 -.10233294E+02 0.13258480E+03 0.91188000E+02 0.0000E+00 0.9000E+01
#aMCatNLO 1  0  0  1  2 0.67375555D+01 0.00000000D+00  -5  7  0 0.00000000D+00 0.00000000D+00 0.00000000D+00 0.00000000D+00 0.00000000D+00
  <mgrwgt>
 0.4346141399D-03   11    2    0
 0.392549358701981D+03 0.000000000000000D+00 0.000000000000000D+00 0.392549358701981D+03
 0.392549358701981D+03 0.000000000000000D+00 0.000000000000000D+00 -.392549358701981D+03
 0.303722699317075D+03 -.138684162249000D+03 -.204258450187498D+03 0.151583031387898D+03
 0.295003054168402D+03 0.223346336610602D+03 0.181044897711810D+03 -.660754183023364D+02
 0.455335796986605D+02 0.110333565097441D+02 0.242738386880339D+02 -.369100620380198D+02
 0.140839384219824D+03 -.956955308713462D+02 -.106028621234627D+01 -.485975510475422D+02
 0.000000000000000D+00 0.000000000000000D+00 0.000000000000000D+00 0.000000000000000D+00
 0.403532233314589D+03 0.000000000000000D+00 0.000000000000000D+00 0.403532233314589D+03
 0.393598480643980D+03 0.000000000000000D+00 0.000000000000000D+00 -.393598480643980D+03
 0.305813800843294D+03 -.140538797943376D+03 -.206102548043706D+03 0.151583031387898D+03
 0.292559250687054D+03 0.221558561763701D+03 0.179267280807018D+03 -.660754183023364D+02
 0.453212334552212D+02 0.107569127210018D+02 0.239989656228126D+02 -.369100620380198D+02
 0.141433342042724D+03 -.965544016256615D+02 -.191427695651001D+01 -.485975510475422D+02
 0.120030869302747D+02 0.477772508433511D+01 0.475057857038570D+01 0.993375267060938D+01
0.748027955926D-05 0.000000000000D+00 0.000000000000D+00 0.901965160455D-06 0.000000000000D+00  7 -2 2 23 -13 13 23 21 0 0.80105499D-01 0.45530194D-01 0.12586639D+06 0.12586639D+06 0.12586639D+06 0.11136143D+01  1  2  2  1  7  1       -2 0.143697627476D-03 0.100000000000D+01
-.410398995819D-06 0.000000000000D+00 -.287262431104D-07 0.901965160455D-06 0.000000000000D+00  7 -2 2 23 -13 13 23 21 2 0.80105499D-01 0.45530194D-01 0.12586639D+06 0.12586639D+06 0.12586639D+06 0.11136143D+01  1  2  3  1  7  1       -2 -.977704675916D-05 0.100000000000D+01
0.469038086075D-06 0.000000000000D+00 0.000000000000D+00 0.901965160455D-06 0.000000000000D+00  7 -2 2 23 -13 13 23 21 2 0.80105499D-01 0.45530194D-01 0.12586639D+06 0.12586639D+06 0.12586639D+06 0.11136143D+01  1  2 15  1  7  1       -2 0.111740217352D-04 0.100000000000D+01
0.260218796730D-04 0.000000000000D+00 0.000000000000D+00 0.901965160455D-06 0.000000000000D+00  7 -2 2 23 -13 13 23 21 2 0.82452065D-01 0.45530194D-01 0.12832921D+06 0.12832921D+06 0.12832921D+06 0.11129396D+01  1  2 12  1  7  1       -2 0.580146127843D-03 0.100000000000D+01
-.394918284452D-04 0.000000000000D+00 0.000000000000D+00 0.901965160455D-06 0.000000000000D+00  7 -2 2 23 -13 13 23 21 2 0.80105499D-01 0.45530194D-01 0.12586639D+06 0.12586639D+06 0.12586639D+06 0.11136143D+01  1  2  4  1  7  1       -2 -.940824556706D-03 0.100000000000D+01
-.366018822227D-03 0.000000000000D+00 -.309009810232D-04 0.901965160455D-06 0.000000000000D+00  7 -2 2 23 -13 13 23 21 2 0.82474572D-01 0.45530194D-01 0.12586639D+06 0.12586639D+06 0.12586639D+06 0.11136143D+01  1  2  5  1  7  1       -2 -.816784360862D-02 0.100000000000D+01
0.366776775217D-03 0.000000000000D+00 0.308878610619D-04 0.901965160455D-06 0.000000000000D+00  7 -2 2 23 -13 13 23 21 2 0.80105499D-01 0.45530194D-01 0.12586639D+06 0.12586639D+06 0.12586639D+06 0.11136143D+01  1  2  6  1  7  1       -2 0.873782274811D-02 0.100000000000D+01
0.129884133676D-04 0.000000000000D+00 0.000000000000D+00 0.901965160455D-06 0.131316181443D-06  7 -2 2 23 -13 13 23 21 2 0.82346717D-01 0.45651878D-01 0.12832921D+06 0.12832921D+06 0.12832921D+06 0.11129396D+01  1  2 11  1  7  1       -2 0.289556748821D-03 0.100000000000D+01
0.883238476334D-06 0.000000000000D+00 0.000000000000D+00 0.901965160455D-06 0.000000000000D+00  7 21 2 23 -13 13 23 2 2 0.82452065D-01 0.45530194D-01 0.12832921D+06 0.12832921D+06 0.12832921D+06 0.11129396D+01  1  2 12  3  7  1       -2 0.192760845042D-03 0.100000000000D+01
-.190609308557D-05 0.000000000000D+00 -.161722161292D-06 0.901965160455D-06 0.000000000000D+00  7 21 2 23 -13 13 23 2 2 0.82474572D-01 0.45530194D-01 0.12586639D+06 0.12586639D+06 0.12586639D+06 0.11136143D+01  1  2  5  3  7  1       -2 -.416624426039D-03 0.100000000000D+01
0.665457804509D-07 0.000000000000D+00 0.000000000000D+00 0.901965160455D-06 0.653150612300D-09  7 21 2 23 -13 13 23 2 2 0.82346717D-01 0.45651878D-01 0.12832921D+06 0.12832921D+06 0.12832921D+06 0.11129396D+01  1  2 11  3  7  1       -2 0.145256589813D-04 0.100000000000D+01
  </mgrwgt>
  </event>
  <event>
  8     66 0.53686478E-06 0.21300970E+03 0.75467711E-02 0.92310601E-01
       -2 -1    0    0    0  501 0.00000000E+00 0.00000000E+00 0.33830448E+03 0.33830464E+03 0.32000000E+00 0.0000E+00 0.9000E+01
        2 -1    0    0  501    0 0.00000000E+00 0.00000000E+00 -.10155884E+04 0.10155885E+04 0.32000000E+00 0.0000E+00 0.9000E+01
       25  2    1    2    0    0 -.41545263E+03 -.29573733E+03 -.14230054E+03 0.60891763E+03 0.30078195E+03 0.0000E+00 0.0000E+00
       23  2    1    2    0    0 0.41545263E+03 0.29573733E+03 -.53498341E+03 0.74497548E+03 0.93379678E+02 0.0000E+00 0.0000E+00
       23  1    3    3    0    0 -.33796278E+03 -.19432710E+03 -.49139829E+01 0.40040138E+03 0.91188000E+02 0.0000E+00 0.9000E+01
      -13  1    4    4    0    0 0.54306548E+02 0.82457104E+02 -.92418163E+02 0.13523869E+03 0.10565837E+00 0.0000E+00 0.9000E+01
       13  1    4    4    0    0 0.36114609E+03 0.21328023E+03 -.44256525E+03 0.60973679E+03 0.10565837E+00 0.0000E+00 0.9000E+01
       23  1    3    3    0    0 -.77489851E+02 -.10141024E+03 -.13738655E+03 0.20851626E+03 0.91188000E+02 0.0000E+00 0.9000E+01
#aMCatNLO 1  0  0  2  1 0.14648758D+03 0.00000000D+00  -5  7  0 0.00000000D+00 0.00000000D+00 0.00000000D+00 0.00000000D+00 0.00000000D+00
  <mgrwgt>
 0.1944016121D-03    9    2    0
 0.586155488220372D+03 0.000000000000000D+00 0.000000000000000D+00 0.586155488220372D+03
 0.586155488220372D+03 0.000000000000000D+00 0.000000000000000D+00 -.586155488220372D+03
 0.459581556717610D+03 -.337962782898417D+03 -.194327095642779D+03 0.225650378252689D+03
 0.102792583789026D+03 0.543061553451534D+02 0.824569366525218D+02 -.286008806076680D+02
 0.448495869482970D+03 0.361146478110437D+03 0.213280394325229D+03 -.158849739339377D+03
 0.161440966451137D+03 -.774898505571739D+02 -.101410235334972D+03 -.381997583056440D+02
 0.000000000000000D+00 0.000000000000000D+00 -.000000000000000D+00 -.000000000000000D+00
 0.628018913992071D+03 0.000000000000000D+00 0.000000000000000D+00 0.628018913992071D+03
 0.734519028297538D+03 0.000000000000000D+00 0.000000000000000D+00 -.734519028297538D+03
 0.478779812261168D+03 -.381773270483566D+03 -.155711059413067D+03 0.225650378252689D+03
 0.105314367984784D+03 0.445899976595573D+02 0.910210845970372D+02 -.286008806076680D+02
 0.435752333665462D+03 0.319862441696635D+03 0.249669531578394D+03 -.158849739339377D+03
 0.161581281745109D+03 -.925712069111018D+02 -.881170209596568D+02 -.381997583056440D+02
 0.181110146633086D+03 0.109892038038475D+03 -.968625358027074D+02 -.106500114305467D+03
0.128640366451D-04 0.000000000000D+00 0.000000000000D+00 0.133847965226D-06 0.000000000000D+00  7 -2 2 23 -13 13 23 21 0 0.52046859D-01 0.15624439D+00 0.28911259D+06 0.28911259D+06 0.28911259D+06 0.10857416D+01  1  2  2  2  7  2        2 0.139771640581D-03 0.100000000000D+01
-.708197255876D-06 0.000000000000D+00 -.494012878956D-07 0.133847965226D-06 0.000000000000D+00  7 -2 2 23 -13 13 23 21 2 0.52046859D-01 0.15624439D+00 0.28911259D+06 0.28911259D+06 0.28911259D+06 0.10857416D+01  1  2  3  2  7  2        2 -.907087150934D-05 0.100000000000D+01
0.780647422261D-06 0.000000000000D+00 0.000000000000D+00 0.133847965226D-06 0.000000000000D+00  7 -2 2 23 -13 13 23 21 2 0.52046859D-01 0.15624439D+00 0.28911259D+06 0.28911259D+06 0.28911259D+06 0.10857416D+01  1  2 15  2  7  2        2 0.999884199307D-05 0.100000000000D+01
0.152719837071D-04 0.000000000000D+00 0.000000000000D+00 0.133847965226D-06 0.000000000000D+00  7 -2 2 23 -13 13 23 21 2 0.52046859D-01 0.20032349D+00 0.37999945D+06 0.37999945D+06 0.37999945D+06 0.10770372D+01  1  2 12  2  7  2        2 0.129215375918D-03 0.100000000000D+01
-.160020824862D-04 0.000000000000D+00 0.000000000000D+00 0.133847965226D-06 0.000000000000D+00  7 -2 2 23 -13 13 23 21 2 0.52046859D-01 0.15624439D+00 0.28911259D+06 0.28911259D+06 0.28911259D+06 0.10857416D+01  1  2  4  2  7  2        2 -.204961023091D-03 0.100000000000D+01
-.270453285194D-04 0.000000000000D+00 -.690198933510D-05 0.133847965226D-06 0.000000000000D+00  7 -2 2 23 -13 13 23 21 2 0.52046859D-01 0.20313270D+00 0.28911259D+06 0.28911259D+06 0.28911259D+06 0.10857416D+01  1  2  5  2  7  2        2 -.229511367597D-03 0.100000000000D+01
0.281139937406D-04 0.000000000000D+00 0.667094141139D-05 0.133847965226D-06 0.000000000000D+00  7 -2 2 23 -13 13 23 21 2 0.52046859D-01 0.15624439D+00 0.28911259D+06 0.28911259D+06 0.28911259D+06 0.10857416D+01  1  2  6  2  7  2        2 0.360095189186D-03 0.100000000000D+01
0.514581336593D-06 0.000000000000D+00 0.000000000000D+00 0.133847965226D-06 0.000000000000D+00  7 -2 21 23 -13 13 23 -2 2 0.52046859D-01 0.20032349D+00 0.37999945D+06 0.37999945D+06 0.37999945D+06 0.10770372D+01  1  2 12  4  7  2        2 0.193788237804D-05 0.100000000000D+01
-.823377295154D-06 0.000000000000D+00 -.242073467540D-06 0.133847965226D-06 0.000000000000D+00  7 -2 21 23 -13 13 23 -2 2 0.52046859D-01 0.20313270D+00 0.28911259D+06 0.28911259D+06 0.28911259D+06 0.10857416D+01  1  2  5  4  7  2        2 -.307405579067D-05 0.100000000000D+01
  </mgrwgt>
  </event>
  <event>
  8     66 0.53686478E-06 0.37501669E+03 0.75467711E-02 0.92815974E-01
       -2 -1    0    0    0  501 0.00000000E+00 0.00000000E+00 0.38831828E+03 0.38831841E+03 0.32000000E+00 0.0000E+00 0.9000E+01
        2 -1    0    0  501    0 0.00000000E+00 0.00000000E+00 -.91905392E+03 0.91905398E+03 0.32000000E+00 0.0000E+00 0.9000E+01
       25  2    1    2    0    0 0.33128602E+03 -.39295218E+03 -.46168969E+02 0.59497602E+03 0.29614700E+03 0.0000E+00 0.0000E+00
       23  2    1    2    0    0 -.33128602E+03 0.39295218E+03 -.48456667E+03 0.71239637E+03 0.92422279E+02 0.0000E+00 0.0000E+00
       23  1    3    3    0    0 0.47407293E+02 -.48448296E+02 0.58051306E+02 0.12759269E+03 0.91188000E+02 0.0000E+00 0.9000E+01
      -13  1    4    4    0    0 -.25666230E+03 0.31464446E+03 -.42935468E+03 0.59095019E+03 0.10565837E+00 0.0000E+00 0.9000E+01
       13  1    4    4    0    0 -.74623720E+02 0.78307720E+02 -.55211993E+02 0.12144618E+03 0.10565837E+00 0.0000E+00 0.9000E+01
       23  1    3    3    0    0 0.28387873E+03 -.34450389E+03 -.10422028E+03 0.46738333E+03 0.91188000E+02 0.0000E+00 0.9000E+01
#aMCatNLO 1  0  0  1  2 0.90033984D+02 0.00000000D+00  -5  7  0 0.00000000D+00 0.00000000D+00 0.00000000D+00 0.00000000D+00 0.00000000D+00
  <mgrwgt>
 0.5096380889D-03    6    2    0
 0.597398994355175D+03 0.000000000000000D+00 0.000000000000000D+00 0.597398994355175D+03
 0.597398994355175D+03 0.000000000000000D+00 0.000000000000000D+00 -.597398994355175D+03
 0.165401228562846D+03 0.474072925977668D+02 -.484482955145694D+02 0.120198279257158D+03
 0.455908593466093D+03 -.256662540829758D+03 0.314644769391335D+03 -.207305703794463D+03
 0.108362973713205D+03 -.746234816492921D+02 0.783074115046037D+02 -.646678915344180D+01
 0.465125192968207D+03 0.283878729881283D+03 -.344503885381369D+03 0.935742136907475D+02
 0.000000000000000D+00 0.000000000000000D+00 0.000000000000000D+00 -.000000000000000D+00
 0.638056651610651D+03 0.000000000000000D+00 0.000000000000000D+00 0.638056651610651D+03
 0.651103118632989D+03 0.000000000000000D+00 0.000000000000000D+00 -.651103118632989D+03
 0.167365464797809D+03 0.414140499231786D+02 -.594407065533837D+02 0.120198279257158D+03
 0.445642404851876D+03 -.272899784593156D+03 0.284863486156886D+03 -.207305703794463D+03
 0.106181148554896D+03 -.784874951302496D+02 0.712202924359397D+02 -.646678915344180D+01
 0.478996423214879D+03 0.266874774638753D+03 -.375691420320349D+03 0.935742136907475D+02
 0.909743288241799D+02 0.430984551614742D+02 0.790483482809063D+02 -.130464670223378D+02
0.423975452454D-04 0.000000000000D+00 0.000000000000D+00 0.247866703736D-07 0.000000000000D+00  7 -2 2 23 -13 13 23 21 0 0.59741288D-01 0.14139293D+00 0.29347006D+06 0.29347006D+06 0.29347006D+06 0.10852597D+01  1  2  2  1  7  1       -2 0.400056396054D-03 0.100000000000D+01
-.232801587689D-05 0.000000000000D+00 -.162817737273D-06 0.247866703736D-07 0.000000000000D+00  7 -2 2 23 -13 13 23 21 2 0.59741288D-01 0.14139293D+00 0.29347006D+06 0.29347006D+06 0.29347006D+06 0.10852597D+01  1  2  3  1  7  1       -2 -.258722248799D-04 0.100000000000D+01
0.258242095904D-05 0.000000000000D+00 0.000000000000D+00 0.247866703736D-07 0.000000000000D+00  7 -2 2 23 -13 13 23 21 2 0.59741288D-01 0.14139293D+00 0.29347006D+06 0.29347006D+06 0.29347006D+06 0.10852597D+01  1  2 15  1  7  1       -2 0.286995361372D-04 0.100000000000D+01
0.438299920722D-04 0.000000000000D+00 0.000000000000D+00 0.247866703736D-07 0.000000000000D+00  7 -2 2 23 -13 13 23 21 2 0.66292629D-01 0.14139293D+00 0.34617756D+06 0.34617756D+06 0.34617756D+06 0.10799814D+01  1  2 12  1  7  1       -2 0.385412601345D-03 0.100000000000D+01
-.308250644983D-04 0.000000000000D+00 0.000000000000D+00 0.247866703736D-07 0.000000000000D+00  7 -2 2 23 -13 13 23 21 2 0.59741288D-01 0.14139293D+00 0.29347006D+06 0.29347006D+06 0.29347006D+06 0.10852597D+01  1  2  4  1  7  1       -2 -.342571976658D-03 0.100000000000D+01
0.736701583530D-06 0.000000000000D+00 0.000000000000D+00 0.247866703736D-07 0.000000000000D+00  7 21 2 23 -13 13 23 2 2 0.66292629D-01 0.14139293D+00 0.34617756D+06 0.34617756D+06 0.34617756D+06 0.10799814D+01  1  2 12  3  7  1       -2 0.639137569020D-04 0.100000000000D+01
  </mgrwgt>
  </event>
  <event>
  8     66 0.53686478E-06 0.33766644E+03 0.75467711E-02 0.89303322E-01
       -2 -1    0    0    0  501 0.00000000E+00 0.00000000E+00 0.19950702E+03 0.19950727E+03 0.32000000E+00 0.0000E+00 0.9000E+01
        2 -1    0    0  501    0 0.00000000E+00 0.00000000E+00 -.71685488E+03 0.71685496E+03 0.32000000E+00 0.0000E+00 0.9000E+01
       25  2    1    2    0    0 0.10072233E+03 0.25132237E+03 -.48025040E+03 0.62776886E+03 0.30024218E+03 0.0000E+00 0.0000E+00
       23  2    1    2    0    0 -.10072233E+03 -.25132237E+03 -.37097466E+02 0.28859337E+03 0.92746916E+02 0.0000E+00 0.0000E+00
       23  1    3    3    0    0 0.94706508E+02 -.56028050E+01 -.15430536E+03 0.20279574E+03 0.91188000E+02 0.0000E+00 0.9000E+01
      -11  1    4    4    0    0 -.15525103E+02 -.52347493E+02 -.46821648E+02 0.71927433E+02 0.51099893E-03 0.0000E+00 0.9000E+01
       11  1    4    4    0    0 -.85197229E+02 -.19897487E+03 0.97241818E+01 0.21666594E+03 0.51099893E-03 0.0000E+00 0.9000E+01
       23  1    3    3    0    0 0.60158237E+01 0.25692517E+03 -.32594504E+03 0.42497312E+03 0.91188000E+02 0.0000E+00 0.9000E+01
#aMCatNLO 1  0  0  2  2 0.73075762D+03 0.00000000D+00  -5  7  0 0.00000000D+00 0.00000000D+00 0.00000000D+00 0.00000000D+00 0.00000000D+00
  <mgrwgt>
 0.4361272475D-03    3    2    0
 0.378176848347061D+03 0.000000000000000D+00 0.000000000000000D+00 0.378176848347061D+03
 0.378176848347061D+03 0.000000000000000D+00 0.000000000000000D+00 -.378176848347061D+03
 0.140152420874873D+03 0.947065077352578D+02 -.560280504515185D+01 -.482362488311969D+02
 0.551177350599706D+02 -.155251028530468D+02 -.523474931509429D+02 -.752833715739496D+01
 0.269153527001136D+03 -.851972285485729D+02 -.198974874322906D+03 0.159981413711022D+03
 0.291930013758143D+03 0.601582366636186D+01 0.256925172519001D+03 -.104216827722430D+03
 0.000000000000000D+00 -.000000000000000D+00 -.000000000000000D+00 0.000000000000000D+00
 0.215615051406895D+04 0.000000000000000D+00 0.000000000000000D+00 0.215615051406895D+04
 0.607738949201011D+03 0.000000000000000D+00 0.000000000000000D+00 -.607738949201011D+03
 0.232431261438261D+03 0.164401695059501D+03 0.127884271550644D+03 -.482362488311969D+02
 0.248653646762450D+02 -.563532114679763D+00 -.236916215503068D+02 -.752833715739496D+01
 0.165746082859266D+03 -.384527671782388D+01 -.431616160167449D+02 0.159981413711022D+03
 0.628659535764834D+03 0.178220523304340D+03 0.586748547894801D+03 -.104216827722430D+03
 0.171218721853135D+04 -.338213409531337D+03 -.647779581878393D+03 0.154841156486794D+04
0.915407985473D-05 0.000000000000D+00 0.000000000000D+00 0.336160811511D-06 0.000000000000D+00  7 -2 2 23 -11 11 23 21 0 0.30693412D-01 0.11028539D+00 0.11401862D+06 0.11401862D+06 0.11401862D+06 0.11170763D+01  1  2  2  2  7  2        2 0.432286959762D-03 0.100000000000D+01
-.500622019235D-06 0.000000000000D+00 -.351540769667D-07 0.336160811511D-06 0.000000000000D+00  7 -2 2 23 -11 11 23 21 2 0.30693412D-01 0.11028539D+00 0.11401862D+06 0.11401862D+06 0.11401862D+06 0.11170763D+01  1  2  3  2  7  2        2 -.295007500068D-04 0.100000000000D+01
0.565790959073D-06 0.000000000000D+00 0.000000000000D+00 0.336160811511D-06 0.000000000000D+00  7 -2 2 23 -11 11 23 21 2 0.30693412D-01 0.11028539D+00 0.11401862D+06 0.11401862D+06 0.11401862D+06 0.11170763D+01  1  2 15  2  7  2        2 0.333410377458D-04 0.100000000000D+01
  </mgrwgt>
  </event>
  <event>
  8     66 0.53686478E-06 0.63330490E+03 0.75467711E-02 0.82453923E-01
       -2 -1    0    0    0  501 0.00000000E+00 0.00000000E+00 0.26021678E+03 0.26021698E+03 0.32000000E+00 0.0000E+00 0.9000E+01
        2 -1    0    0  501    0 0.00000000E+00 0.00000000E+00 -.17120360E+04 0.17120361E+04 0.32000000E+00 0.0000E+00 0.9000E+01
       25  2    1    2    0    0 -.16570560E+03 -.58039658E+03 -.10281700E+04 0.12293625E+04 0.29980024E+03 0.0000E+00 0.0000E+00
       23  2    1    2    0    0 0.16570560E+03 0.58039658E+03 -.42364926E+03 0.74289050E+03 0.89939208E+02 0.0000E+00 0.0000E+00
       23  1    3    3    0    0 -.17016498E+03 -.51236097E+03 -.74831995E+03 0.92723669E+03 0.91188000E+02 0.0000E+00 0.9000E+01
      -11  1    4    4    0    0 0.44933410E+01 0.22570011E+01 0.35763169E+01 0.61704303E+01 0.51099893E-03 0.0000E+00 0.9000E+01
       11  1    4    4    0    0 0.16121226E+03 0.57813958E+03 -.42722558E+03 0.73672007E+03 0.51099893E-03 0.0000E+00 0.9000E+01
       23  1    3    3    0    0 0.44593832E+01 -.68035617E+02 -.27985005E+03 0.30212586E+03 0.91188000E+02 0.0000E+00 0.9000E+01
#aMCatNLO 1  0  0  2  2 0.14900719D+04 0.00000000D+00  -5  7  0 0.00000000D+00 0.00000000D+00 0.00000000D+00 0.00000000D+00 0.00000000D+00
  <mgrwgt>
 0.4446072548D-03    5    2    0
 0.667458411123606D+03 0.000000000000000D+00 0.000000000000000D+00 0.667458411123606D+03
 0.667458411123606D+03 0.000000000000000D+00 0.000000000000000D+00 -.667458411123606D+03
 0.556079645291584D+03 -.170164980711015D+03 -.512360967347957D+03 -.971567755820409D+02
 0.130059157815031D+02 0.449334097345291D+01 0.225700112057029D+01 0.119945686939376D+02
 0.623817207288310D+03 0.161212256570172D+03 0.578139582879136D+03 0.170038640164164D+03
 0.142014053885814D+03 0.445938316739024D+01 -.680356166517489D+02 -.848764332760607D+02
 0.000000000000000D+00 -.000000000000000D+00 -.000000000000000D+00 -.000000000000000D+00
 0.161850475426897D+04 0.000000000000000D+00 0.000000000000000D+00 0.161850475426897D+04
 0.189816249132141D+04 0.000000000000000D+00 0.000000000000000D+00 -.189816249132141D+04
 0.294446524757564D+03 0.982939661345659D+02 -.243479694795777D+03 -.971567755820409D+02
 0.248179816948307D+02 0.164320255661975D+02 0.142144670333854D+02 0.119945686939376D+02
 0.151870992773820D+04 0.837476666193288D+03 0.125546785663492D+04 0.170038640164164D+03
 0.162604808311961D+03 0.100608874875786D+03 0.282651324555974D+02 -.848764332760607D+02
 0.151608800308782D+04 -.105281153276984D+04 -.105446776132813D+04 -.279657737052432D+03
0.614336157107D-04 0.000000000000D+00 0.000000000000D+00 0.149691447387D-05 0.000000000000D+00  7 -2 2 23 -11 11 23 21 0 0.40033368D-01 0.26339018D+00 0.40107510D+06 0.40107510D+06 0.40107510D+06 0.10753436D+01  1  2  2  2  7  2        2 0.441463613589D-03 0.100000000000D+01
-.340153014551D-05 0.000000000000D+00 -.235921260172D-06 0.149691447387D-05 0.000000000000D+00  7 -2 2 23 -11 11 23 21 2 0.40033368D-01 0.26339018D+00 0.40107510D+06 0.40107510D+06 0.40107510D+06 0.10753436D+01  1  2  3  2  7  2        2 -.282655648616D-04 0.100000000000D+01
0.377456927478D-05 0.000000000000D+00 0.000000000000D+00 0.149691447387D-05 0.000000000000D+00  7 -2 2 23 -11 11 23 21 2 0.40033368D-01 0.26339018D+00 0.40107510D+06 0.40107510D+06 0.40107510D+06 0.10753436D+01  1  2 15  2  7  2        2 0.313653938366D-04 0.100000000000D+01
0.850088682481D-05 0.000000000000D+00 -.163879366335D-04 0.149691447387D-05 0.000000000000D+00  7 -2 2 23 -11 11 23 21 2 0.40033368D-01 0.84120418D+00 0.40107510D+06 0.40107510D+06 0.40107510D+06 0.10753436D+01  1  2  5  2  7  2        2 0.437748745859D-07 0.100000000000D+01
0.184869210269D-05 0.000000000000D+00 -.219073112829D-05 0.149691447387D-05 0.000000000000D+00  7 -2 21 23 -11 11 23 -2 2 0.40033368D-01 0.84120418D+00 0.40107510D+06 0.40107510D+06 0.40107510D+06 0.10753436D+01  1  2  5  4  7  2        2 0.373950944286D-10 0.100000000000D+01
  </mgrwgt>
  </event>
  <event>
  8     66 0.53686478E-06 0.15408497E+03 0.75467711E-02 0.96278489E-01
       -2 -1    0    0    0  501 0.00000000E+00 0.00000000E+00 0.46591850E+02 0.46592949E+02 0.32000000E+00 0.0000E+00 0.9000E+01
        2 -1    0    0  501    0 0.00000000E+00 0.00000000E+00 -.29285256E+04 0.29285256E+04 0.32000000E+00 0.0000E+00 0.9000E+01
       25  2    1    2    0    0 0.45754011E+02 0.26493861E+03 -.11301190E+04 0.12003937E+04 0.30247332E+03 0.0000E+00 0.0000E+00
       23  2    1    2    0    0 -.45754011E+02 -.26493861E+03 -.17518147E+04 0.17747249E+04 0.92236963E+02 0.0000E+00 0.0000E+00
       23  1    3    3    0    0 -.90073866E+02 0.97723588E+02 -.33817375E+03 0.37461972E+03 0.91188000E+02 0.0000E+00 0.9000E+01
      -13  1    4    4    0    0 0.24347016E+02 -.28087731E+02 -.21676724E+03 0.21993123E+03 0.10565837E+00 0.0000E+00 0.9000E+01
       13  1    4    4    0    0 -.70101027E+02 -.23685088E+03 -.15350475E+04 0.15547937E+04 0.10565837E+00 0.0000E+00 0.9000E+01
       23  1    3    3    0    0 0.13582788E+03 0.16721502E+03 -.79194530E+03 0.82577399E+03 0.91188000E+02 0.0000E+00 0.9000E+01
#aMCatNLO 1  0  0  2  1 0.16397908D+03 0.00000000D+00  -5  7  0 0.00000000D+00 0.00000000D+00 0.00000000D+00 0.00000000D+00 0.00000000D+00
  <mgrwgt>
 0.3704812290D-03    9    2    0
 0.369387447636462D+03 0.000000000000000D+00 0.000000000000000D+00 0.369387447636462D+03
 0.369387447636462D+03 0.000000000000000D+00 0.000000000000000D+00 -.369387447636462D+03
 0.189426785547682D+03 -.900738660833755D+02 0.977235878524593D+02 0.995191175853372D+02
 0.400831574496947D+02 0.243471392471159D+02 -.280874568667575D+02 -.149990362482597D+02
 0.273142086753110D+03 -.701011503695149D+02 -.236851150871663D+03 -.116593141322647D+03
 0.236122865522438D+03 0.135827877205774D+03 0.167215019885961D+03 0.320730599855699D+02
 0.000000000000000D+00 0.000000000000000D+00 0.000000000000000D+00 -.000000000000000D+00
 0.412168184320294D+03 0.000000000000000D+00 0.000000000000000D+00 0.412168184320294D+03
 0.577315022174898D+03 0.000000000000000D+00 0.000000000000000D+00 -.577315022174898D+03
 0.198451741935121D+03 -.125307322921577D+03 0.739044152290462D+02 0.995191175853372D+02
 0.400732481193463D+02 0.170660265898874D+02 -.330097692038485D+02 -.149990362482597D+02
 0.322123510244105D+03 -.124172884773523D+03 -.273405724035769D+03 -.116593141322647D+03
 0.196106073168475D+03 0.965657923607626D+02 0.140672339706353D+03 0.320730599855699D+02
 0.232728633028145D+03 0.135848388744450D+03 0.918387383042183D+02 -.165146837854604D+03
0.115507324668D-04 0.000000000000D+00 0.000000000000D+00 0.218517277007D-07 0.000000000000D+00  7 -2 2 23 -13 13 23 21 0 0.71680628D-02 0.45054249D+00 0.11535914D+06 0.11535914D+06 0.11535914D+06 0.11166653D+01  1  2  2  2  7  2        2 0.306324438758D-03 0.100000000000D+01
-.636209531477D-06 0.000000000000D+00 -.443578540504D-07 0.218517277007D-07 0.000000000000D+00  7 -2 2 23 -13 13 23 21 2 0.71680628D-02 0.45054249D+00 0.11535914D+06 0.11535914D+06 0.11535914D+06 0.11166653D+01  1  2  3  2  7  2        2 -.210386707326D-04 0.100000000000D+01
0.711412532766D-06 0.000000000000D+00 0.000000000000D+00 0.218517277007D-07 0.000000000000D+00  7 -2 2 23 -13 13 23 21 2 0.71680628D-02 0.45054249D+00 0.11535914D+06 0.11535914D+06 0.11535914D+06 0.11166653D+01  1  2 15  2  7  2        2 0.235255419660D-04 0.100000000000D+01
0.477868396649D-05 0.000000000000D+00 0.000000000000D+00 0.218517277007D-07 0.000000000000D+00  7 -2 2 23 -13 13 23 21 2 0.71680628D-02 0.71824724D+00 0.18774115D+06 0.18774115D+06 0.18774115D+06 0.10999414D+01  1  2 12  2  7  2        2 0.629446292456D-05 0.100000000000D+01
-.703240551852D-05 0.000000000000D+00 0.000000000000D+00 0.218517277007D-07 0.000000000000D+00  7 -2 2 23 -13 13 23 21 2 0.71680628D-02 0.45054249D+00 0.11535914D+06 0.11535914D+06 0.11535914D+06 0.11166653D+01  1  2  4  2  7  2        2 -.232553045565D-03 0.100000000000D+01
-.856998605592D-05 0.000000000000D+00 -.270078250701D-05 0.218517277007D-07 0.000000000000D+00  7 -2 2 23 -13 13 23 21 2 0.71680628D-02 0.71453280D+00 0.11535914D+06 0.11535914D+06 0.11535914D+06 0.11166653D+01  1  2  5  2  7  2        2 -.128259653314D-04 0.100000000000D+01
0.909487483481D-05 0.000000000000D+00 0.243700131327D-05 0.218517277007D-07 0.000000000000D+00  7 -2 2 23 -13 13 23 21 2 0.71680628D-02 0.45054249D+00 0.11535914D+06 0.11535914D+06 0.11535914D+06 0.11166653D+01  1  2  6  2  7  2        2 0.300756382193D-03 0.100000000000D+01
0.255187426997D-06 0.000000000000D+00 0.000000000000D+00 0.218517277007D-07 0.000000000000D+00  7 -2 21 23 -13 13 23 -2 2 0.71680628D-02 0.71824724D+00 0.18774115D+06 0.18774115D+06 0.18774115D+06 0.10999414D+01  1  2 12  4  7  2        2 0.323409321774D-08 0.100000000000D+01
-.342963031165D-06 0.000000000000D+00 -.142993828537D-06 0.218517277007D-07 0.000000000000D+00  7 -2 21 23 -13 13 23 -2 2 0.71680628D-02 0.71453280D+00 0.11535914D+06 0.11535914D+06 0.11535914D+06 0.11166653D+01  1  2  5  4  7  2        2 -.514927407878D-08 0.100000000000D+01
  </mgrwgt>
  </event>
  <event>
  9     66 -.53686478E-06 0.26856886E+03 0.75467711E-02 0.10064171E+00
       -2 -1    0    0    0  502 0.00000000E+00 0.00000000E+00 0.30590435E+02 0.30592109E+02 0.32000000E+00 0.0000E+00 0.9000E+01
        2 -1    0    0  501    0 0.00000000E+00 0.00000000E+00 -.42319486E+04 0.42319486E+04 0.32000000E+00 0.0000E+00 0.9000E+01
       25  2    1    2    0    0 0.14684997E+03 0.58854298E+02 -.32937659E+04 0.33111620E+04 0.29978516E+03 0.0000E+00 0.0000E+00
       23  2    1    2    0    0 -.19361300E+03 -.15914619E+02 -.76468743E+03 0.79500434E+03 0.97702450E+02 0.0000E+00 0.0000E+00
       23  1    3    3    0    0 0.19918755E+03 0.14336320E+01 -.21670658E+04 0.21781109E+04 0.91188000E+02 0.0000E+00 0.9000E+01
      -13  1    4    4    0    0 -.18154308E+03 -.32818609E+02 -.74043886E+03 0.76307580E+03 0.10565837E+00 0.0000E+00 0.9000E+01
       13  1    4    4    0    0 -.12069913E+02 0.16903990E+02 -.24248567E+02 0.31928543E+02 0.10565837E+00 0.0000E+00 0.9000E+01
       23  1    3    3    0    0 -.52337578E+02 0.57420666E+02 -.11267001E+04 0.11330511E+04 0.91188000E+02 0.0000E+00 0.9000E+01
       21  1    1    2  501  502 0.46763024E+02 -.42939679E+02 -.14290480E+03 0.15637436E+03 0.75000000E+00 0.0000E+00 0.9000E+01
#aMCatNLO 2  0  0  1  2 0.63486979D+02 0.00000000D+00  -5  7  0 0.00000000D+00 0.00000000D+00 0.00000000D+00 0.00000000D+00 0.00000000D+00
  <mgrwgt>
 -.5917763006D-04    2    2    0
 0.310454452652881D+03 0.000000000000000D+00 0.000000000000000D+00 0.310454452652881D+03
 0.310454452652881D+03 0.000000000000000D+00 0.000000000000000D+00 -.310454452652881D+03
 0.254471071417824D+03 0.217696532315483D+03 -.155620380844259D+02 -.938419822521232D+02
 0.195196747467811D+03 -.166492436355825D+03 -.466389223024247D+02 0.905916650955386D+02
 0.505739838605987D+02 -.820294254108185D+01 0.133533646694324D+02 0.480845841118020D+02
 0.120667102559529D+03 -.430011534185759D+02 0.488475957174182D+02 -.448342669552174D+02
 0.000000000000000D+00 0.000000000000000D+00 -.000000000000000D+00 0.000000000000000D+00
 0.400170821838588D+03 0.000000000000000D+00 0.000000000000000D+00 0.400170821838588D+03
 0.323510950563605D+03 0.000000000000000D+00 0.000000000000000D+00 -.323510950563605D+03
 0.238326058809748D+03 0.199187564918422D+03 0.143363616338802D+01 -.938419822521232D+02
 0.205528273798936D+03 -.181543267415632D+03 -.328186471696275D+02 0.905916650955386D+02
 0.523789280659096D+02 -.120697509565453D+02 0.169040228340990D+02 0.480845841118020D+02
 0.127912928286781D+03 -.523375707884783D+02 0.574206676158370D+02 -.448342669552174D+02
 0.995355834408187D+02 0.467630242422334D+02 -.429396794436966D+02 0.766598712749836D+02
-.256271781279D-04 0.000000000000D+00 0.000000000000D+00 0.180016423599D-07 0.000000000000D+00  7 -2 2 23 -13 13 23 21 2 0.47670675D-02 0.62479015D+00 0.92298935D+05 0.92298935D+05 0.92298935D+05 0.11245893D+01  1  2 13  1  7  1       -2 -.253598820111D-03 0.100000000000D+01
0.269621964742D-04 0.000000000000D+00 0.000000000000D+00 0.180016423599D-07 0.307281122675D-10  7 -2 2 23 -13 13 23 21 2 0.47063305D-02 0.65106638D+00 0.92298935D+05 0.92298935D+05 0.92298935D+05 0.11245893D+01  1  2  1  1  7  1       -2 0.194421190053D-03 0.100000000000D+01
  </mgrwgt>
  </event>
  <event>
  9     66 0.53686478E-06 0.19643767E+03 0.75467711E-02 0.10274570E+00
       -2 -1    0    0    0  501 0.00000000E+00 0.00000000E+00 0.78667333E+03 0.78667339E+03 0.32000000E+00 0.0000E+00 0.9000E+01
        2 -1    0    0  502    0 0.00000000E+00 0.00000000E+00 -.18313846E+03 0.18313874E+03 0.32000000E+00 0.0000E+00 0.9000E+01
       25  2    1    2    0    0 -.17944837E+03 0.37277256E+02 0.12039863E+03 0.37183562E+03 0.30029084E+03 0.0000E+00 0.0000E+00
       23  2    1    2    0    0 0.51496683E+02 0.22907513E+02 0.43639545E+03 0.44905001E+03 0.89600564E+02 0.0000E+00 0.0000E+00
       23  1    3    3    0    0 0.16602816E+02 0.33689703E+02 -.35968539E+02 0.10497446E+03 0.91188000E+02 0.0000E+00 0.9000E+01
      -13  1    4    4    0    0 0.22682895E+02 0.23382075E+02 0.39904905E+02 0.51513569E+02 0.10565837E+00 0.0000E+00 0.9000E+01
       13  1    4    4    0    0 0.28813789E+02 -.47456226E+00 0.39649055E+03 0.39753644E+03 0.10565837E+00 0.0000E+00 0.9000E+01
       23  1    3    3    0    0 -.19605118E+03 0.35875529E+01 0.15636717E+03 0.26686116E+03 0.91188000E+02 0.0000E+00 0.9000E+01
       21  1    1    2  502  501 0.12795168E+03 -.60184769E+02 0.46740775E+02 0.14892650E+03 0.75000000E+00 0.0000E+00 0.9000E+01
#aMCatNLO 2  0  0  2  1 0.14139957D+03 0.00000000D+00  -5  7  0 0.00000000D+00 0.00000000D+00 0.00000000D+00 0.00000000D+00 0.00000000D+00
  <mgrwgt>
 0.3712428176D-04    2    2    0
 0.293189244535567D+03 0.000000000000000D+00 0.000000000000000D+00 0.293189244535567D+03
 0.293189244535567D+03 0.000000000000000D+00 0.000000000000000D+00 -.293189244535567D+03
 0.181275145416466D+03 0.550387979266042D+02 0.156105298731218D+02 -.145850845323693D+03
 0.367729737493272D+02 0.302167981872851D+02 0.198383729097858D+02 0.675541752742726D+01
 0.186370788431158D+03 0.676854242733463D+02 -.187586827187856D+02 0.172629273137682D+03
 0.181959581474183D+03 -.152941020387236D+03 -.166902200641221D+02 -.335338453414167D+02
 0.000000000000000D+00 0.000000000000000D+00 -.000000000000000D+00 -.000000000000000D+00
 0.344426523537823D+03 0.000000000000000D+00 0.000000000000000D+00 0.344426523537823D+03
 0.418288386919485D+03 0.000000000000000D+00 0.000000000000000D+00 -.418288386919485D+03
 0.176063539776913D+03 0.166028158503913D+02 0.336897034563808D+02 -.145850845323693D+03
 0.332696845943610D+02 0.226828857612867D+02 0.233821072741275D+02 0.675541752742726D+01
 0.175018073748086D+03 0.288137979848367D+02 -.474594706150619D+00 0.172629273137682D+03
 0.218834885605139D+03 -.196051183353693D+03 0.358755293326699D+01 -.335338453414167D+02
 0.159528726732808D+03 0.127951683757178D+03 -.601847689576247D+02 -.738618633816626D+02
-.529376945727D-06 0.000000000000D+00 0.000000000000D+00 0.163749457209D-06 0.000000000000D+00  7 -2 2 23 -13 13 23 21 2 0.10302238D+00 0.29313107D-01 0.66994050D+05 0.66994050D+05 0.66994050D+05 0.11362836D+01  1  2 13  2  7  2        2 -.120786245778D-04 0.100000000000D+01
0.306753412413D-05 0.000000000000D+00 0.000000000000D+00 0.163749457209D-06 0.582059201229D-10  7 -2 2 23 -13 13 23 21 2 0.12102640D+00 0.28175107D-01 0.66994050D+05 0.66994050D+05 0.66994050D+05 0.11362836D+01  1  2  1  2  7  2        2 0.492029063385D-04 0.100000000000D+01
  </mgrwgt>
  </event>
  <event>
  8     66 0.53686478E-06 0.95150819E+02 0.75467711E-02 0.10378968E+00
       -2 -1    0    0    0  501 0.00000000E+00 0.00000000E+00 0.43489383E+02 0.43490560E+02 0.32000000E+00 0.0000E+00 0.9000E+01
        2 -1    0    0  501    0 0.00000000E+00 0.00000000E+00 -.98126718E+03 0.98126723E+03 0.32000000E+00 0.0000E+00 0.9000E+01
       25  2    1    2    0    0 0.43499845E+01 0.12709661E+01 -.55363969E+03 0.62997893E+03 0.30055949E+03 0.0000E+00 0.0000E+00
       23  2    1    2    0    0 -.43499845E+01 -.12709661E+01 -.38413811E+03 0.39477886E+03 0.90927048E+02 0.0000E+00 0.0000E+00
       23  1    3    3    0    0 -.14110676E+02 0.10676050E+03 -.16748738E+03 0.21900728E+03 0.91188000E+02 0.0000E+00 0.9000E+01
      -11  1    4    4    0    0 0.22598273E+02 0.14239920E+02 -.33877988E+02 0.43141341E+02 0.51099893E-03 0.0000E+00 0.9000E+01
       11  1    4    4    0    0 -.26948257E+02 -.15510886E+02 -.35026012E+03 0.35163752E+03 0.51099893E-03 0.0000E+00 0.9000E+01
       23  1    3    3    0    0 0.18460661E+02 -.10548953E+03 -.38615231E+03 0.41097164E+03 0.91188000E+02 0.0000E+00 0.9000E+01
#aMCatNLO 1  0  0  1  2 0.12009410D+03 0.00000000D+00  -5  7  0 0.00000000D+00 0.00000000D+00 0.00000000D+00 0.00000000D+00 0.00000000D+00
  <mgrwgt>
 0.4515017235D-03    9    2    0
 0.206580091314458D+03 0.000000000000000D+00 0.000000000000000D+00 0.206580091314458D+03
 0.206580091314458D+03 0.000000000000000D+00 0.000000000000000D+00 -.206580091314458D+03
 0.163044441870026D+03 -.141106763002752D+02 0.106760498578988D+03 0.816781699000597D+02
 0.301079362374742D+02 0.225982725031726D+02 0.142399198246989D+02 0.138935448226258D+02
 0.771544069723514D+02 -.269482571076359D+02 -.155108859410502D+02 -.706116588917136D+02
 0.142853397549063D+03 0.184606609047384D+02 -.105489532462637D+03 -.249600558309720D+02
 0.000000000000000D+00 -.000000000000000D+00 0.000000000000000D+00 0.000000000000000D+00
 0.300577796556556D+03 0.000000000000000D+00 0.000000000000000D+00 0.300577796556556D+03
 0.257327318614342D+03 0.000000000000000D+00 0.000000000000000D+00 -.257327318614342D+03
 0.138536151786940D+03 -.619257408230292D+01 0.645549579501543D+02 0.816781699000597D+02
 0.284970973905442D+02 0.241369678188340D+02 0.603827429489747D+01 0.138935448226258D+02
 0.833346361738779D+02 -.227345620781014D+02 -.379709744661608D+02 -.706116588917136D+02
 0.179892419803324D+03 0.269344633508136D+02 -.150657099585827D+03 -.249600558309720D+02
 0.127644810016212D+03 -.221442950092432D+02 0.118034841806936D+03 0.432504779422138D+02
0.126224574312D-05 0.000000000000D+00 0.000000000000D+00 0.870523989590D-07 0.000000000000D+00  7 -2 2 23 -11 11 23 21 0 0.66907689D-02 0.15096428D+00 0.28827008D+05 0.28827008D+05 0.28827008D+05 0.11689465D+01  1  2  2  1  7  1       -2 0.452668867170D-03 0.100000000000D+01
-.668442030496D-07 0.000000000000D+00 -.484735601052D-08 0.870523989590D-07 0.000000000000D+00  7 -2 2 23 -11 11 23 21 2 0.66907689D-02 0.15096428D+00 0.28827008D+05 0.28827008D+05 0.28827008D+05 0.11689465D+01  1  2  3  1  7  1       -2 -.327559129478D-04 0.100000000000D+01
0.741628796431D-07 0.000000000000D+00 0.000000000000D+00 0.870523989590D-07 0.000000000000D+00  7 -2 2 23 -11 11 23 21 2 0.66907689D-02 0.15096428D+00 0.28827008D+05 0.28827008D+05 0.28827008D+05 0.11689465D+01  1  2 15  1  7  1       -2 0.363423112061D-04 0.100000000000D+01
0.108914694012D-06 0.000000000000D+00 0.000000000000D+00 0.870523989590D-07 0.000000000000D+00  7 -2 2 23 -11 11 23 21 2 0.10254677D-01 0.15096428D+00 0.57427572D+05 0.57427572D+05 0.57427572D+05 0.11420419D+01  1  2 12  1  7  1       -2 0.269442392348D-04 0.100000000000D+01
-.536867105395D-06 0.000000000000D+00 0.000000000000D+00 0.870523989590D-07 0.000000000000D+00  7 -2 2 23 -11 11 23 21 2 0.66907689D-02 0.15096428D+00 0.28827008D+05 0.28827008D+05 0.28827008D+05 0.11689465D+01  1  2  4  1  7  1       -2 -.263082980521D-03 0.100000000000D+01
-.473959691677D-06 0.000000000000D+00 -.424715335336D-06 0.870523989590D-07 0.000000000000D+00  7 -2 2 23 -11 11 23 21 2 0.12193519D-01 0.15096428D+00 0.28827008D+05 0.28827008D+05 0.28827008D+05 0.11689465D+01  1  2  5  1  7  1       -2 -.938693696025D-04 0.100000000000D+01
0.670849465785D-06 0.000000000000D+00 0.358235088604D-06 0.870523989590D-07 0.000000000000D+00  7 -2 2 23 -11 11 23 21 2 0.66907689D-02 0.15096428D+00 0.28827008D+05 0.28827008D+05 0.28827008D+05 0.11689465D+01  1  2  6  1  7  1       -2 0.328738853929D-03 0.100000000000D+01
0.544093536404D-08 0.000000000000D+00 0.000000000000D+00 0.870523989590D-07 0.000000000000D+00  7 21 2 23 -11 11 23 2 2 0.10254677D-01 0.15096428D+00 0.57427572D+05 0.57427572D+05 0.57427572D+05 0.11420419D+01  1  2 12  3  7  1       -2 0.197608587236D-04 0.100000000000D+01
-.812195789264D-08 0.000000000000D+00 -.278834387739D-07 0.870523989590D-07 0.000000000000D+00  7 21 2 23 -11 11 23 2 2 0.12193519D-01 0.15096428D+00 0.28827008D+05 0.28827008D+05 0.28827008D+05 0.11689465D+01  1  2  5  3  7  1       -2 -.232451437132D-04 0.100000000000D+01
  </mgrwgt>
  </event>
  <event>
  8     66 0.53686478E-06 0.25525466E+03 0.75467711E-02 0.84940817E-01
       -2 -1    0    0    0  501 0.00000000E+00 0.00000000E+00 0.13490338E+03 0.13490376E+03 0.32000000E+00 0.0000E+00 0.9000E+01
        2 -1    0    0  501    0 0.00000000E+00 0.00000000E+00 -.98179914E+03 0.98179919E+03 0.32000000E+00 0.0000E+00 0.9000E+01
       25  2    1    2    0    0 0.56638999E+02 0.17403476E+03 -.13584794E+03 0.37683485E+03 0.30008959E+03 0.0000E+00 0.0000E+00
       23  2    1    2    0    0 -.56638999E+02 -.17403476E+03 -.71104781E+03 0.73986811E+03 0.91212686E+02 0.0000E+00 0.0000E+00
       23  1    3    3    0    0 0.81778747E+02 0.19437066E+03 -.15639597E+03 0.27792565E+03 0.91188000E+02 0.0000E+00 0.9000E+01
      -11  1    4    4    0    0 -.27954841E+02 -.11540027E+03 -.59490870E+03 0.60664244E+03 0.51099893E-03 0.0000E+00 0.9000E+01
       11  1    4    4    0    0 -.28684158E+02 -.58634488E+02 -.11613912E+03 0.13322567E+03 0.51099893E-03 0.0000E+00 0.9000E+01
       23  1    3    3    0    0 -.25139747E+02 -.20335902E+02 0.20548025E+02 0.98909193E+02 0.91188000E+02 0.0000E+00 0.9000E+01
#aMCatNLO 1  0  0  1  2 0.12624489D+04 0.00000000D+00  -5  7  0 0.00000000D+00 0.00000000D+00 0.00000000D+00 0.00000000D+00 0.00000000D+00
  <mgrwgt>
 0.3324482738D-03    3    2    0
 0.363934427852660D+03 0.000000000000000D+00 0.000000000000000D+00 0.363934427852660D+03
 0.363934427852660D+03 0.000000000000000D+00 0.000000000000000D+00 -.363934427852660D+03
 0.244424960489570D+03 0.817787468681465D+02 0.194370663476788D+03 0.834301606530672D+02
 0.238523406933210D+03 -.279548412742255D+02 -.115400273744377D+03 -.206868845706842D+03
 0.692649114963119D+02 -.286841581332604D+02 -.586344881181385D+02 -.231698908047039D+02
 0.175655576786228D+03 -.251397474606606D+02 -.203359016142726D+02 0.146608575858479D+03
 0.000000000000000D+00 0.000000000000000D+00 -.000000000000000D+00 -.000000000000000D+00
 0.968648004146678D+03 0.000000000000000D+00 0.000000000000000D+00 0.968648004146678D+03
 0.238864079778337D+04 0.000000000000000D+00 0.000000000000000D+00 -.238864079778337D+04
 0.766594820202168D+03 -.976901677460728D+02 0.750232235001897D+03 0.834301606530672D+02
 0.301965087891268D+03 -.123898447304618D+03 0.181761848957927D+03 -.206868845706842D+03
 0.571803750564685D+02 -.511298103045611D+02 0.108854926354345D+02 -.231698908047039D+02
 0.331507248111842D+03 -.115167621747020D+03 0.258503672299970D+03 0.146608575858479D+03
 0.190004127066830D+04 0.387886047102272D+03 -.120138324889523D+04 -.141999279363669D+04
0.530512000092D-05 0.000000000000D+00 0.000000000000D+00 0.963104609220D-06 0.000000000000D+00  7 -2 2 23 -11 11 23 21 0 0.20754400D-01 0.15104605D+00 0.65154942D+05 0.65154942D+05 0.65154942D+05 0.11373173D+01  1  2  2  1  7  1       -2 0.328011149695D-03 0.100000000000D+01
-.249641411040D-06 0.000000000000D+00 -.203730576737D-07 0.963104609220D-06 0.000000000000D+00  7 -2 2 23 -11 11 23 21 2 0.20754400D-01 0.15104605D+00 0.65154942D+05 0.65154942D+05 0.65154942D+05 0.11373173D+01  1  2  3  1  7  1       -2 -.199651835204D-04 0.100000000000D+01
0.305122489535D-06 0.000000000000D+00 0.000000000000D+00 0.963104609220D-06 0.000000000000D+00  7 -2 2 23 -11 11 23 21 2 0.20754400D-01 0.15104605D+00 0.65154942D+05 0.65154942D+05 0.65154942D+05 0.11373173D+01  1  2 15  1  7  1       -2 0.244023075914D-04 0.100000000000D+01
  </mgrwgt>
  </event>
  <event>
  8     66 0.53686478E-06 0.30486111E+03 0.75467711E-02 0.10016239E+00
       -2 -1    0    0    0  501 0.00000000E+00 0.00000000E+00 0.14617493E+03 0.14617528E+03 0.32000000E+00 0.0000E+00 0.9000E+01
        2 -1    0    0  501    0 0.00000000E+00 0.00000000E+00 -.70723583E+03 0.70723590E+03 0.32000000E+00 0.0000E+00 0.9000E+01
       25  2    1    2    0    0 0.17639139E+03 -.14882236E+03 -.42974036E+03 0.57303705E+03 0.30072024E+03 0.0000E+00 0.0000E+00
       23  2    1    2    0    0 -.17639139E+03 0.14882236E+03 -.13132053E+03 0.28037414E+03 0.90014207E+02 0.0000E+00 0.0000E+00
       23  1    3    3    0    0 0.11149063E+03 -.20747834E+03 -.27918472E+03 0.37647946E+03 0.91188000E+02 0.0000E+00 0.9000E+01
      -11  1    4    4    0    0 -.15776040E+03 0.13293790E+03 -.14515604E+03 0.25225206E+03 0.51099893E-03 0.0000E+00 0.9000E+01
       11  1    4    4    0    0 -.18630992E+02 0.15884458E+02 0.13835504E+02 0.28122074E+02 0.51099893E-03 0.0000E+00 0.9000E+01
       23  1    3    3    0    0 0.64900757E+02 0.58655984E+02 -.15055564E+03 0.19655759E+03 0.91188000E+02 0.0000E+00 0.9000E+01
#aMCatNLO 1  0  0  1  2 0.21263350D+02 0.00000000D+00  -5  7  0 0.00000000D+00 0.00000000D+00 0.00000000D+00 0.00000000D+00 0.00000000D+00
  <mgrwgt>
 0.3515359673D-03    4    2    0
 0.321528116244067D+03 0.000000000000000D+00 0.000000000000000D+00 0.321528116244067D+03
 0.321528116244067D+03 0.000000000000000D+00 0.000000000000000D+00 -.321528116244067D+03
 0.256046271015073D+03 0.111490632919179D+03 -.207478340143035D+03 -.420359215373741D+02
 0.208120765221779D+03 -.157760398283565D+03 0.132937898335012D+03 0.274485853220114D+02
 0.493926514410709D+02 -.186309919377555D+02 0.158844582816155D+02 0.428976006426238D+02
 0.129496544810211D+03 0.649007573021413D+02 0.586559835264069D+02 -.283102644272610D+02
 0.000000000000000D+00 -.000000000000000D+00 -.000000000000000D+00 -.000000000000000D+00
 0.322190504431716D+03 0.000000000000000D+00 0.000000000000000D+00 0.322190504431716D+03
 0.553964533164582D+03 0.000000000000000D+00 0.000000000000000D+00 -.553964533164582D+03
 0.259483579313820D+03 0.119998262394760D+03 -.207002113303835D+03 -.420359215373741D+02
 0.203271818371057D+03 -.150971313872688D+03 0.133317927133791D+03 0.274485853220114D+02
 0.488339100981518D+02 -.170099894105442D+02 0.159751962377153D+02 0.428976006426238D+02
 0.131818376515209D+03 0.692131565272469D+02 0.588973762972410D+02 -.283102644272610D+02
 0.232747353298059D+03 -.212301156387744D+02 -.118838636491185D+01 -.231774028732867D+03
0.426768057688D-05 0.000000000000D+00 0.000000000000D+00 0.112754581170D-06 0.000000000000D+00  7 -2 2 23 -11 11 23 21 0 0.22488484D-01 0.10880554D+00 0.92940298D+05 0.92940298D+05 0.92940298D+05 0.11243406D+01  1  2  2  1  7  1       -2 0.350371552611D-03 0.100000000000D+01
-.236276609193D-06 0.000000000000D+00 -.163890171213D-07 0.112754581170D-06 0.000000000000D+00  7 -2 2 23 -11 11 23 21 2 0.22488484D-01 0.10880554D+00 0.92940298D+05 0.92940298D+05 0.92940298D+05 0.11243406D+01  1  2  3  1  7  1       -2 -.245218641029D-04 0.100000000000D+01
0.282787561482D-06 0.000000000000D+00 0.000000000000D+00 0.112754581170D-06 0.000000000000D+00  7 -2 2 23 -11 11 23 21 2 0.22488484D-01 0.10880554D+00 0.92940298D+05 0.92940298D+05 0.92940298D+05 0.11243406D+01  1  2 15  1  7  1       -2 0.293489828567D-04 0.100000000000D+01
-.352914151670D-07 0.000000000000D+00 0.000000000000D+00 0.112754581170D-06 0.000000000000D+00  7 -2 2 23 -11 11 23 21 2 0.22488484D-01 0.10880554D+00 0.92940298D+05 0.92940298D+05 0.92940298D+05 0.11243406D+01  1  2  4  1  7  1       -2 -.366270402170D-05 0.100000000000D+01
  </mgrwgt>
  </event>
  <event>
  8     66 0.53686478E-06 0.15349837E+03 0.75467711E-02 0.98560736E-01
       -2 -1    0    0    0  501 0.00000000E+00 0.00000000E+00 0.11285023E+03 0.11285068E+03 0.32000000E+00 0.0000E+00 0.9000E+01
        2 -1    0    0  501    0 0.00000000E+00 0.00000000E+00 -.11447809E+04 0.11447809E+04 0.32000000E+00 0.0000E+00 0.9000E+01
       25  2    1    2    0    0 0.25349496E+03 -.12539435E+03 -.70262325E+03 0.81476698E+03 0.30030379E+03 0.0000E+00 0.0000E+00
       23  2    1    2    0    0 -.25349496E+03 0.12539435E+03 -.32930741E+03 0.44286464E+03 0.87762653E+02 0.0000E+00 0.0000E+00
       23  1    3    3    0    0 0.27134264E+03 -.58073717E+02 -.56110440E+03 0.63257630E+03 0.91188000E+02 0.0000E+00 0.9000E+01
      -11  1    4    4    0    0 0.47888752E+01 0.84118470E+01 -.25618476E+02 0.27386106E+02 0.51099893E-03 0.0000E+00 0.9000E+01
       11  1    4    4    0    0 -.25828383E+03 0.11698250E+03 -.30368894E+03 0.41547854E+03 0.51099893E-03 0.0000E+00 0.9000E+01
       23  1    3    3    0    0 -.17847679E+02 -.67320629E+02 -.14151885E+03 0.18219068E+03 0.91188000E+02 0.0000E+00 0.9000E+01
#aMCatNLO 1  0  0  2  1 0.16643059D+02 0.00000000D+00  -5  7  0 0.00000000D+00 0.00000000D+00 0.00000000D+00 0.00000000D+00 0.00000000D+00
  <mgrwgt>
 0.4937434635D-03    9    2    0
 0.359428855100532D+03 0.000000000000000D+00 0.000000000000000D+00 0.359428855100532D+03
 0.359428855100532D+03 0.000000000000000D+00 0.000000000000000D+00 -.359428855100532D+03
 0.301209998556881D+03 0.271342636099936D+03 -.580737165932415D+02 -.735719318899635D+02
 0.111359202071110D+02 0.478887522128855D+01 0.841184697944759D+01 -.550601701490553D+01
 0.290924081226906D+03 -.258283832307441D+03 0.116982498450734D+03 0.651258632382345D+02
 0.115587710210166D+03 -.178476790137841D+02 -.673206288369405D+02 0.139520856666345D+02
 0.000000000000000D+00 -.000000000000000D+00 0.000000000000000D+00 -.000000000000000D+00
 0.361499507598829D+03 0.000000000000000D+00 0.000000000000000D+00 0.361499507598829D+03
 0.394599188401027D+03 0.000000000000000D+00 0.000000000000000D+00 -.394599188401027D+03
 0.303439049798774D+03 0.272250765333450D+03 -.650130541669286D+02 -.735719318899635D+02
 0.109601859036774D+02 0.482206161256891D+01 0.815825799293754D+01 -.550601701490553D+01
 0.287540607400356D+03 -.257415029659481D+03 0.110343669265840D+03 0.651258632382345D+02
 0.117110502104506D+03 -.174981869410454D+02 -.699912217245608D+02 0.139520856666345D+02
 0.370483507925431D+02 -.215961034549277D+01 0.165023486327123D+02 -.330996808021979D+02
0.457026760339D-05 0.000000000000D+00 0.000000000000D+00 0.686713300435D-07 0.000000000000D+00  7 -2 2 23 -11 11 23 21 0 0.17361612D-01 0.17612018D+00 0.12251738D+06 0.12251738D+06 0.12251738D+06 0.11145555D+01  1  2  2  2  7  2        2 0.300959654570D-03 0.100000000000D+01
-.253686764951D-06 0.000000000000D+00 -.175510309761D-07 0.686713300435D-07 0.000000000000D+00  7 -2 2 23 -11 11 23 21 2 0.17361612D-01 0.17612018D+00 0.12251738D+06 0.12251738D+06 0.12251738D+06 0.11145555D+01  1  2  3  2  7  2        2 -.207523761889D-04 0.100000000000D+01
0.289591931461D-06 0.000000000000D+00 0.000000000000D+00 0.686713300435D-07 0.000000000000D+00  7 -2 2 23 -11 11 23 21 2 0.17361612D-01 0.17612018D+00 0.12251738D+06 0.12251738D+06 0.12251738D+06 0.11145555D+01  1  2 15  2  7  2        2 0.236895318687D-04 0.100000000000D+01
0.519332492872D-04 0.000000000000D+00 0.000000000000D+00 0.686713300435D-07 0.000000000000D+00  7 -2 2 23 -11 11 23 21 2 0.17361612D-01 0.19383144D+00 0.12846825D+06 0.12846825D+06 0.12846825D+06 0.11129019D+01  1  2 12  2  7  2        2 0.363878198457D-02 0.100000000000D+01
-.526331075935D-04 0.000000000000D+00 0.000000000000D+00 0.686713300435D-07 0.000000000000D+00  7 -2 2 23 -11 11 23 21 2 0.17361612D-01 0.17612018D+00 0.12251738D+06 0.12251738D+06 0.12251738D+06 0.11145555D+01  1  2  4  2  7  2        2 -.430555393374D-02 0.100000000000D+01
-.739069831243D-04 0.000000000000D+00 -.587608395715D-05 0.686713300435D-07 0.000000000000D+00  7 -2 2 23 -11 11 23 21 2 0.17361612D-01 0.19382061D+00 0.12251738D+06 0.12251738D+06 0.12251738D+06 0.11145555D+01  1  2  5  2  7  2        2 -.519814562304D-02 0.100000000000D+01
0.741562463150D-04 0.000000000000D+00 0.584924113291D-05 0.686713300435D-07 0.000000000000D+00  7 -2 2 23 -11 11 23 21 2 0.17361612D-01 0.17612018D+00 0.12251738D+06 0.12251738D+06 0.12251738D+06 0.11145555D+01  1  2  6  2  7  2        2 0.606621445382D-02 0.100000000000D+01
0.815816767105D-06 0.000000000000D+00 0.000000000000D+00 0.686713300435D-07 0.000000000000D+00  7 -2 21 23 -11 11 23 -2 2 0.17361612D-01 0.19383144D+00 0.12846825D+06 0.12846825D+06 0.12846825D+06 0.11129019D+01  1  2 12  4  7  2        2 0.283351744137D-04 0.100000000000D+01
-.113838772641D-05 0.000000000000D+00 -.919302682178D-07 0.686713300435D-07 0.000000000000D+00  7 -2 21 23 -11 11 23 -2 2 0.17361612D-01 0.19382061D+00 0.12251738D+06 0.12251738D+06 0.12251738D+06 0.11145555D+01  1  2  5  4  7  2        2 -.397854027999D-04 0.100000000000D+01
  </mgrwgt>
  </event>
  <event>
  8     66 0.53686478E-06 0.33214251E+03 0.75467711E-02 0.90395533E-01
       -2 -1    0    0    0  501 0.00000000E+00 0.00000000E+00 0.21289848E+03 0.21289872E+03 0.32000000E+00 0.0000E+00 0.9000E+01
        2 -1    0    0  501    0 0.00000000E+00 0.00000000E+00 -.63220003E+03 0.63220011E+03 0.32000000E+00 0.0000E+00 0.9000E+01
       25  2    1    2    0    0 0.22308685E+03 -.14856811E+03 -.38808065E+03 0.55856449E+03 0.29924483E+03 0.0000E+00 0.0000E+00
       23  2    1    2    0    0 -.22308685E+03 0.14856811E+03 -.31220895E+02 0.28653434E+03 0.96368856E+02 0.0000E+00 0.0000E+00
       23  1    3    3    0    0 0.36855823E+01 0.28523743E+02 -.15251113E+03 0.18000578E+03 0.91188000E+02 0.0000E+00 0.9000E+01
      -13  1    4    4    0    0 -.84308204E+02 0.84899102E+02 0.27802851E+02 0.12283623E+03 0.10565837E+00 0.0000E+00 0.9000E+01
       13  1    4    4    0    0 -.13877865E+03 0.63669004E+02 -.59023745E+02 0.16369810E+03 0.10565837E+00 0.0000E+00 0.9000E+01
       23  1    3    3    0    0 0.21940127E+03 -.17709185E+03 -.23556953E+03 0.37855870E+03 0.91188000E+02 0.0000E+00 0.9000E+01
#aMCatNLO 1  0  0  1  1 0.60019888D+03 0.00000000D+00  -5  7  0 0.00000000D+00 0.00000000D+00 0.00000000D+00 0.00000000D+00 0.00000000D+00
  <mgrwgt>
 0.1547095881D-03    5    2    0
 0.366871311684304D+03 0.000000000000000D+00 0.000000000000000D+00 0.366871311684304D+03
 0.366871311684304D+03 0.000000000000000D+00 0.000000000000000D+00 -.366871311684304D+03
 0.120170919848233D+03 0.368558341568351D+01 0.285237423549273D+02 -.727915601572485D+02
 0.157366538640269D+03 -.843081484897105D+02 0.848991261160454D+02 0.102217914117771D+03
 0.154812217133477D+03 -.138778706416989D+03 0.636689822358118D+02 0.255647006645047D+02
 0.301392947746628D+03 0.219401271491016D+03 -.177091850706785D+03 -.549910546250277D+02
 0.000000000000000D+00 0.000000000000000D+00 0.000000000000000D+00 0.000000000000000D+00
 0.911588211982903D+03 0.000000000000000D+00 0.000000000000000D+00 0.911588211982903D+03
 0.679775428192107D+03 0.000000000000000D+00 0.000000000000000D+00 -.679775428192107D+03
 0.131728156270811D+03 -.731908777796074D+01 -.607031756539921D+02 -.727915601572485D+02
 0.142825324918726D+03 -.974225783017232D+02 -.214339149152952D+02 0.102217914117771D+03
 0.162214890555071D+03 -.152628614615683D+03 -.486273873267453D+02 0.255647006645047D+02
 0.511185706670261D+03 0.183902288927834D+03 -.464920968981078D+03 -.549910546250277D+02
 0.643409561760140D+03 0.734679917675331D+02 0.595685446877110D+03 0.231812783790796D+03
0.298029427681D-05 0.000000000000D+00 0.000000000000D+00 0.148174926491D-07 0.000000000000D+00  7 -2 2 23 -13 13 23 21 0 0.32753637D-01 0.97261567D-01 0.11031865D+06 0.11031865D+06 0.11031865D+06 0.11182389D+01  1  2  2  1  7  1       -2 0.145687601086D-03 0.100000000000D+01
-.163580994623D-06 0.000000000000D+00 -.114451147524D-07 0.148174926491D-07 0.000000000000D+00  7 -2 2 23 -13 13 23 21 2 0.32753637D-01 0.97261567D-01 0.11031865D+06 0.11031865D+06 0.11031865D+06 0.11182389D+01  1  2  3  1  7  1       -2 -.999920550839D-05 0.100000000000D+01
0.179217583634D-06 0.000000000000D+00 0.000000000000D+00 0.148174926491D-07 0.000000000000D+00  7 -2 2 23 -13 13 23 21 2 0.32753637D-01 0.97261567D-01 0.11031865D+06 0.11031865D+06 0.11031865D+06 0.11182389D+01  1  2 15  1  7  1       -2 0.109550223337D-04 0.100000000000D+01
0.112352417544D-05 0.000000000000D+00 -.108209853311D-05 0.148174926491D-07 0.000000000000D+00  7 -2 2 23 -13 13 23 21 2 0.13746381D+00 0.97261567D-01 0.11031865D+06 0.11031865D+06 0.11031865D+06 0.11182389D+01  1  2  5  1  7  1       -2 0.312853320409D-05 0.100000000000D+01
0.197326098136D-06 0.000000000000D+00 -.186319844511D-06 0.148174926491D-07 0.000000000000D+00  7 21 2 23 -13 13 23 2 2 0.13746381D+00 0.97261567D-01 0.11031865D+06 0.11031865D+06 0.11031865D+06 0.11182389D+01  1  2  5  3  7  1       -2 0.493763701390D-05 0.100000000000D+01
  </mgrwgt>
  </event>
  <event>
  8     66 0.53686478E-06 0.30716681E+03 0.75467711E-02 0.86312500E-01
       -2 -1    0    0    0  501 0.00000000E+00 0.00000000E+00 0.41210249E+03 0.41210261E+03 0.32000000E+00 0.0000E+00 0.9000E+01
        2 -1    0    0  501    0 0.00000000E+00 0.00000000E+00 -.33127352E+03 0.33127368E+03 0.32000000E+00 0.0000E+00 0.9000E+01
       25  2    1    2    0    0 0.19389286E+03 -.14451213E+03 0.22561309E+03 0.44655281E+03 0.30004992E+03 0.0000E+00 0.0000E+00
       23  2    1    2    0    0 -.19389286E+03 0.14451213E+03 -.14478413E+03 0.29682348E+03 0.93078135E+02 0.0000E+00 0.0000E+00
       23  1    3    3    0    0 -.14153120E+01 -.11583540E+03 0.16404553E+03 0.22055845E+03 0.91188000E+02 0.0000E+00 0.9000E+01
      -11  1    4    4    0    0 -.16433074E+03 0.14605601E+03 -.96312147E+02 0.24002704E+03 0.51099893E-03 0.0000E+00 0.9000E+01
       11  1    4    4    0    0 -.29562119E+02 -.15438886E+01 -.48471979E+02 0.56796436E+02 0.51099893E-03 0.0000E+00 0.9000E+01
       23  1    3    3    0    0 0.19530817E+03 -.28676727E+02 0.61567555E+02 0.22599436E+03 0.91188000E+02 0.0000E+00 0.9000E+01
#aMCatNLO 1  0  0  1  1 0.10406860D+04 0.00000000D+00  -5  7  0 0.00000000D+00 0.00000000D+00 0.00000000D+00 0.00000000D+00 0.00000000D+00
  <mgrwgt>
 0.2111952867D-03    5    2    0
 0.369484433005119D+03 0.000000000000000D+00 0.000000000000000D+00 0.369484433005119D+03
 0.369484433005119D+03 0.000000000000000D+00 0.000000000000000D+00 -.369484433005119D+03
 0.203930504477205D+03 -.141531195590429D+01 -.115835399457120D+03 0.140899100199413D+03
 0.251993324969191D+03 -.164330737281271D+03 0.146056014731167D+03 -.123140915923471D+03
 0.624370872439019D+02 -.295621186028775D+02 -.154388864513708D+01 -.549735155785351D+02
 0.220607949319940D+03 0.195308167840053D+03 -.286767266289100D+02 0.372153313025928D+02
 0.000000000000000D+00 0.000000000000000D+00 -.000000000000000D+00 0.000000000000000D+00
 0.292241447246711D+04 0.000000000000000D+00 0.000000000000000D+00 0.292241447246711D+04
 0.756714415299709D+03 0.000000000000000D+00 0.000000000000000D+00 -.756714415299709D+03
 0.210841067433206D+03 -.105987755180016D+03 0.710826539126855D+02 0.140899100199413D+03
 0.727747558204616D+03 -.411343562697771D+03 0.587579183366306D+03 -.123140915923471D+03
 0.126271773385864D+03 -.771395032418501D+02 0.834983256032602D+02 -.549735155785351D+02
 0.211502553541777D+03 0.863642235409741D+02 0.166055167998154D+03 0.372153313025928D+02
 0.240276593520136D+04 0.508106597578663D+03 -.908215330880405D+03 0.216570005716741D+04
0.736379631579D-05 0.000000000000D+00 0.000000000000D+00 0.237925993642D-06 0.000000000000D+00  7 -2 2 23 -11 11 23 21 0 0.63400404D-01 0.50965179D-01 0.94351448D+05 0.94351448D+05 0.94351448D+05 0.11238001D+01  1  2  2  1  7  1       -2 0.207937291051D-03 0.100000000000D+01
-.392128007526D-06 0.000000000000D+00 -.282789167847D-07 0.237925993642D-06 0.000000000000D+00  7 -2 2 23 -11 11 23 21 2 0.63400404D-01 0.50965179D-01 0.94351448D+05 0.94351448D+05 0.94351448D+05 0.11238001D+01  1  2  3  1  7  1       -2 -.139841678507D-04 0.100000000000D+01
0.483064373306D-06 0.000000000000D+00 0.000000000000D+00 0.237925993642D-06 0.000000000000D+00  7 -2 2 23 -11 11 23 21 2 0.63400404D-01 0.50965179D-01 0.94351448D+05 0.94351448D+05 0.94351448D+05 0.11238001D+01  1  2 15  1  7  1       -2 0.172271634501D-04 0.100000000000D+01
0.429516680409D-05 0.000000000000D+00 -.479494886218D-05 0.237925993642D-06 0.000000000000D+00  7 -2 2 23 -11 11 23 21 2 0.60545960D+00 0.50965179D-01 0.94351448D+05 0.94351448D+05 0.94351448D+05 0.11238001D+01  1  2  5  1  7  1       -2 0.695204176692D-08 0.100000000000D+01
0.431730702121D-06 0.000000000000D+00 -.129379256825D-05 0.237925993642D-06 0.000000000000D+00  7 21 2 23 -11 11 23 2 2 0.60545960D+00 0.50965179D-01 0.94351448D+05 0.94351448D+05 0.94351448D+05 0.11238001D+01  1  2  5  3  7  1       -2 0.804799502229D-08 0.100000000000D+01
  </mgrwgt>
  </event>
  <event>
  8     66 0.53686478E-06 0.26545820E+03 0.75467711E-02 0.81289103E-01
       -2 -1    0    0    0  501 0.00000000E+00 0.00000000E+00 0.17766774E+03 0.17766803E+03 0.32000000E+00 0.0000E+00 0.9000E+01
        2 -1    0    0  501    0 0.00000000E+00 0.00000000E+00 -.44085473E+03 0.44085484E+03 0.32000000E+00 0.0000E+00 0.9000E+01
       25  2    1    2    0    0 0.78086896E+02 -.16769312E+03 -.18227684E+03 0.39621840E+03 0.29924175E+03 0.0000E+00 0.0000E+00
       23  2    1    2    0    0 -.78086896E+02 0.16769312E+03 -.80910151E+02 0.22230448E+03 0.93028384E+02 0.0000E+00 0.0000E+00
       23  1    3    3    0    0 0.13784808E+02 -.20716905E+03 -.82151362E+02 0.24119108E+03 0.91188000E+02 0.0000E+00 0.9000E+01
      -13  1    4    4    0    0 -.30309888E+02 0.46355094E+02 0.18430614E+02 0.58371079E+02 0.10565837E+00 0.0000E+00 0.9000E+01
       13  1    4    4    0    0 -.47777008E+02 0.12133803E+03 -.99340766E+02 0.16393340E+03 0.10565837E+00 0.0000E+00 0.9000E+01
       23  1    3    3    0    0 0.64302088E+02 0.39475929E+02 -.10012548E+03 0.15502732E+03 0.91188000E+02 0.0000E+00 0.9000E+01
#aMCatNLO 1  0  0  2  1 0.19389194D+04 0.00000000D+00  -5  7  0 0.00000000D+00 0.00000000D+00 0.00000000D+00 0.00000000D+00 0.00000000D+00
  <mgrwgt>
 0.3402730884D-03    3    2    0
 0.279867446103565D+03 0.000000000000000D+00 0.000000000000000D+00 0.279867446103565D+03
 0.279867446103565D+03 0.000000000000000D+00 0.000000000000000D+00 -.279867446103565D+03
 0.227895438032835D+03 0.137848101854576D+02 -.207169056014435D+03 0.226283134682300D+02
 0.731676721677874D+02 -.303098661444466D+02 0.463550030243989D+02 0.478124874835698D+02
 0.134441148844304D+03 -.477770332881845D+02 0.121338126614763D+03 -.326930668854402D+02
 0.124230633162204D+03 0.643020892471734D+02 0.394759263752729D+02 -.377477340663595D+02
 0.000000000000000D+00 0.000000000000000D+00 0.000000000000000D+00 0.000000000000000D+00
 0.331615976745791D+04 0.000000000000000D+00 0.000000000000000D+00 0.331615976745791D+04
 0.141641979186587D+04 0.000000000000000D+00 0.000000000000000D+00 -.141641979186587D+04
 0.132418605206272D+04 -.765391531932098D+03 -.107648372556656D+04 0.226283134682300D+02
 0.214307205305660D+03 -.174628076824649D+03 -.114658532482672D+03 0.478124874835698D+02
 0.282191722665454D+03 -.256935172793425D+03 -.112016287655561D+03 -.326930668854402D+02
 0.197411094271813D+03 -.971685720896746D+02 -.140674325903855D+03 -.377477340663595D+02
 0.271448348501813D+04 0.129412335363985D+04 0.144383287160865D+04 0.189973997559204D+04
0.334404888497D-05 0.000000000000D+00 0.000000000000D+00 0.490256090108D-07 0.000000000000D+00  7 -2 2 23 -13 13 23 21 0 0.27333529D-01 0.67823836D-01 0.70468058D+05 0.70468058D+05 0.70468058D+05 0.11344137D+01  1  2  2  2  7  2        2 0.337529898974D-03 0.100000000000D+01
-.185149370279D-06 0.000000000000D+00 -.128420282266D-07 0.490256090108D-07 0.000000000000D+00  7 -2 2 23 -13 13 23 21 2 0.27333529D-01 0.67823836D-01 0.70468058D+05 0.70468058D+05 0.70468058D+05 0.11344137D+01  1  2  3  2  7  2        2 -.240494288635D-04 0.100000000000D+01
0.206268366280D-06 0.000000000000D+00 0.000000000000D+00 0.490256090108D-07 0.000000000000D+00  7 -2 2 23 -13 13 23 21 2 0.27333529D-01 0.67823836D-01 0.70468058D+05 0.70468058D+05 0.70468058D+05 0.11344137D+01  1  2 15  2  7  2        2 0.267926182744D-04 0.100000000000D+01
  </mgrwgt>
  </event>
  <event>
  8     66 0.53686478E-06 0.28363376E+03 0.75467711E-02 0.90243952E-01
       -2 -1    0    0    0  501 0.00000000E+00 0.00000000E+00 0.54532691E+03 0.54532701E+03 0.32000000E+00 0.0000E+00 0.9000E+01
        2 -1    0    0  501    0 0.00000000E+00 0.00000000E+00 -.69594618E+03 0.69594625E+03 0.32000000E+00 0.0000E+00 0.9000E+01
       25  2    1    2    0    0 0.36988473E+03 0.40242718E+03 -.26568926E+03 0.67520463E+03 0.29419070E+03 0.0000E+00 0.0000E+00
       23  2    1    2    0    0 -.36988473E+03 -.40242718E+03 0.11506999E+03 0.56606862E+03 0.91816296E+02 0.0000E+00 0.0000E+00
       23  1    3    3    0    0 0.91282536E+02 0.26956663E+03 -.12454357E+03 0.32376692E+03 0.91188000E+02 0.0000E+00 0.9000E+01
      -11  1    4    4    0    0 -.19830442E+03 -.17819121E+03 0.16893764E+02 0.26713695E+03 0.51099893E-03 0.0000E+00 0.9000E+01
       11  1    4    4    0    0 -.17158031E+03 -.22423597E+03 0.98176227E+02 0.29893167E+03 0.51099893E-03 0.0000E+00 0.9000E+01
       23  1    3    3    0    0 0.27860219E+03 0.13286056E+03 -.14114569E+03 0.35143772E+03 0.91188000E+02 0.0000E+00 0.9000E+01
#aMCatNLO 1  0  0  2  1 0.29346446D+03 0.00000000D+00  -5  7  0 0.00000000D+00 0.00000000D+00 0.00000000D+00 0.00000000D+00 0.00000000D+00
  <mgrwgt>
 0.4969688878D-03    9    2    0
 0.616050553118998D+03 0.000000000000000D+00 0.000000000000000D+00 0.616050553118998D+03
 0.616050553118998D+03 0.000000000000000D+00 0.000000000000000D+00 -.616050553118998D+03
 0.310952206726053D+03 0.912825359685983D+02 0.269566625263027D+03 -.858915403008154D+02
 0.271190795232706D+03 -.198304420034621D+03 -.178191211817358D+03 0.496759141309092D+02
 0.313158652367881D+03 -.171580310432793D+03 -.224235970329543D+03 0.135450242653980D+03
 0.336799451911356D+03 0.278602194498816D+03 0.132860556883873D+03 -.992346164840739D+02
 0.000000000000000D+00 -.000000000000000D+00 0.000000000000000D+00 -.000000000000000D+00
 0.750504025032678D+03 0.000000000000000D+00 0.000000000000000D+00 0.750504025032678D+03
 0.816958667560676D+03 0.000000000000000D+00 0.000000000000000D+00 -.816958667560676D+03
 0.257081332681750D+03 0.958431539727320D+02 0.203008111687039D+03 -.858915403008154D+02
 0.317890962936827D+03 -.193574810450272D+03 -.247216020175276D+03 0.496759141309092D+02
 0.372409342319234D+03 -.166076033796439D+03 -.304566414776920D+03 0.135450242653980D+03
 0.319186372871448D+03 0.283868962313406D+03 0.559963606781691D+02 -.992346164840739D+02
 0.300894681784095D+03 -.200612720394270D+02 0.292777962586988D+03 -.664546425279981D+02
0.634752414414D-04 0.000000000000D+00 0.000000000000D+00 0.137365416925D-07 0.000000000000D+00  7 -2 2 23 -11 11 23 21 0 0.83896461D-01 0.10706866D+00 0.34202322D+06 0.34202322D+06 0.34202322D+06 0.10803646D+01  1  2  2  2  7  2        2 0.407510197334D-03 0.100000000000D+01
-.351480326919D-05 0.000000000000D+00 -.243761640550D-06 0.137365416925D-07 0.000000000000D+00  7 -2 2 23 -11 11 23 21 2 0.83896461D-01 0.10706866D+00 0.34202322D+06 0.34202322D+06 0.34202322D+06 0.10803646D+01  1  2  3  2  7  2        2 -.263375768853D-04 0.100000000000D+01
0.380702557870D-05 0.000000000000D+00 0.000000000000D+00 0.137365416925D-07 0.000000000000D+00  7 -2 2 23 -11 11 23 21 2 0.83896461D-01 0.10706866D+00 0.34202322D+06 0.34202322D+06 0.34202322D+06 0.10803646D+01  1  2 15  2  7  2        2 0.285272947599D-04 0.100000000000D+01
0.203535251425D-04 0.000000000000D+00 0.000000000000D+00 0.137365416925D-07 0.000000000000D+00  7 -2 2 23 -11 11 23 21 2 0.83896461D-01 0.15051819D+00 0.56252289D+06 0.56252289D+06 0.56252289D+06 0.10649126D+01  1  2 12  2  7  2        2 0.929376254041D-04 0.100000000000D+01
-.304346054305D-04 0.000000000000D+00 0.000000000000D+00 0.137365416925D-07 0.000000000000D+00  7 -2 2 23 -11 11 23 21 2 0.83896461D-01 0.10706866D+00 0.34202322D+06 0.34202322D+06 0.34202322D+06 0.10803646D+01  1  2  4  2  7  2        2 -.228056508177D-03 0.100000000000D+01
-.517078353207D-04 0.000000000000D+00 -.253744384815D-04 0.137365416925D-07 0.000000000000D+00  7 -2 2 23 -11 11 23 21 2 0.83896461D-01 0.16367861D+00 0.34202322D+06 0.34202322D+06 0.34202322D+06 0.10803646D+01  1  2  5  2  7  2        2 -.219564026101D-03 0.100000000000D+01
0.591913001122D-04 0.000000000000D+00 0.232487440227D-04 0.137365416925D-07 0.000000000000D+00  7 -2 2 23 -11 11 23 21 2 0.83896461D-01 0.10706866D+00 0.34202322D+06 0.34202322D+06 0.34202322D+06 0.10803646D+01  1  2  6  2  7  2        2 0.443539879262D-03 0.100000000000D+01
0.862178829177D-06 0.000000000000D+00 0.000000000000D+00 0.137365416925D-07 0.000000000000D+00  7 -2 21 23 -11 11 23 -2 2 0.83896461D-01 0.15051819D+00 0.56252289D+06 0.56252289D+06 0.56252289D+06 0.10649126D+01  1  2 12  4  7  2        2 0.276285447023D-05 0.100000000000D+01
-.163435665959D-05 0.000000000000D+00 -.126191365464D-05 0.137365416925D-07 0.000000000000D+00  7 -2 21 23 -11 11 23 -2 2 0.83896461D-01 0.16367861D+00 0.34202322D+06 0.34202322D+06 0.34202322D+06 0.10803646D+01  1  2  5  4  7  2        2 -.435085228496D-05 0.100000000000D+01
  </mgrwgt>
  </event>
  <event>
  9     66 0.53686478E-06 0.27333485E+03 0.75467711E-02 0.92469278E-01
       21 -1    0    0  502  501 0.00000000E+00 0.00000000E+00 0.27778755E+03 0.27778856E+03 0.75000000E+00 0.0000E+00 0.9000E+01
        2 -1    0    0  501    0 0.00000000E+00 0.00000000E+00 -.24679819E+04 0.24679819E+04 0.32000000E+00 0.0000E+00 0.9000E+01
       25  2    1    2    0    0 -.13965341E+03 0.42156532E+03 -.10894989E+03 0.54690010E+03 0.30001541E+03 0.0000E+00 0.0000E+00
       23  2    1    2    0    0 0.14872225E+03 0.67225046E+02 -.35760551E+03 0.40724274E+03 0.10643042E+03 0.0000E+00 0.0000E+00
       23  1    3    3    0    0 -.18888851E+03 0.33928451E+03 -.11278190E+03 0.41452124E+03 0.91188000E+02 0.0000E+00 0.9000E+01
      -13  1    4    4    0    0 0.51749760E+02 0.81764637E+02 -.18083160E+03 0.20509406E+03 0.10565837E+00 0.0000E+00 0.9000E+01
       13  1    4    4    0    0 0.96972490E+02 -.14539591E+02 -.17677391E+03 0.20214869E+03 0.10565837E+00 0.0000E+00 0.9000E+01
       23  1    3    3    0    0 0.49235105E+02 0.82280805E+02 0.38320112E+01 0.13237886E+03 0.91188000E+02 0.0000E+00 0.9000E+01
        2  1    1    2  502    0 -.90688406E+01 -.48879036E+03 -.17236389E+04 0.17916276E+04 0.32000000E+00 0.0000E+00 0.9000E+01
#aMCatNLO 2  0  0  1  1 0.48887449D+03 0.00000000D+00  -5  7  0 0.00000000D+00 0.00000000D+00 0.00000000D+00 0.00000000D+00 0.00000000D+00
  <mgrwgt>
 0.1571766066D-04    1    2    0
 0.336792352577859D+03 0.000000000000000D+00 0.000000000000000D+00 0.336792352577859D+03
 0.336792352577859D+03 0.000000000000000D+00 0.000000000000000D+00 -.336792352577859D+03
 0.265397217267135D+03 -.192967943650312D+03 0.119414245099814D+03 0.103072995395255D+03
 0.105236823471148D+03 0.503104919840294D+02 0.419165292989313D+01 -.923367394720963D+02
 0.173150182330041D+03 0.951309337716614D+02 -.113798608714335D+03 -.893362621522742D+02
 0.129800482087395D+03 0.475265178946211D+02 -.980728931537244D+01 0.786000062291154D+02
 0.000000000000000D+00 -.000000000000000D+00 -.000000000000000D+00 -.000000000000000D+00
 0.474174537254358D+03 0.000000000000000D+00 0.000000000000000D+00 0.474174537254358D+03
 0.144583046532223D+04 0.000000000000000D+00 0.000000000000000D+00 -.144583046532223D+04
 0.411985687786602D+03 -.188888548434189D+03 0.339284584807023D+03 0.103072995395255D+03
 0.133751785983654D+03 0.517497503161250D+02 0.817644796944132D+02 -.923367394720963D+02
 0.132650070598226D+03 0.969725510896917D+02 -.145395264548632D+02 -.893362621522742D+02
 0.153907246035824D+03 0.492350876566393D+02 0.822808252423225D+02 0.786000062291154D+02
 0.108771021217228D+04 -.906884062826675D+01 -.488790363288896D+03 -.971655928067868D+03
0.523521489226D-06 0.000000000000D+00 0.000000000000D+00 0.428982375096D-08 0.224668225899D-13  7 21 2 23 -13 13 23 2 2 0.42736623D-01 0.37968958D+00 0.36899733D+06 0.36899733D+06 0.36899733D+06 0.10779625D+01  1  2  1  3  7  1       -2 0.157176606586D-04 0.100000000000D+01
  </mgrwgt>
  </event>
  <event>
  8     66 0.53686478E-06 0.24034862E+03 0.75467711E-02 0.95434374E-01
       -2 -1    0    0    0  501 0.00000000E+00 0.00000000E+00 0.56463339E+03 0.56463348E+03 0.32000000E+00 0.0000E+00 0.9000E+01
        2 -1    0    0  501    0 0.00000000E+00 0.00000000E+00 -.72560513E+03 0.72560520E+03 0.32000000E+00 0.0000E+00 0.9000E+01
       25  2    1    2    0    0 0.15274130E+03 -.37644913E+03 -.52627497E+03 0.73606491E+03 0.31588346E+03 0.0000E+00 0.0000E+00
       23  2    1    2    0    0 -.15274130E+03 0.37644913E+03 0.36530323E+03 0.55417377E+03 0.92834621E+02 0.0000E+00 0.0000E+00
       23  1    3    3    0    0 -.18474615E+02 -.27743395E+03 -.25466374E+03 0.38791724E+03 0.91188000E+02 0.0000E+00 0.9000E+01
      -13  1    4    4    0    0 -.73555217E+02 0.24787767E+03 0.27841807E+03 0.37996098E+03 0.10565837E+00 0.0000E+00 0.9000E+01
       13  1    4    4    0    0 -.79186087E+02 0.12857145E+03 0.86885157E+02 0.17421279E+03 0.10565837E+00 0.0000E+00 0.9000E+01
       23  1    3    3    0    0 0.17121592E+03 -.99015176E+02 -.27161123E+03 0.34814768E+03 0.91188000E+02 0.0000E+00 0.9000E+01
#aMCatNLO 1  0  0  1  2 0.12322959D+02 0.00000000D+00  -5  7  0 0.00000000D+00 0.00000000D+00 0.00000000D+00 0.00000000D+00 0.00000000D+00
  <mgrwgt>
 0.1886221425D-03    6    2    0
 0.640078893839401D+03 0.000000000000000D+00 0.000000000000000D+00 0.640078893839401D+03
 0.640078893839401D+03 0.000000000000000D+00 0.000000000000000D+00 -.640078893839401D+03
 0.358949619073376D+03 -.184745930871307D+02 -.277433938481920D+03 -.207891021637773D+03
 0.417962686923459D+03 -.735552115801578D+02 0.247877832903731D+03 0.328388517559043D+03
 0.186509631826289D+03 -.791860950059371D+02 0.128571301050625D+03 0.109475228558053D+03
 0.316735849855679D+03 0.171215899673226D+03 -.990151954724365D+02 -.229972724479322D+03
 0.000000000000000D+00 -.000000000000000D+00 0.000000000000000D+00 -.000000000000000D+00
 0.645475629770368D+03 0.000000000000000D+00 0.000000000000000D+00 0.645475629770368D+03
 0.647182008259635D+03 0.000000000000000D+00 0.000000000000000D+00 -.647182008259635D+03
 0.361266934858386D+03 -.169051562479158D+02 -.280524661469558D+03 -.207891021637773D+03
 0.415533947488309D+03 -.717389240812573D+02 0.244300982032932D+03 0.328388517559043D+03
 0.185069630941695D+03 -.783763799549670D+02 0.126976713196601D+03 0.109475228558053D+03
 0.318346584190139D+03 0.172599819221434D+03 -.101740575592117D+03 -.229972724479322D+03
 0.124405405514738D+02 -.557935893729432D+01 0.109875418321418D+02 -.170637848926694D+01
0.236115509201D-04 0.000000000000D+00 0.000000000000D+00 0.172521968207D-08 0.000000000000D+00  7 -2 2 23 -13 13 23 21 0 0.86866688D-01 0.11163157D+00 0.21158819D+06 0.21158819D+06 0.21158819D+06 0.10959516D+01  1  2  2  1  7  1       -2 0.135139416462D-03 0.100000000000D+01
-.113765442349D-05 0.000000000000D+00 -.906745725973D-07 0.172521968207D-08 0.000000000000D+00  7 -2 2 23 -13 13 23 21 2 0.86866688D-01 0.11163157D+00 0.21158819D+06 0.21158819D+06 0.21158819D+06 0.10959516D+01  1  2  3  1  7  1       -2 -.782079031141D-05 0.100000000000D+01
0.141856621725D-05 0.000000000000D+00 0.000000000000D+00 0.172521968207D-08 0.000000000000D+00  7 -2 2 23 -13 13 23 21 2 0.86866688D-01 0.11163157D+00 0.21158819D+06 0.21158819D+06 0.21158819D+06 0.10959516D+01  1  2 15  1  7  1       -2 0.975191472814D-05 0.100000000000D+01
0.102053643346D-04 0.000000000000D+00 0.000000000000D+00 0.172521968207D-08 0.000000000000D+00  7 -2 2 23 -13 13 23 21 2 0.88076414D-01 0.11163157D+00 0.21703681D+06 0.21703681D+06 0.21703681D+06 0.10951090D+01  1  2 12  1  7  1       -2 0.677900878818D-04 0.100000000000D+01
-.679742630010D-05 0.000000000000D+00 0.000000000000D+00 0.172521968207D-08 0.000000000000D+00  7 -2 2 23 -13 13 23 21 2 0.86866688D-01 0.11163157D+00 0.21158819D+06 0.21158819D+06 0.21158819D+06 0.10959516D+01  1  2  4  1  7  1       -2 -.467288173392D-04 0.100000000000D+01
0.482403119206D-06 0.000000000000D+00 0.000000000000D+00 0.172521968207D-08 0.000000000000D+00  7 21 2 23 -13 13 23 2 2 0.88076414D-01 0.11163157D+00 0.21703681D+06 0.21703681D+06 0.21703681D+06 0.10951090D+01  1  2 12  3  7  1       -2 0.304903311261D-04 0.100000000000D+01
  </mgrwgt>
  </event>
  <event>
  8     66 0.53686478E-06 0.22295686E+03 0.75467711E-02 0.98406984E-01
       -2 -1    0    0    0  501 0.00000000E+00 0.00000000E+00 0.71545052E+03 0.71545059E+03 0.32000000E+00 0.0000E+00 0.9000E+01
        2 -1    0    0  501    0 0.00000000E+00 0.00000000E+00 -.25016904E+03 0.25016925E+03 0.32000000E+00 0.0000E+00 0.9000E+01
       25  2    1    2    0    0 -.10111826E+03 -.35042126E+02 0.65588483E+03 0.72944793E+03 0.30075990E+03 0.0000E+00 0.0000E+00
       23  2    1    2    0    0 0.10111826E+03 0.35042126E+02 -.19060335E+03 0.23617191E+03 0.89412964E+02 0.0000E+00 0.0000E+00
       23  1    3    3    0    0 0.59065639E+02 -.60658329E+02 0.18331596E+03 0.22155851E+03 0.91188000E+02 0.0000E+00 0.9000E+01
      -11  1    4    4    0    0 0.10667661E+03 0.51181563E+02 -.14301362E+03 0.18561343E+03 0.51099893E-03 0.0000E+00 0.9000E+01
       11  1    4    4    0    0 -.55583468E+01 -.16139436E+02 -.47589736E+02 0.50558476E+02 0.51099893E-03 0.0000E+00 0.9000E+01
       23  1    3    3    0    0 -.16018390E+03 0.25616203E+02 0.47256887E+03 0.50788942E+03 0.91188000E+02 0.0000E+00 0.9000E+01
#aMCatNLO 1  0  0  1  2 0.25535336D+03 0.00000000D+00  -5  7  0 0.00000000D+00 0.00000000D+00 0.00000000D+00 0.00000000D+00 0.00000000D+00
  <mgrwgt>
 0.1347012926D-03    4    2    0
 0.423064656573733D+03 0.000000000000000D+00 0.000000000000000D+00 0.423064656573733D+03
 0.423064656573733D+03 0.000000000000000D+00 0.000000000000000D+00 -.423064656573733D+03
 0.152042687330309D+03 0.590656391224526D+02 -.606583294849235D+02 0.873701594697920D+02
 0.290468126174459D+03 0.106676605006614D+03 0.511815626017729D+02 -.265277744858489D+03
 0.838676653400153D+02 -.555834675611282D+01 -.161394361148634D+02 -.821121712830556D+02
 0.319750834302683D+03 -.160183897372953D+03 0.256162029980139D+02 0.260019756671752D+03
 0.000000000000000D+00 0.000000000000000D+00 0.000000000000000D+00 -.000000000000000D+00
 0.551975335946296D+03 0.000000000000000D+00 0.000000000000000D+00 0.551975335946296D+03
 0.590017551957555D+03 0.000000000000000D+00 0.000000000000000D+00 -.590017551957555D+03
 0.155114204325318D+03 0.223433903221437D+02 -.872490296943857D+02 0.873701594697920D+02
 0.268272792036910D+03 0.398761405831253D+02 0.281112829103747D+01 -.265277744858489D+03
 0.918189668819578D+02 -.265626230546794D+02 -.313487011358878D+02 -.821121712830556D+02
 0.368615373023756D+03 -.242481758231331D+03 -.339759466512402D+02 0.260019756671752D+03
 0.258171551635910D+03 0.206824850380741D+03 0.149762549190476D+03 -.380422160112589D+02
0.165159649494D-04 0.000000000000D+00 0.000000000000D+00 0.143236712134D-06 0.000000000000D+00  7 -2 2 23 -11 11 23 21 0 0.11006933D+00 0.38487566D-01 0.49709761D+05 0.49709761D+05 0.49709761D+05 0.11475178D+01  1  2  2  1  7  1       -2 0.184567187808D-03 0.100000000000D+01
-.459818131285D-06 0.000000000000D+00 -.634256541590D-07 0.143236712134D-06 0.000000000000D+00  7 -2 2 23 -11 11 23 21 2 0.11006933D+00 0.38487566D-01 0.49709761D+05 0.49709761D+05 0.49709761D+05 0.11475178D+01  1  2  3  1  7  1       -2 -.676636669959D-05 0.100000000000D+01
0.100451817634D-05 0.000000000000D+00 0.000000000000D+00 0.143236712134D-06 0.000000000000D+00  7 -2 2 23 -11 11 23 21 2 0.11006933D+00 0.38487566D-01 0.49709761D+05 0.49709761D+05 0.49709761D+05 0.11475178D+01  1  2 15  1  7  1       -2 0.147817971391D-04 0.100000000000D+01
-.393340830562D-05 0.000000000000D+00 0.000000000000D+00 0.143236712134D-06 0.000000000000D+00  7 -2 2 23 -11 11 23 21 2 0.11006933D+00 0.38487566D-01 0.49709761D+05 0.49709761D+05 0.49709761D+05 0.11475178D+01  1  2  4  1  7  1       -2 -.578813256028D-04 0.100000000000D+01
  </mgrwgt>
  </event>
  <event>
  8     66 0.53686478E-06 0.34184630E+03 0.75467711E-02 0.95849354E-01
       -2 -1    0    0    0  501 0.00000000E+00 0.00000000E+00 0.19022278E+03 0.19022305E+03 0.32000000E+00 0.0000E+00 0.9000E+01
        2 -1    0    0  501    0 0.00000000E+00 0.00000000E+00 -.66029036E+03 0.66029044E+03 0.32000000E+00 0.0000E+00 0.9000E+01
       25  2    1    2    0    0 -.24999964E+03 -.10724936E+03 -.36290247E+03 0.54394942E+03 0.30030073E+03 0.0000E+00 0.0000E+00
       23  2    1    2    0    0 0.24999964E+03 0.10724936E+03 -.10716512E+03 0.30656407E+03 0.92167872E+02 0.0000E+00 0.0000E+00
       23  1    3    3    0    0 -.27870982E+03 -.92200094E+02 -.29197576E+03 0.42396358E+03 0.91188000E+02 0.0000E+00 0.9000E+01
      -11  1    4    4    0    0 0.25231649E+03 0.99165030E+02 -.87009537E+02 0.28472438E+03 0.51099893E-03 0.0000E+00 0.9000E+01
       11  1    4    4    0    0 -.23168475E+01 0.80843275E+01 -.20155585E+02 0.21839683E+02 0.51099893E-03 0.0000E+00 0.9000E+01
       23  1    3    3    0    0 0.28710173E+02 -.15049263E+02 -.70926704E+02 0.11998585E+03 0.91188000E+02 0.0000E+00 0.9000E+01
#aMCatNLO 1  0  0  2  2 0.19068098D+03 0.00000000D+00  -5  7  0 0.00000000D+00 0.00000000D+00 0.00000000D+00 0.00000000D+00 0.00000000D+00
  <mgrwgt>
 0.2888306579D-03    7    2    0
 0.354404309340421D+03 0.000000000000000D+00 0.000000000000000D+00 0.354404309340421D+03
 0.354404309340421D+03 0.000000000000000D+00 0.000000000000000D+00 -.354404309340421D+03
 0.315089848378508D+03 -.278709816242741D+03 -.922000940211822D+02 -.691833954039094D+02
 0.283943450841315D+03 0.252316491025582D+03 0.991650297479442D+02 0.844190056047848D+02
 0.128390897187820D+02 -.231684747171949D+01 0.808432752136681D+01 -.970144788817590D+01
 0.969362297422384D+02 0.287101726888786D+02 -.150492632481289D+02 -.553416231269954D+01
 0.000000000000000D+00 -.000000000000000D+00 0.000000000000000D+00 -.000000000000000D+00
 0.452494405430861D+03 0.000000000000000D+00 0.000000000000000D+00 0.452494405430861D+03
 0.473330363261913D+03 0.000000000000000D+00 0.000000000000000D+00 -.473330363261913D+03
 0.317216692505674D+03 -.243521182224818D+03 -.167994851910564D+03 -.691833954039094D+02
 0.298424623000835D+03 0.284725988143070D+03 0.293564095529862D+02 0.844190056047848D+02
 0.110605067667310D+02 -.986805633580728D+00 0.521947635797328D+01 -.970144788817590D+01
 0.107306960523512D+03 0.400765565679139D+02 -.395319502927709D+02 -.553416231269954D+01
 0.191815985896021D+03 -.802945568525845D+02 0.172950916292376D+03 -.208359578310516D+02
0.485906806676D-05 0.000000000000D+00 0.000000000000D+00 0.437811902706D-06 0.000000000000D+00  7 -2 2 23 -11 11 23 21 0 0.29265069D-01 0.10158316D+00 0.11685889D+06 0.11685889D+06 0.11685889D+06 0.11162115D+01  1  2  2  2  7  2        2 0.275286903511D-03 0.100000000000D+01
-.269521030577D-06 0.000000000000D+00 -.186601007983D-07 0.437811902706D-06 0.000000000000D+00  7 -2 2 23 -11 11 23 21 2 0.29265069D-01 0.10158316D+00 0.11685889D+06 0.11685889D+06 0.11685889D+06 0.11162115D+01  1  2  3  2  7  2        2 -.190247188096D-04 0.100000000000D+01
0.306277907050D-06 0.000000000000D+00 0.000000000000D+00 0.437811902706D-06 0.000000000000D+00  7 -2 2 23 -11 11 23 21 2 0.29265069D-01 0.10158316D+00 0.11685889D+06 0.11685889D+06 0.11685889D+06 0.11162115D+01  1  2 15  2  7  2        2 0.216192816077D-04 0.100000000000D+01
-.187295902299D-05 0.000000000000D+00 0.000000000000D+00 0.437811902706D-06 0.000000000000D+00  7 -2 2 23 -11 11 23 21 2 0.29265069D-01 0.10158316D+00 0.11685889D+06 0.11685889D+06 0.11685889D+06 0.11162115D+01  1  2  4  2  7  2        2 -.132206821405D-03 0.100000000000D+01
-.313659575689D-05 0.000000000000D+00 -.183315777330D-05 0.437811902706D-06 0.000000000000D+00  7 -2 2 23 -11 11 23 21 2 0.29265069D-01 0.16283236D+00 0.11685889D+06 0.11685889D+06 0.11685889D+06 0.11162115D+01  1  2  5  2  7  2        2 -.120041015785D-03 0.100000000000D+01
0.376169342332D-05 0.000000000000D+00 0.164645208991D-05 0.437811902706D-06 0.000000000000D+00  7 -2 2 23 -11 11 23 21 2 0.29265069D-01 0.10158316D+00 0.11685889D+06 0.11685889D+06 0.11685889D+06 0.11162115D+01  1  2  6  2  7  2        2 0.265527181584D-03 0.100000000000D+01
-.917156384784D-07 0.000000000000D+00 -.987780295419D-07 0.437811902706D-06 0.000000000000D+00  7 -2 21 23 -11 11 23 -2 2 0.29265069D-01 0.16283236D+00 0.11685889D+06 0.11685889D+06 0.11685889D+06 0.11162115D+01  1  2  5  4  7  2        2 -.233015277209D-05 0.100000000000D+01
  </mgrwgt>
  </event>
  <event>
  8     66 0.53686478E-06 0.19488397E+03 0.75467711E-02 0.10287403E+00
       -2 -1    0    0    0  501 0.00000000E+00 0.00000000E+00 0.41509787E+03 0.41509800E+03 0.32000000E+00 0.0000E+00 0.9000E+01
        2 -1    0    0  501    0 0.00000000E+00 0.00000000E+00 -.17006334E+03 0.17006364E+03 0.32000000E+00 0.0000E+00 0.9000E+01
       25  2    1    2    0    0 -.88859433E+02 0.43203484E+02 0.13785450E+02 0.31508973E+03 0.29887951E+03 0.0000E+00 0.0000E+00
       23  2    1    2    0    0 0.88859433E+02 -.43203484E+02 0.23124909E+03 0.27007190E+03 0.98489344E+02 0.0000E+00 0.0000E+00
       23  1    3    3    0    0 -.95841648E+02 -.39468390E+02 0.94891286E+02 0.16752010E+03 0.91188000E+02 0.0000E+00 0.9000E+01
      -13  1    4    4    0    0 0.13331514E+02 -.50802744E+02 0.45795755E+02 0.69684363E+02 0.10565837E+00 0.0000E+00 0.9000E+01
       13  1    4    4    0    0 0.75527919E+02 0.75992604E+01 0.18545333E+03 0.20038754E+03 0.10565837E+00 0.0000E+00 0.9000E+01
       23  1    3    3    0    0 0.69822143E+01 0.82671873E+02 -.81105836E+02 0.14756964E+03 0.91188000E+02 0.0000E+00 0.9000E+01
#aMCatNLO 1  0  0  1  2 0.99276580D+02 0.00000000D+00  -5  7  0 0.00000000D+00 0.00000000D+00 0.00000000D+00 0.00000000D+00 0.00000000D+00
  <mgrwgt>
 0.2212391227D-03    4    2    0
 0.265693532505475D+03 0.000000000000000D+00 0.000000000000000D+00 0.265693532505475D+03
 0.265693532505475D+03 0.000000000000000D+00 0.000000000000000D+00 -.265693532505475D+03
 0.140716055491477D+03 -.958416566877482D+02 -.394683839834963D+02 0.272466592109835D+02
 0.556186188160598D+02 0.133314631298413D+02 -.508027726261080D+02 0.182970255321411D+02
 0.135149462925711D+03 0.755279938400162D+02 0.759927735241523D+01 0.111817487269800D+03
 0.199902927777701D+03 0.698219971789074D+01 0.826718792571891D+02 -.157361172012924D+03
 0.000000000000000D+00 -.000000000000000D+00 -.000000000000000D+00 -.000000000000000D+00
 0.285566104409572D+03 0.000000000000000D+00 0.000000000000000D+00 0.285566104409572D+03
 0.431592072742894D+03 0.000000000000000D+00 0.000000000000000D+00 -.431592072742894D+03
 0.130546044879647D+03 -.879832707055497D+02 -.156071178477417D+02 0.272466592109835D+02
 0.483451037120441D+02 0.163432626353906D+02 -.416577204853449D+02 0.182970255321411D+02
 0.143250238883460D+03 0.835931541080825D+02 0.320883945858764D+02 0.111817487269800D+03
 0.218439829606247D+03 0.191014705481414D+02 0.119470930271860D+03 -.157361172012924D+03
 0.176576960071068D+03 -.310546165860648D+02 -.942944865246501D+02 -.146025968333322D+03
0.410105313744D-05 0.000000000000D+00 0.000000000000D+00 0.159749183779D-08 0.000000000000D+00  7 -2 2 23 -13 13 23 21 0 0.63861244D-01 0.26163623D-01 0.37979763D+05 0.37979763D+05 0.37979763D+05 0.11579498D+01  1  2  2  1  7  1       -2 0.240005820936D-03 0.100000000000D+01
-.201225526831D-06 0.000000000000D+00 -.157491238799D-07 0.159749183779D-08 0.000000000000D+00  7 -2 2 23 -13 13 23 21 2 0.63861244D-01 0.26163623D-01 0.37979763D+05 0.37979763D+05 0.37979763D+05 0.11579498D+01  1  2  3  1  7  1       -2 -.157902477591D-04 0.100000000000D+01
0.250956119501D-06 0.000000000000D+00 0.000000000000D+00 0.159749183779D-08 0.000000000000D+00  7 -2 2 23 -13 13 23 21 2 0.63861244D-01 0.26163623D-01 0.37979763D+05 0.37979763D+05 0.37979763D+05 0.11579498D+01  1  2 15  1  7  1       -2 0.196926273023D-04 0.100000000000D+01
-.288886988636D-06 0.000000000000D+00 0.000000000000D+00 0.159749183779D-08 0.000000000000D+00  7 -2 2 23 -13 13 23 21 2 0.63861244D-01 0.26163623D-01 0.37979763D+05 0.37979763D+05 0.37979763D+05 0.11579498D+01  1  2  4  1  7  1       -2 -.226690778093D-04 0.100000000000D+01
  </mgrwgt>
  </event>
  <event>
  8     66 0.53686478E-06 0.42350107E+03 0.75467711E-02 0.90679519E-01
       -2 -1    0    0    0  501 0.00000000E+00 0.00000000E+00 0.25983178E+03 0.25983198E+03 0.32000000E+00 0.0000E+00 0.9000E+01
        2 -1    0    0  501    0 0.00000000E+00 0.00000000E+00 -.19381834E+04 0.19381834E+04 0.32000000E+00 0.0000E+00 0.9000E+01
       25  2    1    2    0    0 -.44912799E+03 -.48435443E+03 -.65996176E+03 0.98075223E+03 0.30001707E+03 0.0000E+00 0.0000E+00
       23  2    1    2    0    0 0.44912799E+03 0.48435443E+03 -.10183898E+04 0.12172632E+04 0.91085504E+02 0.0000E+00 0.0000E+00
       23  1    3    3    0    0 -.28986464E+03 -.19467322E+03 -.45685641E+03 0.58219602E+03 0.91188000E+02 0.0000E+00 0.9000E+01
      -11  1    4    4    0    0 0.38552951E+03 0.39346533E+03 -.78672026E+03 0.96040446E+03 0.51099893E-03 0.0000E+00 0.9000E+01
       11  1    4    4    0    0 0.63598481E+02 0.90889102E+02 -.23166958E+03 0.25685869E+03 0.51099893E-03 0.0000E+00 0.9000E+01
       23  1    3    3    0    0 -.15926335E+03 -.28968121E+03 -.20310535E+03 0.39855621E+03 0.91188000E+02 0.0000E+00 0.9000E+01
#aMCatNLO 1  0  0  2  1 0.70250834D+02 0.00000000D+00  -5  7  0 0.00000000D+00 0.00000000D+00 0.00000000D+00 0.00000000D+00 0.00000000D+00
  <mgrwgt>
 0.4048397180D-03    9    2    0
 0.709649126998562D+03 0.000000000000000D+00 0.000000000000000D+00 0.709649126998562D+03
 0.709649126998562D+03 0.000000000000000D+00 0.000000000000000D+00 -.709649126998562D+03
 0.361382894971987D+03 -.289864638863092D+03 -.194673215806766D+03 -.190571671177819D+02
 0.557029201720148D+03 0.385529505145651D+03 0.393465325274468D+03 -.826654101652645D+02
 0.123833278137348D+03 0.635984807973851D+02 0.908891022635143D+02 -.550371247817220D+02
 0.377052879167641D+03 -.159263347079944D+03 -.289681211731216D+03 0.156759702064768D+03
 0.000000000000000D+00 0.000000000000000D+00 0.000000000000000D+00 -.000000000000000D+00
 0.738311853660124D+03 0.000000000000000D+00 0.000000000000000D+00 0.738311853660124D+03
 0.754908652289292D+03 0.000000000000000D+00 0.000000000000000D+00 -.754908652289292D+03
 0.378535999624159D+03 -.301950621738001D+03 -.208415205973414D+03 -.190571671177819D+02
 0.530484735292292D+03 0.367765835485437D+03 0.373267698294455D+03 -.826654101652645D+02
 0.118527840644280D+03 0.596397059201235D+02 0.863879006650706D+02 -.550371247817220D+02
 0.393487213377913D+03 -.171849502712608D+03 -.303991907744119D+03 0.156759702064768D+03
 0.721847170107734D+02 0.463945830450487D+02 0.527515147580081D+02 -.165967986291684D+02
0.309520007630D-04 0.000000000000D+00 0.000000000000D+00 0.365385388240D-05 0.000000000000D+00  7 -2 2 23 -11 11 23 21 0 0.39974137D-01 0.29818208D+00 0.46621135D+06 0.46621135D+06 0.46621135D+06 0.10706646D+01  1  2  2  2  7  2        2 0.166493708034D-03 0.100000000000D+01
-.171644477436D-05 0.000000000000D+00 -.118863832779D-06 0.365385388240D-05 0.000000000000D+00  7 -2 2 23 -11 11 23 21 2 0.39974137D-01 0.29818208D+00 0.46621135D+06 0.46621135D+06 0.46621135D+06 0.10706646D+01  1  2  3  2  7  2        2 -.105839031411D-04 0.100000000000D+01
0.189575783457D-05 0.000000000000D+00 0.000000000000D+00 0.365385388240D-05 0.000000000000D+00  7 -2 2 23 -11 11 23 21 2 0.39974137D-01 0.29818208D+00 0.46621135D+06 0.46621135D+06 0.46621135D+06 0.10706646D+01  1  2 15  2  7  2        2 0.116895792976D-04 0.100000000000D+01
0.619798182408D-04 0.000000000000D+00 0.000000000000D+00 0.365385388240D-05 0.000000000000D+00  7 -2 2 23 -11 11 23 21 2 0.39974137D-01 0.32290593D+00 0.51710459D+06 0.51710459D+06 0.51710459D+06 0.10674795D+01  1  2 12  2  7  2        2 0.307926622423D-03 0.100000000000D+01
-.552454777937D-04 0.000000000000D+00 0.000000000000D+00 0.365385388240D-05 0.000000000000D+00  7 -2 2 23 -11 11 23 21 2 0.39974137D-01 0.29818208D+00 0.46621135D+06 0.46621135D+06 0.46621135D+06 0.10706646D+01  1  2  4  2  7  2        2 -.340653421935D-03 0.100000000000D+01
-.221475003690D-03 0.000000000000D+00 -.399450932883D-04 0.365385388240D-05 0.000000000000D+00  7 -2 2 23 -11 11 23 21 2 0.39974137D-01 0.32319722D+00 0.46621135D+06 0.46621135D+06 0.46621135D+06 0.10706646D+01  1  2  5  2  7  2        2 -.111003200159D-02 0.100000000000D+01
0.224094640761D-03 0.000000000000D+00 0.398158277988D-04 0.365385388240D-05 0.000000000000D+00  7 -2 2 23 -11 11 23 21 2 0.39974137D-01 0.29818208D+00 0.46621135D+06 0.46621135D+06 0.46621135D+06 0.10706646D+01  1  2  6  2  7  2        2 0.138180733087D-02 0.100000000000D+01
0.825819110116D-06 0.000000000000D+00 0.000000000000D+00 0.365385388240D-05 0.000000000000D+00  7 -2 21 23 -11 11 23 -2 2 0.39974137D-01 0.32290593D+00 0.51710459D+06 0.51710459D+06 0.51710459D+06 0.10674795D+01  1  2 12  4  7  2        2 0.711835592714D-06 0.100000000000D+01
-.288884350947D-05 0.000000000000D+00 -.536848982406D-06 0.365385388240D-05 0.000000000000D+00  7 -2 21 23 -11 11 23 -2 2 0.39974137D-01 0.32319722D+00 0.46621135D+06 0.46621135D+06 0.46621135D+06 0.10706646D+01  1  2  5  4  7  2        2 -.252003150960D-05 0.100000000000D+01
  </mgrwgt>
  </event>
  <event>
  8     66 0.53686478E-06 0.34621671E+03 0.75467711E-02 0.95628354E-01
       -2 -1    0    0    0  501 0.00000000E+00 0.00000000E+00 0.91805286E+03 0.91805292E+03 0.32000000E+00 0.0000E+00 0.9000E+01
        2 -1    0    0  501    0 0.00000000E+00 0.00000000E+00 -.18831515E+03 0.18831542E+03 0.32000000E+00 0.0000E+00 0.9000E+01
       25  2    1    2    0    0 -.19669154E+03 0.22105017E+03 0.14658640E+03 0.44629561E+03 0.30023567E+03 0.0000E+00 0.0000E+00
       23  2    1    2    0    0 0.19669154E+03 -.22105017E+03 0.58315131E+03 0.66007273E+03 0.89887830E+02 0.0000E+00 0.0000E+00
       23  1    3    3    0    0 -.13330176E+03 0.23234341E+03 0.17290156E+03 0.33160672E+03 0.91188000E+02 0.0000E+00 0.9000E+01
      -11  1    4    4    0    0 0.10206313E+03 -.89203978E+02 0.17883950E+03 0.22440543E+03 0.51099893E-03 0.0000E+00 0.9000E+01
       11  1    4    4    0    0 0.94628410E+02 -.13184619E+03 0.40431181E+03 0.43566730E+03 0.51099893E-03 0.0000E+00 0.9000E+01
       23  1    3    3    0    0 -.63389784E+02 -.11293241E+02 -.26315160E+02 0.11468889E+03 0.91188000E+02 0.0000E+00 0.9000E+01
#aMCatNLO 1  0  0  2  1 0.20917508D+03 0.00000000D+00  -5  7  0 0.00000000D+00 0.00000000D+00 0.00000000D+00 0.00000000D+00 0.00000000D+00
  <mgrwgt>
 0.1944404766D-03    3    2    0
 0.415792551090279D+03 0.000000000000000D+00 0.000000000000000D+00 0.415792551090279D+03
 0.415792551090279D+03 0.000000000000000D+00 0.000000000000000D+00 -.415792551090279D+03
 0.289454910623759D+03 -.133301756974891D+03 0.232343407698161D+03 -.609596294839568D+02
 0.141620071080489D+03 0.102063130874326D+03 -.892039779707305D+02 0.410123415957981D+02
 0.224831987045015D+03 0.946284098001380D+02 -.131846188950548D+03 0.155600349988434D+03
 0.175678133431297D+03 -.633897836995725D+02 -.112932407768825D+02 -.135653062100275D+03
 0.000000000000000D+00 0.000000000000000D+00 -.000000000000000D+00 0.000000000000000D+00
 0.804015911223037D+03 0.000000000000000D+00 0.000000000000000D+00 0.804015911223037D+03
 0.457893071900110D+03 0.000000000000000D+00 0.000000000000000D+00 -.457893071900110D+03
 0.364945144689348D+03 -.184572479816474D+03 0.295104440081651D+03 -.609596294839568D+02
 0.112412760310724D+03 0.821602491658429D+02 -.648406506330130D+02 0.410123415957981D+02
 0.191093195812588D+03 0.620416387569666D+02 -.919563789505387D+02 0.155600349988434D+03
 0.189038255748718D+03 -.919644648194947D+02 0.236853276481531D+02 -.135653062100275D+03
 0.404419626561768D+03 0.132335056713160D+03 -.161992738146253D+03 0.346122839322927D+03
0.241444577389D-04 0.000000000000D+00 0.000000000000D+00 0.423801365321D-06 0.000000000000D+00  7 -2 2 23 -11 11 23 21 0 0.14123893D+00 0.28971587D-01 0.11986601D+06 0.11986601D+06 0.11986601D+06 0.11153208D+01  1  2  2  2  7  2        2 0.191977253796D-03 0.100000000000D+01
-.128666907693D-05 0.000000000000D+00 -.927210750992D-07 0.423801365321D-06 0.000000000000D+00  7 -2 2 23 -11 11 23 21 2 0.14123893D+00 0.28971587D-01 0.11986601D+06 0.11986601D+06 0.11986601D+06 0.11153208D+01  1  2  3  2  7  2        2 -.127262004700D-04 0.100000000000D+01
0.153571061942D-05 0.000000000000D+00 0.000000000000D+00 0.423801365321D-06 0.000000000000D+00  7 -2 2 23 -11 11 23 21 2 0.14123893D+00 0.28971587D-01 0.11986601D+06 0.11986601D+06 0.11986601D+06 0.11153208D+01  1  2 15  2  7  2        2 0.151894232612D-04 0.100000000000D+01
  </mgrwgt>
  </event>
  <event>
  9     66 0.53686478E-06 0.32733832E+03 0.75467711E-02 0.99082805E-01
       21 -1    0    0  502  501 0.00000000E+00 0.00000000E+00 0.14426478E+03 0.14426673E+03 0.75000000E+00 0.0000E+00 0.9000E+01
        2 -1    0    0  501    0 0.00000000E+00 0.00000000E+00 -.35465636E+04 0.35465636E+04 0.32000000E+00 0.0000E+00 0.9000E+01
       25  2    1    2    0    0 0.30036154E+03 0.70318238E+02 -.20983368E+03 0.47965898E+03 0.30146451E+03 0.0000E+00 0.0000E+00
       23  2    1    2    0    0 -.26874801E+03 -.56170579E+02 -.30748139E+04 0.30885276E+04 0.95612568E+02 0.0000E+00 0.0000E+00
       23  1    3    3    0    0 0.18272803E+03 0.80833125E+02 -.24222559E+03 0.32697403E+03 0.91188000E+02 0.0000E+00 0.9000E+01
      -13  1    4    4    0    0 -.11421575E+02 -.21223676E+02 -.12482882E+03 0.12713435E+03 0.10565837E+00 0.0000E+00 0.9000E+01
       13  1    4    4    0    0 -.25732643E+03 -.34946903E+02 -.29499851E+04 0.29613933E+04 0.10565837E+00 0.0000E+00 0.9000E+01
       23  1    3    3    0    0 0.11763351E+03 -.10514887E+02 0.32391914E+02 0.15268494E+03 0.91188000E+02 0.0000E+00 0.9000E+01
        2  1    1    2  502    0 -.31613534E+02 -.14147658E+02 -.11765123E+03 0.12264374E+03 0.32000000E+00 0.0000E+00 0.9000E+01
#aMCatNLO 2  0  0  1  2 0.34634835D+02 0.00000000D+00  -5  7  0 0.00000000D+00 0.00000000D+00 0.00000000D+00 0.00000000D+00 0.00000000D+00
  <mgrwgt>
 0.3230318014D-04    1    2    0
 0.696750736250972D+03 0.000000000000000D+00 0.000000000000000D+00 0.696750736250972D+03
 0.696750736250972D+03 0.000000000000000D+00 0.000000000000000D+00 -.696750736250972D+03
 0.261326151720648D+03 0.176745009175800D+03 0.781556073041210D+02 0.150429415366456D+03
 0.317765780558195D+02 -.121365676827137D+02 -.215437664959982D+02 -.199579749219807D+02
 0.635645488862990D+03 -.271672576898217D+03 -.413669587572055D+02 -.573173597783893D+03
 0.464753253862486D+03 0.107064135405131D+03 -.152448820509174D+02 0.442702157339417D+03
 0.000000000000000D+00 -.000000000000000D+00 -.000000000000000D+00 -.000000000000000D+00
 0.709237273710234D+03 0.000000000000000D+00 0.000000000000000D+00 0.709237273710234D+03
 0.721404349953506D+03 0.000000000000000D+00 0.000000000000000D+00 -.721404349953506D+03
 0.266210046711044D+03 0.182728034319796D+03 0.808331249675891D+02 0.150429415366456D+03
 0.312923312819745D+02 -.114212748336272D+02 -.212236593274860D+02 -.199579749219807D+02
 0.629258537724517D+03 -.257326731782157D+03 -.349469199355122D+02 -.573173597783893D+03
 0.467170906727974D+03 0.117633506192741D+03 -.105148873919504D+02 0.442702157339417D+03
 0.367098012182305D+02 -.316135338967535D+02 -.141476583126404D+02 -.121670762432720D+02
0.119457298177D-05 0.000000000000D+00 0.000000000000D+00 0.676800019039D-07 0.125203922927D-11  7 21 2 23 -13 13 23 2 2 0.22194711D-01 0.54562479D+00 0.11808437D+06 0.11808437D+06 0.11808437D+06 0.11158455D+01  1  2  1  3  7  1       -2 0.323031801389D-04 0.100000000000D+01
  </mgrwgt>
  </event>
  <event>
  8     66 0.53686478E-06 0.26930325E+03 0.75467711E-02 0.96674558E-01
       -2 -1    0    0    0  501 0.00000000E+00 0.00000000E+00 0.13085748E+03 0.13085787E+03 0.32000000E+00 0.0000E+00 0.9000E+01
        2 -1    0    0  501    0 0.00000000E+00 0.00000000E+00 -.10375837E+04 0.10375838E+04 0.32000000E+00 0.0000E+00 0.9000E+01
       25  2    1    2    0    0 -.11131901E+03 -.15718633E+03 -.15788849E+03 0.38952474E+03 0.29950172E+03 0.0000E+00 0.0000E+00
       23  2    1    2    0    0 0.11131901E+03 0.15718633E+03 -.74883774E+03 0.77891690E+03 0.94096265E+02 0.0000E+00 0.0000E+00
       23  1    3    3    0    0 0.34239655E+02 0.94735991E+01 -.10669975E+03 0.14478325E+03 0.91188000E+02 0.0000E+00 0.9000E+01
      -11  1    4    4    0    0 0.75618175E+02 0.55947928E+02 -.21954457E+03 0.23884743E+03 0.51099893E-03 0.0000E+00 0.9000E+01
       11  1    4    4    0    0 0.35700836E+02 0.10123840E+03 -.52929317E+03 0.54006946E+03 0.51099893E-03 0.0000E+00 0.9000E+01
       23  1    3    3    0    0 -.14555867E+03 -.16665993E+03 -.51188747E+02 0.24474149E+03 0.91188000E+02 0.0000E+00 0.9000E+01
#aMCatNLO 1  0  0  2  2 0.24135653D+03 0.00000000D+00  -5  7  0 0.00000000D+00 0.00000000D+00 0.00000000D+00 0.00000000D+00 0.00000000D+00
  <mgrwgt>
 0.2938213814D-03    3    2    0
 0.368477746071312D+03 0.000000000000000D+00 0.000000000000000D+00 0.368477746071312D+03
 0.368477746071312D+03 0.000000000000000D+00 0.000000000000000D+00 -.368477746071312D+03
 0.982736711880011D+02 0.342396546984839D+02 0.947359912646873D+01 0.896437786390750D+01
 0.108571640951478D+03 0.756181752593489D+02 0.559479282969665D+02 -.542173598455369D+02
 0.205053962427959D+03 0.357008360827319D+02 0.101238400232847D+03 -.174709370466195D+03
 0.325056217575187D+03 -.145558666040565D+03 -.166659927656283D+03 0.219962352447825D+03
 0.000000000000000D+00 0.000000000000000D+00 -.000000000000000D+00 0.000000000000000D+00
 0.127750975557979D+04 0.000000000000000D+00 0.000000000000000D+00 0.127750975557979D+04
 0.404103208117727D+03 0.000000000000000D+00 0.000000000000000D+00 -.404103208117727D+03
 0.938921824009144D+02 0.535868029163280D+01 0.197842120654760D+02 0.896437786390750D+01
 0.970830903175699D+02 0.447099315755616D+02 0.669822837435213D+02 -.542173598455369D+02
 0.215907115164231D+03 -.275662110078952D+02 0.123824966224563D+03 -.174709370466195D+03
 0.368589321787768D+03 -.249807983469369D+03 -.129442542050722D+03 0.219962352447825D+03
 0.906141254027032D+03 0.227305582610070D+03 -.811489199828383D+02 0.873406547462062D+03
0.479984999758D-05 0.000000000000D+00 0.000000000000D+00 0.815488507259D-07 0.000000000000D+00  7 -2 2 23 -11 11 23 21 0 0.20131954D-01 0.15962830D+00 0.72524239D+05 0.72524239D+05 0.72524239D+05 0.11333540D+01  1  2  2  2  7  2        2 0.288515447911D-03 0.100000000000D+01
-.234784901326D-06 0.000000000000D+00 -.184326878202D-07 0.815488507259D-07 0.000000000000D+00  7 -2 2 23 -11 11 23 21 2 0.20131954D-01 0.15962830D+00 0.72524239D+05 0.72524239D+05 0.72524239D+05 0.11333540D+01  1  2  3  2  7  2        2 -.181277027041D-04 0.100000000000D+01
0.303505858175D-06 0.000000000000D+00 0.000000000000D+00 0.815488507259D-07 0.000000000000D+00  7 -2 2 23 -11 11 23 21 2 0.20131954D-01 0.15962830D+00 0.72524239D+05 0.72524239D+05 0.72524239D+05 0.11333540D+01  1  2 15  2  7  2        2 0.234336362129D-04 0.100000000000D+01
  </mgrwgt>
  </event>
  <event>
  8     66 0.53686478E-06 0.32981602E+03 0.75467711E-02 0.92084793E-01
       -2 -1    0    0    0  501 0.00000000E+00 0.00000000E+00 0.73718789E+02 0.73719484E+02 0.32000000E+00 0.0000E+00 0.9000E+01
        2 -1    0    0  501    0 0.00000000E+00 0.00000000E+00 -.16498926E+04 0.16498926E+04 0.32000000E+00 0.0000E+00 0.9000E+01
       25  2    1    2    0    0 -.11698571E+03 0.22873529E+03 -.11674067E+04 0.12323703E+04 0.29982094E+03 0.0000E+00 0.0000E+00
       23  2    1    2    0    0 0.11698571E+03 -.22873529E+03 -.40876709E+03 0.49124182E+03 0.90678025E+02 0.0000E+00 0.0000E+00
       23  1    3    3    0    0 0.32403997E+02 0.19178070E+03 -.68336613E+03 0.71633398E+03 0.91188000E+02 0.0000E+00 0.9000E+01
      -11  1    4    4    0    0 0.10920885E+03 -.14340778E+03 -.22357998E+03 0.28719396E+03 0.51099893E-03 0.0000E+00 0.9000E+01
       11  1    4    4    0    0 0.77768614E+01 -.85327515E+02 -.18518711E+03 0.20404786E+03 0.51099893E-03 0.0000E+00 0.9000E+01
       23  1    3    3    0    0 -.14938971E+03 0.36954591E+02 -.48404059E+03 0.51603630E+03 0.91188000E+02 0.0000E+00 0.9000E+01
#aMCatNLO 1  0  0  2  2 0.46331874D+03 0.00000000D+00  -5  7  0 0.00000000D+00 0.00000000D+00 0.00000000D+00 0.00000000D+00 0.00000000D+00
  <mgrwgt>
 0.2452993306D-03    3    2    0
 0.348753078161857D+03 0.000000000000000D+00 0.000000000000000D+00 0.348753078161857D+03
 0.348753078161857D+03 0.000000000000000D+00 0.000000000000000D+00 -.348753078161857D+03
 0.225916477370635D+03 0.324039967889692D+02 0.191780700941497D+03 -.699510338883233D+02
 0.204457091387239D+03 0.109208850324157D+03 -.143407776309068D+03 0.964900975411157D+02
 0.857516366730694D+02 0.777686135287535D+01 -.853275151505974D+02 0.347545361540382D+01
 0.181380950892770D+03 -.149389708466002D+03 0.369545905181686D+02 -.300145172681962D+02
 0.000000000000000D+00 -.000000000000000D+00 -.000000000000000D+00 0.000000000000000D+00
 0.843978996754895D+03 0.000000000000000D+00 0.000000000000000D+00 0.843978996754895D+03
 0.544867154659637D+03 0.000000000000000D+00 0.000000000000000D+00 -.544867154659637D+03
 0.399874961202712D+03 0.467884434797925D+02 0.380134749355492D+03 -.699510338883233D+02
 0.155994947018545D+03 0.117494203576779D+03 -.349169972604037D+02 0.964900975411157D+02
 0.468249405893988D+02 0.108242675501084D+02 -.454239090718927D+02 0.347545361540382D+01
 0.234669525190692D+03 -.139826369108791D+03 0.162179684190820D+03 -.300145172681962D+02
 0.551481777413185D+03 -.352805454978894D+02 -.461973527214015D+03 0.299111842095258D+03
0.354332090637D-05 0.000000000000D+00 0.000000000000D+00 0.457360925534D-06 0.000000000000D+00  7 -2 2 23 -11 11 23 21 0 0.11341408D-01 0.25382969D+00 0.10877860D+06 0.10877860D+06 0.10877860D+06 0.11187355D+01  1  2  2  2  7  2        2 0.242708929380D-03 0.100000000000D+01
-.196105155770D-06 0.000000000000D+00 -.136072852583D-07 0.457360925534D-06 0.000000000000D+00  7 -2 2 23 -11 11 23 21 2 0.11341408D-01 0.25382969D+00 0.10877860D+06 0.10877860D+06 0.10877860D+06 0.11187355D+01  1  2  3  2  7  2        2 -.168119900967D-04 0.100000000000D+01
0.226321152325D-06 0.000000000000D+00 0.000000000000D+00 0.457360925534D-06 0.000000000000D+00  7 -2 2 23 -11 11 23 21 2 0.11341408D-01 0.25382969D+00 0.10877860D+06 0.10877860D+06 0.10877860D+06 0.11187355D+01  1  2 15  2  7  2        2 0.194023913172D-04 0.100000000000D+01
  </mgrwgt>
  </event>
  <event>
  8     66 0.53686478E-06 0.32252902E+03 0.75467711E-02 0.92445137E-01
       -2 -1    0    0    0  501 0.00000000E+00 0.00000000E+00 0.50480962E+03 0.50480972E+03 0.32000000E+00 0.0000E+00 0.9000E+01
        2 -1    0    0  501    0 0.00000000E+00 0.00000000E+00 -.88698965E+03 0.88698971E+03 0.32000000E+00 0.0000E+00 0.9000E+01
       25  2    1    2    0    0 0.36231713E+03 0.33313376E+03 0.21263370E+03 0.61451939E+03 0.30028184E+03 0.0000E+00 0.0000E+00
       23  2    1    2    0    0 -.36231713E+03 -.33313376E+03 -.59481373E+03 0.77728004E+03 0.90050425E+02 0.0000E+00 0.0000E+00
       23  1    3    3    0    0 0.14993952E+03 0.23173589E+03 0.10013161E+02 0.29085890E+03 0.91188000E+02 0.0000E+00 0.9000E+01
      -13  1    4    4    0    0 -.39676875E+02 -.64899276E+02 -.13385381E+03 0.15395786E+03 0.10565837E+00 0.0000E+00 0.9000E+01
       13  1    4    4    0    0 -.32264026E+03 -.26823448E+03 -.46095992E+03 0.62332217E+03 0.10565837E+00 0.0000E+00 0.9000E+01
       23  1    3    3    0    0 0.21237761E+03 0.10139787E+03 0.20262054E+03 0.32366049E+03 0.91188000E+02 0.0000E+00 0.9000E+01
#aMCatNLO 1  0  0  1  2 0.16383651D+03 0.00000000D+00  -5  7  0 0.00000000D+00 0.00000000D+00 0.00000000D+00 0.00000000D+00 0.00000000D+00
  <mgrwgt>
 0.4064246830D-03    9    2    0
 0.669149472508193D+03 0.000000000000000D+00 0.000000000000000D+00 0.669149472508193D+03
 0.669149472508193D+03 0.000000000000000D+00 0.000000000000000D+00 -.669149472508193D+03
 0.305345885080605D+03 0.149939517530483D+03 0.231735893268182D+03 0.934744619967505D+02
 0.121887181828382D+03 -.396764851143824D+02 -.648989956102900D+02 -.952385530749427D+02
 0.516603930617611D+03 -.322640646044014D+03 -.268234762859762D+03 -.301384715344747D+03
 0.394461947489788D+03 0.212377613627913D+03 0.101397865201870D+03 0.303148806422939D+03
 0.000000000000000D+00 -.000000000000000D+00 0.000000000000000D+00 0.000000000000000D+00
 0.101463437000446D+04 0.000000000000000D+00 0.000000000000000D+00 0.101463437000446D+04
 0.693853801159525D+03 0.000000000000000D+00 0.000000000000000D+00 -.693853801159525D+03
 0.320272880005150D+03 0.187400436730077D+03 0.224506275169732D+03 0.934744619967505D+02
 0.119533436691829D+03 -.252206554810404D+02 -.676888397939973D+02 -.952385530749427D+02
 0.487900759213926D+03 -.262492723504903D+03 -.279842767112301D+03 -.301384715344747D+03
 0.420583126400526D+03 0.261181037311738D+03 0.919792464741505D+02 0.303148806422939D+03
 0.360197968852559D+03 -.160868095055872D+03 0.310460852624160D+02 0.320780568844939D+03
0.676769147326D-04 0.000000000000D+00 0.000000000000D+00 0.163612852083D-05 0.000000000000D+00  7 -2 2 23 -13 13 23 21 0 0.77663030D-01 0.13645996D+00 0.26973635D+06 0.26973635D+06 0.26973635D+06 0.10879852D+01  1  2  2  1  7  1       -2 0.382427745519D-03 0.100000000000D+01
-.346627466826D-05 0.000000000000D+00 -.259897172314D-06 0.163612852083D-05 0.000000000000D+00  7 -2 2 23 -13 13 23 21 2 0.77663030D-01 0.13645996D+00 0.26973635D+06 0.26973635D+06 0.26973635D+06 0.10879852D+01  1  2  3  1  7  1       -2 -.231855716090D-04 0.100000000000D+01
0.409620346606D-05 0.000000000000D+00 0.000000000000D+00 0.163612852083D-05 0.000000000000D+00  7 -2 2 23 -13 13 23 21 2 0.77663030D-01 0.13645996D+00 0.26973635D+06 0.26973635D+06 0.26973635D+06 0.10879852D+01  1  2 15  1  7  1       -2 0.273991036132D-04 0.100000000000D+01
0.148996853315D-03 0.000000000000D+00 0.000000000000D+00 0.163612852083D-05 0.000000000000D+00  7 -2 2 23 -13 13 23 21 2 0.11859739D+00 0.13645996D+00 0.37064799D+06 0.37064799D+06 0.37064799D+06 0.10778218D+01  1  2 12  1  7  1       -2 0.351529545172D-03 0.100000000000D+01
-.155082939291D-03 0.000000000000D+00 0.000000000000D+00 0.163612852083D-05 0.000000000000D+00  7 -2 2 23 -13 13 23 21 2 0.77663030D-01 0.13645996D+00 0.26973635D+06 0.26973635D+06 0.26973635D+06 0.10879852D+01  1  2  4  1  7  1       -2 -.103733458493D-02 0.100000000000D+01
-.169705961394D-03 0.000000000000D+00 -.250515383283D-04 0.163612852083D-05 0.000000000000D+00  7 -2 2 23 -13 13 23 21 2 0.11984988D+00 0.13645996D+00 0.26973635D+06 0.26973635D+06 0.26973635D+06 0.10879852D+01  1  2  5  1  7  1       -2 -.402977881889D-03 0.100000000000D+01
0.166813001489D-03 0.000000000000D+00 0.228655217605D-04 0.163612852083D-05 0.000000000000D+00  7 -2 2 23 -13 13 23 21 2 0.77663030D-01 0.13645996D+00 0.26973635D+06 0.26973635D+06 0.26973635D+06 0.10879852D+01  1  2  6  1  7  1       -2 0.111579582159D-02 0.100000000000D+01
0.739583606516D-05 0.000000000000D+00 0.000000000000D+00 0.163612852083D-05 0.000000000000D+00  7 21 2 23 -13 13 23 2 2 0.11859739D+00 0.13645996D+00 0.37064799D+06 0.37064799D+06 0.37064799D+06 0.10778218D+01  1  2 12  3  7  1       -2 0.154756189563D-03 0.100000000000D+01
-.762746021934D-05 0.000000000000D+00 -.126646150131D-05 0.163612852083D-05 0.000000000000D+00  7 21 2 23 -13 13 23 2 2 0.11984988D+00 0.13645996D+00 0.26973635D+06 0.26973635D+06 0.26973635D+06 0.10879852D+01  1  2  5  3  7  1       -2 -.161985684016D-03 0.100000000000D+01
  </mgrwgt>
  </event>
  <event>
  8     66 0.53686478E-06 0.67073965E+02 0.75467711E-02 0.10299881E+00
       -2 -1    0    0    0  501 0.00000000E+00 0.00000000E+00 0.51739208E+02 0.51740198E+02 0.32000000E+00 0.0000E+00 0.9000E+01
        2 -1    0    0  501    0 0.00000000E+00 0.00000000E+00 -.24767246E+04 0.24767246E+04 0.32000000E+00 0.0000E+00 0.9000E+01
       25  2    1    2    0    0 -.10119449E+03 -.85388463E+02 -.23039070E+04 0.23271247E+04 0.29998397E+03 0.0000E+00 0.0000E+00
       23  2    1    2    0    0 0.10119449E+03 0.85388463E+02 -.12107832E+03 0.20134005E+03 0.91358312E+02 0.0000E+00 0.0000E+00
       23  1    3    3    0    0 0.25608773E+02 -.20751840E+02 -.16103499E+04 0.16132664E+04 0.91188000E+02 0.0000E+00 0.9000E+01
      -11  1    4    4    0    0 0.77302496E+02 0.50650125E+02 -.23972939E+02 0.95476766E+02 0.51099893E-03 0.0000E+00 0.9000E+01
       11  1    4    4    0    0 0.23891993E+02 0.34738338E+02 -.97105381E+02 0.10586328E+03 0.51099893E-03 0.0000E+00 0.9000E+01
       23  1    3    3    0    0 -.12680326E+03 -.64636622E+02 -.69355716E+03 0.71385835E+03 0.91188000E+02 0.0000E+00 0.9000E+01
#aMCatNLO 1  0  0  2  1 0.12531161D+03 0.00000000D+00  -5  7  0 0.00000000D+00 0.00000000D+00 0.00000000D+00 0.00000000D+00 0.00000000D+00
  <mgrwgt>
 0.2491274908D-03    9    2    0
 0.357973526145340D+03 0.000000000000000D+00 0.000000000000000D+00 0.357973526145340D+03
 0.357973526145340D+03 0.000000000000000D+00 0.000000000000000D+00 -.357973526145340D+03
 0.243052006699076D+03 0.256087727458932D+02 -.207518404298467D+02 -.222873458477386D+03
 0.255990461036832D+03 0.773024962632201D+02 0.506501247943358D+02 0.238725794734551D+03
 0.449648520554568D+02 0.238919928964415D+02 0.347383378353199D+02 0.156287709127969D+02
 0.171939732499316D+03 -.126803261905555D+03 -.646366221998090D+02 -.314811071699621D+02
 0.000000000000000D+00 0.000000000000000D+00 0.000000000000000D+00 -.000000000000000D+00
 0.392918521934742D+03 0.000000000000000D+00 0.000000000000000D+00 0.392918521934742D+03
 0.496477915589269D+03 0.000000000000000D+00 0.000000000000000D+00 -.496477915589269D+03
 0.244553317718357D+03 -.115626245621970D+02 -.410463284913332D+02 -.222873458477386D+03
 0.243758286103735D+03 0.392053748743664D+02 0.298502186515873D+02 0.238725794734551D+03
 0.390643773915292D+02 0.174862304552738D+02 0.312409802216285D+02 0.156287709127969D+02
 0.199454935913321D+03 -.155115624561082D+03 -.800943382803401D+02 -.314811071699621D+02
 0.162565520397069D+03 0.109986643793639D+03 0.600494678984575D+02 -.103559393654527D+03
0.576578909942D-05 0.000000000000D+00 0.000000000000D+00 0.142006352002D-05 0.000000000000D+00  7 -2 2 23 -11 11 23 21 0 0.79599559D-02 0.38103463D+00 0.40115085D+05 0.40115085D+05 0.40115085D+05 0.11558061D+01  1  2  2  2  7  2        2 0.248388024295D-03 0.100000000000D+01
-.188987020803D-06 0.000000000000D+00 -.221421483089D-07 0.142006352002D-05 0.000000000000D+00  7 -2 2 23 -11 11 23 21 2 0.79599559D-02 0.38103463D+00 0.40115085D+05 0.40115085D+05 0.40115085D+05 0.11558061D+01  1  2  3  2  7  2        2 -.108761159128D-04 0.100000000000D+01
0.353031074901D-06 0.000000000000D+00 0.000000000000D+00 0.142006352002D-05 0.000000000000D+00  7 -2 2 23 -11 11 23 21 2 0.79599559D-02 0.38103463D+00 0.40115085D+05 0.40115085D+05 0.40115085D+05 0.11558061D+01  1  2 15  2  7  2        2 0.203167755919D-04 0.100000000000D+01
0.150315928089D-05 0.000000000000D+00 0.000000000000D+00 0.142006352002D-05 0.000000000000D+00  7 -2 2 23 -11 11 23 21 2 0.79599559D-02 0.54148336D+00 0.64518660D+05 0.64518660D+05 0.64518660D+05 0.11376824D+01  1  2 12  2  7  2        2 0.185584824221D-04 0.100000000000D+01
-.437411716098D-05 0.000000000000D+00 0.000000000000D+00 0.142006352002D-05 0.000000000000D+00  7 -2 2 23 -11 11 23 21 2 0.79599559D-02 0.38103463D+00 0.40115085D+05 0.40115085D+05 0.40115085D+05 0.11558061D+01  1  2  4  2  7  2        2 -.251728425882D-03 0.100000000000D+01
-.449513901621D-05 0.000000000000D+00 -.182315417942D-05 0.142006352002D-05 0.000000000000D+00  7 -2 2 23 -11 11 23 21 2 0.79599559D-02 0.54033392D+00 0.40115085D+05 0.40115085D+05 0.40115085D+05 0.11558061D+01  1  2  5  2  7  2        2 -.594229716053D-04 0.100000000000D+01
0.493374296732D-05 0.000000000000D+00 0.171732085222D-05 0.142006352002D-05 0.000000000000D+00  7 -2 2 23 -11 11 23 21 2 0.79599559D-02 0.38103463D+00 0.40115085D+05 0.40115085D+05 0.40115085D+05 0.11558061D+01  1  2  6  2  7  2        2 0.283934633015D-03 0.100000000000D+01
0.651248164484D-07 0.000000000000D+00 0.000000000000D+00 0.142006352002D-05 0.000000000000D+00  7 -2 21 23 -11 11 23 -2 2 0.79599559D-02 0.54148336D+00 0.64518660D+05 0.64518660D+05 0.64518660D+05 0.11376824D+01  1  2 12  4  7  2        2 0.298613296916D-07 0.100000000000D+01
-.142493992108D-06 0.000000000000D+00 -.786437354835D-07 0.142006352002D-05 0.000000000000D+00  7 -2 21 23 -11 11 23 -2 2 0.79599559D-02 0.54033392D+00 0.40115085D+05 0.40115085D+05 0.40115085D+05 0.11558061D+01  1  2  5  4  7  2        2 -.727724555404D-07 0.100000000000D+01
  </mgrwgt>
  </event>
  <event>
  8     66 0.53686478E-06 0.98842893E+02 0.75467711E-02 0.10044845E+00
       -2 -1    0    0    0  501 0.00000000E+00 0.00000000E+00 0.93043164E+02 0.93043714E+02 0.32000000E+00 0.0000E+00 0.9000E+01
        2 -1    0    0  501    0 0.00000000E+00 0.00000000E+00 -.24318538E+04 0.24318539E+04 0.32000000E+00 0.0000E+00 0.9000E+01
       25  2    1    2    0    0 -.10951384E+03 -.22023748E+03 -.21881622E+04 0.22223514E+04 0.30048958E+03 0.0000E+00 0.0000E+00
       23  2    1    2    0    0 0.10951384E+03 0.22023748E+03 -.15064846E+03 0.30254619E+03 0.91331305E+02 0.0000E+00 0.0000E+00
       23  1    3    3    0    0 0.10123559E+02 -.55726491E+02 -.25916840E+03 0.28051995E+03 0.91188000E+02 0.0000E+00 0.9000E+01
      -11  1    4    4    0    0 0.11830352E+03 0.22124575E+03 -.15236894E+03 0.29353313E+03 0.51099893E-03 0.0000E+00 0.9000E+01
       11  1    4    4    0    0 -.87896835E+01 -.10082654E+01 0.17204815E+01 0.90130567E+01 0.51099893E-03 0.0000E+00 0.9000E+01
       23  1    3    3    0    0 -.11963740E+03 -.16451099E+03 -.19289938E+04 0.19418314E+04 0.91188000E+02 0.0000E+00 0.9000E+01
#aMCatNLO 1  0  0  2  1 0.25590017D+02 0.00000000D+00  -5  7  0 0.00000000D+00 0.00000000D+00 0.00000000D+00 0.00000000D+00 0.00000000D+00
  <mgrwgt>
 0.5503326048D-03    9    2    0
 0.475676462332494D+03 0.000000000000000D+00 0.000000000000000D+00 0.475676462332494D+03
 0.475676462332494D+03 0.000000000000000D+00 0.000000000000000D+00 -.475676462332494D+03
 0.107361110124180D+03 0.101235587468335D+02 -.557264905887452D+02 0.179678269643337D+01
 0.404454505470851D+03 0.118303523335558D+03 0.221245745958988D+03 0.317234996898379D+03
 0.281503581916612D+02 -.878968346368461D+01 -.100826539093776D+01 0.267239131084595D+02
 0.411386950878296D+03 -.119637398618707D+03 -.164510989979305D+03 -.345755692703272D+03
 0.000000000000000D+00 0.000000000000000D+00 -.000000000000000D+00 -.000000000000000D+00
 0.482400845224893D+03 0.000000000000000D+00 0.000000000000000D+00 0.482400845224893D+03
 0.500833860545566D+03 0.000000000000000D+00 0.000000000000000D+00 -.500833860545566D+03
 0.106073596671910D+03 0.828763649918214D+01 -.535204934591805D+02 0.179678269643337D+01
 0.407139469308159D+03 0.111322355854770D+03 0.229634137920212D+03 0.317234996898379D+03
 0.282909356794117D+02 -.927518007601921D+01 -.424905101800453D+00 0.267239131084595D+02
 0.410193027983024D+03 -.126704463690076D+03 -.156019385674259D+03 -.345755692703272D+03
 0.315376761279548D+02 0.163696514121432D+02 -.196693536849716D+02 -.184330153206734D+02
0.116685820814D-04 0.000000000000D+00 0.000000000000D+00 0.152307049485D-05 0.000000000000D+00  7 -2 2 23 -11 11 23 21 0 0.14314377D-01 0.37413140D+00 0.87025045D+05 0.87025045D+05 0.87025045D+05 0.11267088D+01  1  2  2  2  7  2        2 0.209897320327D-03 0.100000000000D+01
-.468346404365D-06 0.000000000000D+00 -.448104276007D-07 0.152307049485D-05 0.000000000000D+00  7 -2 2 23 -11 11 23 21 2 0.14314377D-01 0.37413140D+00 0.87025045D+05 0.87025045D+05 0.87025045D+05 0.11267088D+01  1  2  3  2  7  2        2 -.106949657944D-04 0.100000000000D+01
0.720589322922D-06 0.000000000000D+00 0.000000000000D+00 0.152307049485D-05 0.000000000000D+00  7 -2 2 23 -11 11 23 21 2 0.14314377D-01 0.37413140D+00 0.87025045D+05 0.87025045D+05 0.87025045D+05 0.11267088D+01  1  2 15  2  7  2        2 0.164550813001D-04 0.100000000000D+01
0.369430198862D-04 0.000000000000D+00 0.000000000000D+00 0.152307049485D-05 0.000000000000D+00  7 -2 2 23 -11 11 23 21 2 0.14314377D-01 0.39647052D+00 0.95121277D+05 0.95121277D+05 0.95121277D+05 0.11235090D+01  1  2 12  2  7  2        2 0.691114154188D-03 0.100000000000D+01
-.369724050325D-04 0.000000000000D+00 0.000000000000D+00 0.152307049485D-05 0.000000000000D+00  7 -2 2 23 -11 11 23 21 2 0.14314377D-01 0.37413140D+00 0.87025045D+05 0.87025045D+05 0.87025045D+05 0.11267088D+01  1  2  4  2  7  2        2 -.844286629454D-03 0.100000000000D+01
-.121945319099D-03 0.000000000000D+00 -.189402828753D-04 0.152307049485D-05 0.000000000000D+00  7 -2 2 23 -11 11 23 21 2 0.14314377D-01 0.39581726D+00 0.87025045D+05 0.87025045D+05 0.87025045D+05 0.11267088D+01  1  2  5  2  7  2        2 -.231593169482D-02 0.100000000000D+01
0.122847485016D-03 0.000000000000D+00 0.189102565955D-04 0.152307049485D-05 0.000000000000D+00  7 -2 2 23 -11 11 23 21 2 0.14314377D-01 0.37413140D+00 0.87025045D+05 0.87025045D+05 0.87025045D+05 0.11267088D+01  1  2  6  2  7  2        2 0.280529462365D-02 0.100000000000D+01
0.491220708273D-06 0.000000000000D+00 0.000000000000D+00 0.152307049485D-05 0.000000000000D+00  7 -2 21 23 -11 11 23 -2 2 0.14314377D-01 0.39647052D+00 0.95121277D+05 0.95121277D+05 0.95121277D+05 0.11235090D+01  1  2 12  4  7  2        2 0.105763625251D-05 0.100000000000D+01
-.116517153855D-05 0.000000000000D+00 -.184232638438D-06 0.152307049485D-05 0.000000000000D+00  7 -2 21 23 -11 11 23 -2 2 0.14314377D-01 0.39581726D+00 0.87025045D+05 0.87025045D+05 0.87025045D+05 0.11267088D+01  1  2  5  4  7  2        2 -.257292083787D-05 0.100000000000D+01
  </mgrwgt>
  </event>
  <event>
  9     66 0.53686478E-06 0.18547869E+03 0.75467711E-02 0.10179694E+00
       21 -1    0    0  502  501 0.00000000E+00 0.00000000E+00 0.13741779E+03 0.13741983E+03 0.75000000E+00 0.0000E+00 0.9000E+01
        2 -1    0    0  501    0 0.00000000E+00 0.00000000E+00 -.18515435E+04 0.18515435E+04 0.32000000E+00 0.0000E+00 0.9000E+01
       25  2    1    2    0    0 0.21218266E+03 0.82872507E+02 -.15497361E+04 0.15948670E+04 0.30004948E+03 0.0000E+00 0.0000E+00
       23  2    1    2    0    0 -.60422454E+02 -.36249875E+02 -.20009894E+03 0.23136926E+03 0.92342944E+02 0.0000E+00 0.0000E+00
       23  1    3    3    0    0 0.25667883E+02 0.27181023E+02 -.15510052E+03 0.18376363E+03 0.91188000E+02 0.0000E+00 0.9000E+01
      -11  1    4    4    0    0 -.31466062E+02 0.64532710E+01 -.88999594E+01 0.33331172E+02 0.51099893E-03 0.0000E+00 0.9000E+01
       11  1    4    4    0    0 -.28956392E+02 -.42703146E+02 -.19119899E+03 0.19803809E+03 0.51099893E-03 0.0000E+00 0.9000E+01
       23  1    3    3    0    0 0.18651478E+03 0.55691484E+02 -.13946355E+04 0.14111034E+04 0.91188000E+02 0.0000E+00 0.9000E+01
        2  1    1    2  502    0 -.15176021E+03 -.46622632E+02 0.35709314E+02 0.16272704E+03 0.32000000E+00 0.0000E+00 0.9000E+01
#aMCatNLO 2  0  0  1  2 0.15876029D+03 0.00000000D+00  -5  7  0 0.00000000D+00 0.00000000D+00 0.00000000D+00 0.00000000D+00 0.00000000D+00
  <mgrwgt>
 0.3148555647D-03    2    2    0
 0.249003839954049D+03 0.000000000000000D+00 0.000000000000000D+00 0.249003839954049D+03
 0.249003839954049D+03 0.000000000000000D+00 0.000000000000000D+00 -.249003839954049D+03
 0.118538080868427D+03 -.102167678388270D+02 0.161568098964568D+02 0.732843804699679D+02
 0.999413589911338D+02 -.592101347012978D+02 -.207005470481307D+01 0.804869558324076D+02
 0.672339516351896D+02 -.466606875968426D+02 -.481421265774321D+02 -.505174564634660D+01
 0.212294288413347D+03 0.116087590136967D+03 0.340553713857884D+02 -.148719590656029D+03
 0.000000000000000D+00 -.000000000000000D+00 -.000000000000000D+00 0.000000000000000D+00
 0.940153771642907D+03 0.000000000000000D+00 0.000000000000000D+00 0.940153771642907D+03
 0.270633388983476D+03 0.000000000000000D+00 0.000000000000000D+00 -.270633388983476D+03
 0.122814901215105D+03 0.256678825394680D+02 0.271810228201418D+02 0.732843804699679D+02
 0.866597244102289D+02 -.314660621803649D+02 0.645327099619256D+01 0.804869558324076D+02
 0.518415994864870D+02 -.289563920720196D+02 -.427031458023109D+02 -.505174564634660D+01
 0.261384913432584D+03 0.186514781062779D+03 0.556914843253973D+02 -.148719590656029D+03
 0.688086022081978D+03 -.151760209349863D+03 -.466226323394207D+02 0.669520382659430D+03
-.277846464661D-07 0.000000000000D+00 0.000000000000D+00 0.171233835629D-06 0.000000000000D+00  7 21 2 23 -11 11 23 2 2 0.20529245D-01 0.26208696D+00 0.77279177D+05 0.77279177D+05 0.77279177D+05 0.11310252D+01  1  2 13  3  7  1       -2 -.114049742431D-04 0.100000000000D+01
0.100562360001D-05 0.000000000000D+00 0.000000000000D+00 0.171233835629D-06 0.169502792033D-10  7 21 2 23 -11 11 23 2 2 0.21141355D-01 0.28485297D+00 0.77279177D+05 0.77279177D+05 0.77279177D+05 0.11310252D+01  1  2  1  3  7  1       -2 0.326260538980D-03 0.100000000000D+01
  </mgrwgt>
  </event>
  <event>
  8     66 0.53686478E-06 0.19874895E+03 0.75467711E-02 0.96704492E-01
       -2 -1    0    0    0  501 0.00000000E+00 0.00000000E+00 0.91896576E+03 0.91896582E+03 0.32000000E+00 0.0000E+00 0.9000E+01
        2 -1    0    0  501    0 0.00000000E+00 0.00000000E+00 -.11000552E+03 0.11000598E+03 0.32000000E+00 0.0000E+00 0.9000E+01
       25  2    1    2    0    0 -.99730789E+02 0.31979209E+02 0.82720923E+03 0.88600799E+03 0.29960999E+03 0.0000E+00 0.0000E+00
       23  2    1    2    0    0 0.99730789E+02 -.31979209E+02 -.18248987E+02 0.14296381E+03 0.95586218E+02 0.0000E+00 0.0000E+00
       23  1    3    3    0    0 0.68209324E+01 -.51247426E+02 0.58302667E+03 0.59237503E+03 0.91188000E+02 0.0000E+00 0.9000E+01
      -13  1    4    4    0    0 0.32205432E+02 -.50209482E+02 0.20412773E+02 0.63046604E+02 0.10565837E+00 0.0000E+00 0.9000E+01
       13  1    4    4    0    0 0.67525357E+02 0.18230273E+02 -.38661760E+02 0.79917204E+02 0.10565837E+00 0.0000E+00 0.9000E+01
       23  1    3    3    0    0 -.10655172E+03 0.83226634E+02 0.24418256E+03 0.29363296E+03 0.91188000E+02 0.0000E+00 0.9000E+01
#aMCatNLO 1  0  0  1  1 0.30434571D+03 0.00000000D+00  -5  7  0 0.00000000D+00 0.00000000D+00 0.00000000D+00 0.00000000D+00 0.00000000D+00
  <mgrwgt>
 0.1811002702D-03    5    2    0
 0.317949007739014D+03 0.000000000000000D+00 0.000000000000000D+00 0.317949007739014D+03
 0.317949007739014D+03 0.000000000000000D+00 0.000000000000000D+00 -.317949007739014D+03
 0.216845783404263D+03 0.682092982919970D+01 -.512474247226713D+02 0.189826285882034D+03
 0.760498885795071D+02 0.322053887004554D+02 -.502095465927981D+02 -.471741446404030D+02
 0.178501037159560D+03 0.675254046277578D+02 0.182303365459171D+02 -.164227265782265D+03
 0.164501306334698D+03 -.106551723157413D+03 0.832266347695522D+02 0.215751245406340D+02
 0.000000000000000D+00 -.000000000000000D+00 0.000000000000000D+00 0.000000000000000D+00
 0.522399872679069D+03 0.000000000000000D+00 0.000000000000000D+00 0.522399872679069D+03
 0.488774736190350D+03 0.000000000000000D+00 0.000000000000000D+00 -.488774736190350D+03
 0.262658902072642D+03 0.668763723190136D+02 -.142014011659719D+03 0.189826285882034D+03
 0.112857682745016D+03 0.558650694693449D+02 -.859683118666772D+02 -.471741446404030D+02
 0.208448524806540D+03 0.115988804191834D+03 -.550162700467107D+02 -.164227265782265D+03
 0.121011910863539D+03 -.707926928186858D+02 0.291811561008184D+02 0.215751245406340D+02
 0.306197588381682D+03 -.167937553161507D+03 0.253817437472289D+03 0.336251364887190D+02
0.113203110309D-04 0.000000000000D+00 0.000000000000D+00 0.351582395455D-07 0.000000000000D+00  7 -2 2 23 -13 13 23 21 0 0.14137939D+00 0.16923966D-01 0.39501144D+05 0.39501144D+05 0.39501144D+05 0.11564093D+01  1  2  2  1  7  1       -2 0.171563757925D-03 0.100000000000D+01
-.460102001775D-06 0.000000000000D+00 -.434729750651D-07 0.351582395455D-07 0.000000000000D+00  7 -2 2 23 -13 13 23 21 2 0.14137939D+00 0.16923966D-01 0.39501144D+05 0.39501144D+05 0.39501144D+05 0.11564093D+01  1  2  3  1  7  1       -2 -.932490589298D-05 0.100000000000D+01
0.685721085263D-06 0.000000000000D+00 0.000000000000D+00 0.351582395455D-07 0.000000000000D+00  7 -2 2 23 -13 13 23 21 2 0.14137939D+00 0.16923966D-01 0.39501144D+05 0.39501144D+05 0.39501144D+05 0.11564093D+01  1  2 15  1  7  1       -2 0.138975369901D-04 0.100000000000D+01
0.834068617596D-06 0.000000000000D+00 -.306976345796D-05 0.351582395455D-07 0.000000000000D+00  7 -2 2 23 -13 13 23 21 2 0.30143098D+00 0.16923966D-01 0.39501144D+05 0.39501144D+05 0.39501144D+05 0.11564093D+01  1  2  5  1  7  1       -2 0.144033123017D-05 0.100000000000D+01
0.259759944699D-06 0.000000000000D+00 -.251470182499D-06 0.351582395455D-07 0.000000000000D+00  7 21 2 23 -13 13 23 2 2 0.30143098D+00 0.16923966D-01 0.39501144D+05 0.39501144D+05 0.39501144D+05 0.11564093D+01  1  2  5  3  7  1       -2 0.352354997428D-05 0.100000000000D+01
  </mgrwgt>
  </event>
  <event>
  8     66 0.53686478E-06 0.18256222E+03 0.75467711E-02 0.98020497E-01
       -2 -1    0    0    0  501 0.00000000E+00 0.00000000E+00 0.16594730E+03 0.16594761E+03 0.32000000E+00 0.0000E+00 0.9000E+01
        2 -1    0    0  501    0 0.00000000E+00 0.00000000E+00 -.73716236E+03 0.73716243E+03 0.32000000E+00 0.0000E+00 0.9000E+01
       25  2    1    2    0    0 -.31164588E+02 0.26996579E+03 -.39097322E+03 0.56023109E+03 0.29520512E+03 0.0000E+00 0.0000E+00
       23  2    1    2    0    0 0.31164588E+02 -.26996579E+03 -.18024185E+03 0.34287894E+03 0.10595324E+03 0.0000E+00 0.0000E+00
       23  1    3    3    0    0 0.49112105E+02 0.55750153E+02 -.25043960E+03 0.27668633E+03 0.91188000E+02 0.0000E+00 0.9000E+01
      -13  1    4    4    0    0 -.12378041E+02 -.18532848E+03 -.16092497E+03 0.24575744E+03 0.10565837E+00 0.0000E+00 0.9000E+01
       13  1    4    4    0    0 0.43542629E+02 -.84637302E+02 -.19316879E+02 0.97121503E+02 0.10565837E+00 0.0000E+00 0.9000E+01
       23  1    3    3    0    0 -.80276692E+02 0.21421563E+03 -.14053361E+03 0.28354476E+03 0.91188000E+02 0.0000E+00 0.9000E+01
#aMCatNLO 1  0  0  1  2 0.98266990D+02 0.00000000D+00  -5  7  0 0.00000000D+00 0.00000000D+00 0.00000000D+00 0.00000000D+00 0.00000000D+00
  <mgrwgt>
 0.3483665395D-03    7    2    0
 0.349757446748800D+03 0.000000000000000D+00 0.000000000000000D+00 0.349757446748800D+03
 0.349757446748800D+03 0.000000000000000D+00 0.000000000000000D+00 -.349757446748800D+03
 0.152710591317469D+03 0.491121023261757D+02 0.557501761968879D+02 -.973919535467388D+02
 0.185876369944346D+03 -.123780081906136D+02 -.185328581934427D+03 -.708000954059698D+01
 0.109614875349895D+03 0.435426026931623D+02 -.846372648427750D+02 0.543690725377249D+02
 0.251313056885890D+03 -.802766968287245D+02 0.214215670580314D+03 0.501028905496108D+02
 0.000000000000000D+00 0.000000000000000D+00 -.000000000000000D+00 0.000000000000000D+00
 0.991963449196523D+03 0.000000000000000D+00 0.000000000000000D+00 0.991963449196523D+03
 0.356970977493625D+03 0.000000000000000D+00 0.000000000000000D+00 -.356970977493625D+03
 0.155123556782072D+03 0.342736854621065D+02 0.713315385640544D+02 -.973919535467388D+02
 0.170047316184334D+03 -.295344674696723D+02 -.167313114960193D+03 -.708000954059698D+01
 0.978627518490226D+02 0.335416345050912D+02 -.741355576331484D+02 0.543690725377249D+02
 0.283349760806781D+03 -.106048853100602D+03 0.241278214349909D+03 0.501028905496108D+02
 0.642551041067939D+03 0.677680006030767D+02 -.711610803206217D+02 0.634992471702898D+03
0.648059286688D-05 0.000000000000D+00 0.000000000000D+00 0.443427976684D-10 0.000000000000D+00  7 -2 2 23 -13 13 23 21 0 0.25530382D-01 0.11340962D+00 0.10394635D+06 0.10394635D+06 0.10394635D+06 0.11203453D+01  1  2  2  1  7  1       -2 0.407813618594D-03 0.100000000000D+01
-.357130670077D-06 0.000000000000D+00 -.248871829881D-07 0.443427976684D-10 0.000000000000D+00  7 -2 2 23 -13 13 23 21 2 0.25530382D-01 0.11340962D+00 0.10394635D+06 0.10394635D+06 0.10394635D+06 0.11203453D+01  1  2  3  1  7  1       -2 -.282083636969D-04 0.100000000000D+01
0.427702579325D-06 0.000000000000D+00 0.000000000000D+00 0.443427976684D-10 0.000000000000D+00  7 -2 2 23 -13 13 23 21 2 0.25530382D-01 0.11340962D+00 0.10394635D+06 0.10394635D+06 0.10394635D+06 0.11203453D+01  1  2 15  1  7  1       -2 0.337825645418D-04 0.100000000000D+01
0.567700242469D-04 0.000000000000D+00 0.000000000000D+00 0.443427976684D-10 0.000000000000D+00  7 -2 2 23 -13 13 23 21 2 0.72092944D-01 0.11340962D+00 0.14031090D+06 0.14031090D+06 0.14031090D+06 0.11098477D+01  1  2 12  1  7  1       -2 0.603263228707D-03 0.100000000000D+01
-.592413546283D-04 0.000000000000D+00 -.200873548001D-05 0.443427976684D-10 0.000000000000D+00  7 -2 2 23 -13 13 23 21 2 0.72926189D-01 0.11340962D+00 0.10394635D+06 0.10394635D+06 0.10394635D+06 0.11203453D+01  1  2  5  1  7  1       -2 -.631558566519D-03 0.100000000000D+01
0.662869419693D-05 0.000000000000D+00 0.000000000000D+00 0.443427976684D-10 0.000000000000D+00  7 21 2 23 -13 13 23 2 2 0.72092944D-01 0.11340962D+00 0.14031090D+06 0.14031090D+06 0.14031090D+06 0.11098477D+01  1  2 12  3  7  1       -2 0.703622275180D-03 0.100000000000D+01
-.690001755615D-05 0.000000000000D+00 -.237660352687D-06 0.443427976684D-10 0.000000000000D+00  7 21 2 23 -13 13 23 2 2 0.72926189D-01 0.11340962D+00 0.10394635D+06 0.10394635D+06 0.10394635D+06 0.11203453D+01  1  2  5  3  7  1       -2 -.740348217265D-03 0.100000000000D+01
  </mgrwgt>
  </event>
  <event>
  7     66 0.53686478E-06 0.20097678E+03 0.75467711E-02 0.10023630E+00
       -2 -1    0    0    0  501 0.00000000E+00 0.00000000E+00 0.18922000E+03 0.18922027E+03 0.32000000E+00 0.0000E+00 0.9000E+01
        2 -1    0    0  501    0 0.00000000E+00 0.00000000E+00 -.59511107E+03 0.59511116E+03 0.32000000E+00 0.0000E+00 0.9000E+01
       25  2    1    2    0    0 -.10658675E+03 0.90098942E+02 0.22439276E+02 0.33055119E+03 0.29880097E+03 0.0000E+00 0.0000E+00
       23  1    3    3    0    0 -.75132104E+02 0.11260199E+03 0.11124320E+03 0.19752049E+03 0.91188000E+02 0.0000E+00 0.9000E+01
      -11  1    1    2    0    0 0.24323165E+02 -.23838919E+02 -.46690237E+02 0.57791769E+02 0.51099893E-03 0.0000E+00 0.9000E+01
       11  1    1    2    0    0 0.82263582E+02 -.66260024E+02 -.38164012E+03 0.39598847E+03 0.51099893E-03 0.0000E+00 0.9000E+01
       23  1    3    3    0    0 -.31454643E+02 -.22503052E+02 -.88803921E+02 0.13303071E+03 0.91188000E+02 0.0000E+00 0.9000E+01
#aMCatNLO 1  0  0  1  2 0.18879680D+03 0.00000000D+00  -5  7  0 0.00000000D+00 0.00000000D+00 0.00000000D+00 0.00000000D+00 0.00000000D+00
  <mgrwgt>
 0.6604527277D-03    4    2    0
 0.335569749409635D+03 0.000000000000000D+00 0.000000000000000D+00 0.335569749409635D+03
 0.335569749409635D+03 0.000000000000000D+00 0.000000000000000D+00 -.335569749409635D+03
 0.298111117540617D+03 -.751321041984107D+02 0.112601993883687D+03 0.249461309524048D+03
 0.393014426381411D+02 0.243231645329979D+02 -.238389185204227D+02 -.196135928456888D+02
 0.231966503613780D+03 0.822635822018669D+02 -.662600235819307D+02 -.206520631214028D+03
 0.101760435026732D+03 -.314546425364541D+02 -.225030517813332D+02 -.233270854643310D+02
 0.000000000000000D+00 0.000000000000000D+00 0.000000000000000D+00 -.000000000000000D+00
 0.390171699177177D+03 0.000000000000000D+00 0.000000000000000D+00 0.390171699177177D+03
 0.562920003617407D+03 0.000000000000000D+00 0.000000000000000D+00 -.562920003617407D+03
 0.299829320479497D+03 -.129574832019093D+03 0.506141090306624D+02 0.249461309524048D+03
 0.413502899481410D+02 0.169797904337307D+02 -.322000026600226D+02 -.196135928456888D+02
 0.239703852416906D+03 0.393177983383593D+02 -.115157615815409D+03 -.206520631214028D+03
 0.116305506604870D+03 -.513096380382146D+02 -.451097290032061D+02 -.233270854643310D+02
 0.255902733345170D+03 0.124586881285217D+03 0.141853238447976D+03 -.172748304440230D+03
0.113321469247D-04 0.000000000000D+00 0.000000000000D+00 0.111508995618D-09 0.000000000000D+00  7 -2 2 23 -11 11 23 21 0 0.29110796D-01 0.91555577D-01 0.40391665D+05 0.40391665D+05 0.40391665D+05 0.11555377D+01  1  2  2  1  7  1       -2 0.736100425761D-03 0.100000000000D+01
-.428401247160D-06 0.000000000000D+00 -.435184280137D-07 0.111508995618D-09 0.000000000000D+00  7 -2 2 23 -11 11 23 21 2 0.29110796D-01 0.91555577D-01 0.40391665D+05 0.40391665D+05 0.40391665D+05 0.11555377D+01  1  2  3  1  7  1       -2 -.371572703534D-04 0.100000000000D+01
0.656833203508D-06 0.000000000000D+00 0.000000000000D+00 0.111508995618D-09 0.000000000000D+00  7 -2 2 23 -11 11 23 21 2 0.29110796D-01 0.91555577D-01 0.40391665D+05 0.40391665D+05 0.40391665D+05 0.11555377D+01  1  2 15  1  7  1       -2 0.569702564631D-04 0.100000000000D+01
-.110060496319D-05 0.000000000000D+00 0.000000000000D+00 0.111508995618D-09 0.000000000000D+00  7 -2 2 23 -11 11 23 21 2 0.29110796D-01 0.91555577D-01 0.40391665D+05 0.40391665D+05 0.40391665D+05 0.11555377D+01  1  2  4  1  7  1       -2 -.954606842085D-04 0.100000000000D+01
  </mgrwgt>
  </event>
  <event>
  8     66 0.53686478E-06 0.37423001E+03 0.75467711E-02 0.93520478E-01
       -2 -1    0    0    0  501 0.00000000E+00 0.00000000E+00 0.69924000E+02 0.69924732E+02 0.32000000E+00 0.0000E+00 0.9000E+01
        2 -1    0    0  501    0 0.00000000E+00 0.00000000E+00 -.23671232E+04 0.23671232E+04 0.32000000E+00 0.0000E+00 0.9000E+01
       25  2    1    2    0    0 0.19655176E+03 -.24538990E+03 -.17182673E+04 0.17724551E+04 0.30050901E+03 0.0000E+00 0.0000E+00
       23  2    1    2    0    0 -.19655176E+03 0.24538990E+03 -.57893190E+03 0.66459288E+03 0.87594293E+02 0.0000E+00 0.0000E+00
       23  1    3    3    0    0 0.23088926E+03 -.13576598E+03 -.12561049E+04 0.12875780E+04 0.91188000E+02 0.0000E+00 0.9000E+01
      -13  1    4    4    0    0 -.19999950E+03 0.23954107E+03 -.52885791E+03 0.61406060E+03 0.10565837E+00 0.0000E+00 0.9000E+01
       13  1    4    4    0    0 0.34477411E+01 0.58488255E+01 -.50073987E+02 0.50532277E+02 0.10565837E+00 0.0000E+00 0.9000E+01
       23  1    3    3    0    0 -.34337505E+02 -.10962392E+03 -.46216237E+03 0.48487708E+03 0.91188000E+02 0.0000E+00 0.9000E+01
#aMCatNLO 1  0  0  1  2 0.30139507D+03 0.00000000D+00  -5  7  0 0.00000000D+00 0.00000000D+00 0.00000000D+00 0.00000000D+00 0.00000000D+00
  <mgrwgt>
 0.4627956313D-03    3    2    0
 0.406841050137762D+03 0.000000000000000D+00 0.000000000000000D+00 0.406841050137762D+03
 0.406841050137762D+03 0.000000000000000D+00 0.000000000000000D+00 -.406841050137762D+03
 0.310153167196467D+03 0.230889260661613D+03 -.135765976872474D+03 -.127033399596312D+03
 0.346085487452896D+03 -.199999792638106D+03 0.239541413422336D+03 0.149650121369322D+03
 0.997841945965157D+01 0.344803708249502D+01 0.584848546870538D+01 -.731266797501665D+01
 0.147465026166510D+03 -.343375051060023D+02 -.109623922018567D+03 -.153040537979937D+02
 0.000000000000000D+00 0.000000000000000D+00 -.000000000000000D+00 -.000000000000000D+00
 0.547882096549890D+03 0.000000000000000D+00 0.000000000000000D+00 0.547882096549890D+03
 0.633013515930749D+03 0.000000000000000D+00 0.000000000000000D+00 -.633013515930749D+03
 0.231833859398215D+03 0.151225084315197D+03 -.801571973083927D+02 -.127033399596312D+03
 0.480597095071415D+03 -.321510057285045D+03 0.324360435364421D+03 0.149650121369322D+03
 0.108336558187997D+02 0.388966009272952D+00 0.798383936029578D+01 -.731266797501665D+01
 0.144443605264202D+03 -.772438101470046D+02 -.796736059748909D+02 -.153040537979937D+02
 0.313187396928008D+03 0.247139817107580D+03 -.172513471441433D+03 -.851314193808585D+02
0.151856258889D-04 0.000000000000D+00 0.000000000000D+00 0.781116718322D-07 0.000000000000D+00  7 -2 2 23 -13 13 23 21 0 0.10757596D-01 0.36417286D+00 0.14004810D+06 0.14004810D+06 0.14004810D+06 0.11099124D+01  1  2  2  1  7  1       -2 0.457737542578D-03 0.100000000000D+01
-.836485191075D-06 0.000000000000D+00 -.583168018805D-07 0.781116718322D-07 0.000000000000D+00  7 -2 2 23 -13 13 23 21 2 0.10757596D-01 0.36417286D+00 0.14004810D+06 0.14004810D+06 0.14004810D+06 0.11099124D+01  1  2  3  1  7  1       -2 -.310612885963D-04 0.100000000000D+01
0.972700285003D-06 0.000000000000D+00 0.000000000000D+00 0.781116718322D-07 0.000000000000D+00  7 -2 2 23 -13 13 23 21 2 0.10757596D-01 0.36417286D+00 0.14004810D+06 0.14004810D+06 0.14004810D+06 0.11099124D+01  1  2 15  1  7  1       -2 0.361193773572D-04 0.100000000000D+01
  </mgrwgt>
  </event>
  <event>
  8     66 0.53686478E-06 0.40407552E+03 0.75467711E-02 0.94048519E-01
       -2 -1    0    0    0  501 0.00000000E+00 0.00000000E+00 0.15540950E+04 0.15540950E+04 0.32000000E+00 0.0000E+00 0.9000E+01
        2 -1    0    0  501    0 0.00000000E+00 0.00000000E+00 -.38591362E+03 0.38591376E+03 0.32000000E+00 0.0000E+00 0.9000E+01
       25  2    1    2    0    0 -.17741651E+03 -.30064976E+03 -.21541286E+03 0.50986694E+03 0.30281132E+03 0.0000E+00 0.0000E+00
       23  2    1    2    0    0 0.17741651E+03 0.30064976E+03 0.13835942E+04 0.14301418E+04 0.95424459E+02 0.0000E+00 0.0000E+00
       23  1    3    3    0    0 0.34946924E+02 -.32409702E+02 -.81718779E+02 0.13139591E+03 0.91188000E+02 0.0000E+00 0.9000E+01
      -13  1    4    4    0    0 0.15760501E+03 0.23777607E+03 0.96130541E+03 0.10027387E+04 0.10565837E+00 0.0000E+00 0.9000E+01
       13  1    4    4    0    0 0.19811502E+02 0.62873691E+02 0.42228878E+03 0.42740312E+03 0.10565837E+00 0.0000E+00 0.9000E+01
       23  1    3    3    0    0 -.21236343E+03 -.26824006E+03 -.13369408E+03 0.37847102E+03 0.91188000E+02 0.0000E+00 0.9000E+01
#aMCatNLO 1  0  0  2  2 0.20977287D+03 0.00000000D+00  -5  7  0 0.00000000D+00 0.00000000D+00 0.00000000D+00 0.00000000D+00 0.00000000D+00
  <mgrwgt>
 0.4160737358D-03    4    2    0
 0.774433070945349D+03 0.000000000000000D+00 0.000000000000000D+00 0.774433070945349D+03
 0.774433070945349D+03 0.000000000000000D+00 0.000000000000000D+00 -.774433070945349D+03
 0.226211657758136D+03 0.349469241852820D+02 -.324097023260041D+02 -.201456661460504D+03
 0.530932526097320D+03 0.157605174908456D+03 0.237776283463442D+03 0.447786104219939D+03
 0.216839470518343D+03 0.198113328176867D+02 0.628734768328571D+02 0.206576361129754D+03
 0.574882487516899D+03 -.212363431911425D+03 -.268240057970295D+03 -.452905803889188D+03
 0.000000000000000D+00 -.000000000000000D+00 -.000000000000000D+00 0.000000000000000D+00
 0.106896089323022D+04 0.000000000000000D+00 0.000000000000000D+00 0.106896089323022D+04
 0.819774108206818D+03 0.000000000000000D+00 0.000000000000000D+00 -.819774108206818D+03
 0.227059099805558D+03 0.511243302520628D+02 -.648844125937187D+01 -.201456661460504D+03
 0.574400823707028D+03 0.197054943375877D+03 0.300987143303451D+03 0.447786104219939D+03
 0.227463718523650D+03 0.356686829466282D+02 0.882819082476642D+02 0.206576361129754D+03
 0.534083389873017D+03 -.172784017150217D+03 -.204821464244289D+03 -.452905803889188D+03
 0.325727969527789D+03 -.111063939424351D+03 -.177959146047455D+03 0.249186785023405D+03
0.628236502775D-03 0.000000000000D+00 0.000000000000D+00 0.174219561258D-07 0.000000000000D+00  7 -2 2 23 -13 13 23 21 0 0.23909155D+00 0.59371340D-01 0.16327703D+06 0.16327703D+06 0.16327703D+06 0.11046569D+01  1  2  2  2  7  2        2 0.453657817893D-03 0.100000000000D+01
-.169436926803D-04 0.000000000000D+00 -.241259358913D-05 0.174219561258D-07 0.000000000000D+00  7 -2 2 23 -13 13 23 21 2 0.23909155D+00 0.59371340D-01 0.16327703D+06 0.16327703D+06 0.16327703D+06 0.11046569D+01  1  2  3  2  7  2        2 -.149302847664D-04 0.100000000000D+01
0.369458845455D-04 0.000000000000D+00 0.000000000000D+00 0.174219561258D-07 0.000000000000D+00  7 -2 2 23 -13 13 23 21 2 0.23909155D+00 0.59371340D-01 0.16327703D+06 0.16327703D+06 0.16327703D+06 0.11046569D+01  1  2 15  2  7  2        2 0.325556292610D-04 0.100000000000D+01
-.626546360364D-04 0.000000000000D+00 0.000000000000D+00 0.174219561258D-07 0.000000000000D+00  7 -2 2 23 -13 13 23 21 2 0.23909155D+00 0.59371340D-01 0.16327703D+06 0.16327703D+06 0.16327703D+06 0.11046569D+01  1  2  4  2  7  2        2 -.552094266351D-04 0.100000000000D+01
  </mgrwgt>
  </event>
  <event>
  8     66 0.53686478E-06 0.25461395E+03 0.75467711E-02 0.95809941E-01
       -2 -1    0    0    0  501 0.00000000E+00 0.00000000E+00 0.11427646E+03 0.11427691E+03 0.32000000E+00 0.0000E+00 0.9000E+01
        2 -1    0    0  501    0 0.00000000E+00 0.00000000E+00 -.63242378E+03 0.63242386E+03 0.32000000E+00 0.0000E+00 0.9000E+01
       25  2    1    2    0    0 -.15046164E+03 -.30892720E+02 -.24257403E+03 0.41542284E+03 0.30023475E+03 0.0000E+00 0.0000E+00
       23  2    1    2    0    0 0.15046164E+03 0.30892720E+02 -.27557329E+03 0.33127794E+03 0.10105133E+03 0.0000E+00 0.0000E+00
       23  1    3    3    0    0 -.18168018E+03 0.38879119E+02 -.10041324E+03 0.23003770E+03 0.91188000E+02 0.0000E+00 0.9000E+01
      -11  1    4    4    0    0 0.16206959E+03 0.13856744E+02 -.25227620E+03 0.30016969E+03 0.51099893E-03 0.0000E+00 0.9000E+01
       11  1    4    4    0    0 -.11607949E+02 0.17035976E+02 -.23297084E+02 0.31108248E+02 0.51099893E-03 0.0000E+00 0.9000E+01
       23  1    3    3    0    0 0.31218542E+02 -.69771839E+02 -.14216079E+03 0.18538514E+03 0.91188000E+02 0.0000E+00 0.9000E+01
#aMCatNLO 1  0  0  1  2 0.31063282D+03 0.00000000D+00  -5  7  0 0.00000000D+00 0.00000000D+00 0.00000000D+00 0.00000000D+00 0.00000000D+00
  <mgrwgt>
 0.2406462136D-03    5    2    0
 0.268833313453946D+03 0.000000000000000D+00 0.000000000000000D+00 0.268833313453946D+03
 0.268833313453946D+03 0.000000000000000D+00 0.000000000000000D+00 -.268833313453946D+03
 0.222703941824793D+03 -.181680179397291D+03 0.388791188185470D+02 0.822345480583558D+02
 0.173752092427108D+03 0.162069585973395D+03 0.138567442547565D+02 -.610837913350911D+02
 0.207512062527209D+02 -.116079486666138D+02 0.170359762157103D+02 -.237562688020999D+01
 0.120459386403271D+03 0.312185420905103D+02 -.697718392890139D+02 -.187751298430547D+02
 0.000000000000000D+00 0.000000000000000D+00 -.000000000000000D+00 0.000000000000000D+00
 0.215963927762289D+04 0.000000000000000D+00 0.000000000000000D+00 0.215963927762289D+04
 0.323520150073620D+03 0.000000000000000D+00 0.000000000000000D+00 -.323520150073620D+03
 0.364492935636063D+03 -.336542120342406D+03 0.672066151927791D+02 0.822345480583558D+02
 0.109999994440266D+03 0.872354024036129D+02 0.275454856640672D+02 -.610837913350911D+02
 0.323334417892452D+02 -.256080088605905D+02 0.195968807992610D+02 -.237562688020999D+01
 0.114123024314956D+03 -.306480802125526D+02 -.584551367584862D+02 -.187751298430547D+02
 0.186221003151598D+04 0.305562807011937D+03 -.558938448976211D+02 0.183611912754927D+04
0.228075572512D-05 0.000000000000D+00 0.000000000000D+00 0.440933185921D-08 0.000000000000D+00  7 -2 2 23 -11 11 23 21 0 0.17581035D-01 0.97296007D-01 0.64828264D+05 0.64828264D+05 0.64828264D+05 0.11375043D+01  1  2  2  1  7  1       -2 0.320564665295D-03 0.100000000000D+01
-.126253688603D-06 0.000000000000D+00 -.875870252123D-08 0.440933185921D-08 0.000000000000D+00  7 -2 2 23 -11 11 23 21 2 0.17581035D-01 0.97296007D-01 0.64828264D+05 0.64828264D+05 0.64828264D+05 0.11375043D+01  1  2  3  1  7  1       -2 -.229607997208D-04 0.100000000000D+01
0.146237913369D-06 0.000000000000D+00 0.000000000000D+00 0.440933185921D-08 0.000000000000D+00  7 -2 2 23 -11 11 23 21 2 0.17581035D-01 0.97296007D-01 0.64828264D+05 0.64828264D+05 0.64828264D+05 0.11375043D+01  1  2 15  1  7  1       -2 0.265951789418D-04 0.100000000000D+01
-.110248823260D-04 0.000000000000D+00 -.144850372987D-05 0.440933185921D-08 0.000000000000D+00  7 -2 2 23 -11 11 23 21 2 0.15418370D+00 0.97296007D-01 0.64828264D+05 0.64828264D+05 0.64828264D+05 0.11375043D+01  1  2  5  1  7  1       -2 -.238498517510D-04 0.100000000000D+01
-.308306123153D-05 0.000000000000D+00 -.379085780897D-06 0.440933185921D-08 0.000000000000D+00  7 21 2 23 -11 11 23 2 2 0.15418370D+00 0.97296007D-01 0.64828264D+05 0.64828264D+05 0.64828264D+05 0.11375043D+01  1  2  5  3  7  1       -2 -.597029791234D-04 0.100000000000D+01
  </mgrwgt>
  </event>
  <event>
  9     66 0.53686478E-06 0.18335827E+03 0.75467711E-02 0.10316292E+00
       -2 -1    0    0    0  502 0.00000000E+00 0.00000000E+00 0.94197758E+02 0.94198302E+02 0.32000000E+00 0.0000E+00 0.9000E+01
        2 -1    0    0  501    0 0.00000000E+00 0.00000000E+00 -.85070216E+03 0.85070222E+03 0.32000000E+00 0.0000E+00 0.9000E+01
       25  2    1    2    0    0 0.10420680E+03 0.25641277E+02 -.52506456E+03 0.61631017E+03 0.30434996E+03 0.0000E+00 0.0000E+00
       23  2    1    2    0    0 -.18428285E+02 0.56708125E+02 -.14810252E+03 0.18338343E+03 0.90220374E+02 0.0000E+00 0.0000E+00
       23  1    3    3    0    0 0.15063297E+03 0.18919887E+02 -.16544008E+03 0.24235083E+03 0.91188000E+02 0.0000E+00 0.9000E+01
      -13  1    4    4    0    0 -.41771223E+02 0.66072094E+02 -.13233769E+03 0.15369981E+03 0.10565837E+00 0.0000E+00 0.9000E+01
       13  1    4    4    0    0 0.23342938E+02 -.93639698E+01 -.15764830E+02 0.29683627E+02 0.10565837E+00 0.0000E+00 0.9000E+01
       23  1    3    3    0    0 -.46426174E+02 0.67213907E+01 -.35962448E+03 0.37395934E+03 0.91188000E+02 0.0000E+00 0.9000E+01
       21  1    1    2  501  502 -.85778512E+02 -.82349402E+02 -.83337324E+02 0.14520692E+03 0.75000000E+00 0.0000E+00 0.9000E+01
#aMCatNLO 2  0  0  1  2 0.11890911D+03 0.00000000D+00  -5  7  0 0.00000000D+00 0.00000000D+00 0.00000000D+00 0.00000000D+00 0.00000000D+00
  <mgrwgt>
 0.8836245124D-04    2    2    0
 0.207494920326762D+03 0.000000000000000D+00 0.000000000000000D+00 0.207494920326762D+03
 0.207494920326762D+03 0.000000000000000D+00 0.000000000000000D+00 -.207494920326762D+03
 0.163759501983119D+03 0.114695433285914D+03 -.155813298464170D+02 0.714430044814249D+02
 0.770369472145035D+02 -.575149957230746D+02 0.509581254479640D+02 -.547594320044255D+01
 0.286612035363738D+02 0.173587233699973D+02 -.151087604766457D+02 0.170840471778997D+02
 0.145532187919527D+03 -.745391609328367D+02 -.202680351249013D+02 -.830511084588820D+02
 0.000000000000000D+00 -.000000000000000D+00 -.000000000000000D+00 0.000000000000000D+00
 0.321388516517242D+03 0.000000000000000D+00 0.000000000000000D+00 0.321388516517242D+03
 0.249336581144838D+03 0.000000000000000D+00 0.000000000000000D+00 -.249336581144838D+03
 0.190965086586348D+03 0.150633173837374D+03 0.189197516177650D+02 0.714430044814249D+02
 0.783606469033059D+02 -.417714059080896D+02 0.660723442722576D+02 -.547594320044255D+01
 0.304044857709063D+02 0.233427670089753D+02 -.936393695948644D+01 0.170840471778997D+02
 0.131959420440436D+03 -.464260226058191D+02 0.672124301976589D+01 -.830511084588820D+02
 0.139035457961083D+03 -.857785123324410D+02 -.823494019503020D+02 0.720519353724038D+02
-.210190979776D-06 0.000000000000D+00 0.000000000000D+00 0.857445281621D-09 0.000000000000D+00  7 -2 2 23 -13 13 23 21 2 0.15016399D-01 0.10891411D+00 0.62969199D+05 0.62969199D+05 0.62969199D+05 0.11385884D+01  1  2 13  1  7  1       -2 -.431876642239D-04 0.100000000000D+01
0.759234105664D-06 0.000000000000D+00 0.000000000000D+00 0.857445281621D-09 0.467089979714D-12  7 -2 2 23 -13 13 23 21 2 0.14491954D-01 0.13087681D+00 0.62969199D+05 0.62969199D+05 0.62969199D+05 0.11385884D+01  1  2  1  1  7  1       -2 0.131550115461D-03 0.100000000000D+01
  </mgrwgt>
  </event>
  <event>
  8     66 0.53686478E-06 0.20667492E+03 0.75467711E-02 0.92348670E-01
       -2 -1    0    0    0  501 0.00000000E+00 0.00000000E+00 0.25942631E+03 0.25942650E+03 0.32000000E+00 0.0000E+00 0.9000E+01
        2 -1    0    0  501    0 0.00000000E+00 0.00000000E+00 -.15581092E+04 0.15581092E+04 0.32000000E+00 0.0000E+00 0.9000E+01
       25  2    1    2    0    0 -.39533399E+03 -.41033254E+03 -.93659219E+03 0.11366144E+04 0.30004263E+03 0.0000E+00 0.0000E+00
       23  2    1    2    0    0 0.39533399E+03 0.41033254E+03 -.36209068E+03 0.68092133E+03 0.88783078E+02 0.0000E+00 0.0000E+00
       23  1    3    3    0    0 -.16080729E+02 -.10956240E+03 -.29239984E+03 0.32569222E+03 0.91188000E+02 0.0000E+00 0.9000E+01
      -13  1    4    4    0    0 0.26277985E+03 0.21490445E+03 -.23371517E+03 0.41214071E+03 0.10565837E+00 0.0000E+00 0.9000E+01
       13  1    4    4    0    0 0.13255415E+03 0.19542809E+03 -.12837551E+03 0.26878062E+03 0.10565837E+00 0.0000E+00 0.9000E+01
       23  1    3    3    0    0 -.37925326E+03 -.30077014E+03 -.64419235E+03 0.81092216E+03 0.91188000E+02 0.0000E+00 0.9000E+01
#aMCatNLO 1  0  0  1  2 0.16848833D+02 0.00000000D+00  -5  7  0 0.00000000D+00 0.00000000D+00 0.00000000D+00 0.00000000D+00 0.00000000D+00
  <mgrwgt>
 0.9234232499D-04    9    2    0
 0.635778828649967D+03 0.000000000000000D+00 0.000000000000000D+00 0.635778828649967D+03
 0.635778828649967D+03 0.000000000000000D+00 0.000000000000000D+00 -.635778828649967D+03
 0.166899698170042D+03 -.160807288055865D+02 -.109562397353251D+03 -.853097248415483D+02
 0.350403886463859D+03 0.262780030758905D+03 0.214904481100834D+03 0.868654309038250D+02
 0.253074738779087D+03 0.132553961702411D+03 0.195428057694261D+03 0.910172780901924D+02
 0.501179333886946D+03 -.379253263655729D+03 -.300770141441845D+03 -.925729841524691D+02
 0.000000000000000D+00 0.000000000000000D+00 -.000000000000000D+00 0.000000000000000D+00
 0.656183926192501D+03 0.000000000000000D+00 0.000000000000000D+00 0.656183926192501D+03
 0.639322270993330D+03 0.000000000000000D+00 0.000000000000000D+00 -.639322270993330D+03
 0.165472364929506D+03 -.161695543074554D+02 -.107362230660141D+03 -.853097248415483D+02
 0.353139469791874D+03 0.262592010769730D+03 0.219561649471597D+03 0.868654309038250D+02
 0.255613523080317D+03 0.132418016190826D+03 0.198795365284682D+03 0.910172780901924D+02
 0.497443922718272D+03 -.379520142920848D+03 -.294159665195262D+03 -.925729841524691D+02
 0.238369166658618D+02 0.679670267746961D+00 -.168351189008770D+02 0.168616551991706D+02
0.577161582283D-05 0.000000000000D+00 0.000000000000D+00 0.173275626034D-06 0.000000000000D+00  7 -2 2 23 -13 13 23 21 0 0.39911757D-01 0.23970912D+00 0.36700118D+06 0.36700118D+06 0.36700118D+06 0.10781336D+01  1  2  2  1  7  1       -2 0.508460321489D-04 0.100000000000D+01
-.319736182560D-06 0.000000000000D+00 -.221645244610D-07 0.173275626034D-06 0.000000000000D+00  7 -2 2 23 -13 13 23 21 2 0.39911757D-01 0.23970912D+00 0.36700118D+06 0.36700118D+06 0.36700118D+06 0.10781336D+01  1  2  3  1  7  1       -2 -.327413532992D-05 0.100000000000D+01
0.360194337289D-06 0.000000000000D+00 0.000000000000D+00 0.173275626034D-06 0.000000000000D+00  7 -2 2 23 -13 13 23 21 2 0.39911757D-01 0.23970912D+00 0.36700118D+06 0.36700118D+06 0.36700118D+06 0.10781336D+01  1  2 15  1  7  1       -2 0.368843149347D-05 0.100000000000D+01
0.180312318291D-04 0.000000000000D+00 0.000000000000D+00 0.173275626034D-06 0.000000000000D+00  7 -2 2 23 -13 13 23 21 2 0.41301770D-01 0.23970912D+00 0.37732677D+06 0.37732677D+06 0.37732677D+06 0.10772593D+01  1  2 12  1  7  1       -2 0.172579269403D-03 0.100000000000D+01
-.183127039021D-04 0.000000000000D+00 0.000000000000D+00 0.173275626034D-06 0.000000000000D+00  7 -2 2 23 -13 13 23 21 2 0.39911757D-01 0.23970912D+00 0.36700118D+06 0.36700118D+06 0.36700118D+06 0.10781336D+01  1  2  4  1  7  1       -2 -.187524196830D-03 0.100000000000D+01
-.185832784364D-03 0.000000000000D+00 -.202022361977D-04 0.173275626034D-06 0.000000000000D+00  7 -2 2 23 -13 13 23 21 2 0.41376059D-01 0.23970912D+00 0.36700118D+06 0.36700118D+06 0.36700118D+06 0.10781336D+01  1  2  5  1  7  1       -2 -.177742485649D-02 0.100000000000D+01
0.186452761802D-03 0.000000000000D+00 0.201891293347D-04 0.173275626034D-06 0.000000000000D+00  7 -2 2 23 -13 13 23 21 2 0.39911757D-01 0.23970912D+00 0.36700118D+06 0.36700118D+06 0.36700118D+06 0.10781336D+01  1  2  6  1  7  1       -2 0.190929775256D-02 0.100000000000D+01
0.443978093057D-06 0.000000000000D+00 0.000000000000D+00 0.173275626034D-06 0.000000000000D+00  7 21 2 23 -13 13 23 2 2 0.41301770D-01 0.23970912D+00 0.37732677D+06 0.37732677D+06 0.37732677D+06 0.10772593D+01  1  2 12  3  7  1       -2 0.457168012338D-04 0.100000000000D+01
-.118090903343D-05 0.000000000000D+00 -.129400579531D-06 0.173275626034D-06 0.000000000000D+00  7 21 2 23 -13 13 23 2 2 0.41376059D-01 0.23970912D+00 0.36700118D+06 0.36700118D+06 0.36700118D+06 0.10781336D+01  1  2  5  3  7  1       -2 -.121562773207D-03 0.100000000000D+01
  </mgrwgt>
  </event>
  <event>
  8     66 0.53686478E-06 0.26281292E+03 0.75467711E-02 0.90883012E-01
       -2 -1    0    0    0  501 0.00000000E+00 0.00000000E+00 0.15785910E+04 0.15785911E+04 0.32000000E+00 0.0000E+00 0.9000E+01
        2 -1    0    0  501    0 0.00000000E+00 0.00000000E+00 -.58856197E+02 0.58857067E+02 0.32000000E+00 0.0000E+00 0.9000E+01
       25  2    1    2    0    0 0.24581316E+02 0.17778578E+03 0.57996784E+03 0.67714493E+03 0.29991754E+03 0.0000E+00 0.0000E+00
       23  2    1    2    0    0 -.24581316E+02 -.17778578E+03 0.93976699E+03 0.96030320E+03 0.82511911E+02 0.0000E+00 0.0000E+00
       23  1    3    3    0    0 -.82205940E+02 0.33841185E+02 0.11931406E+03 0.17451114E+03 0.91188000E+02 0.0000E+00 0.9000E+01
      -11  1    4    4    0    0 -.14165463E+02 -.18433402E+03 0.86565990E+03 0.88518176E+03 0.51099893E-03 0.0000E+00 0.9000E+01
       11  1    4    4    0    0 -.10415853E+02 0.65482406E+01 0.74107090E+02 0.75121437E+02 0.51099893E-03 0.0000E+00 0.9000E+01
       23  1    3    3    0    0 0.10678726E+03 0.14394460E+03 0.46065378E+03 0.50263378E+03 0.91188000E+02 0.0000E+00 0.9000E+01
#aMCatNLO 1  0  0  1  2 0.62214387D+03 0.00000000D+00  -5  7  0 0.00000000D+00 0.00000000D+00 0.00000000D+00 0.00000000D+00 0.00000000D+00
  <mgrwgt>
 0.6044156844D-03    3    2    0
 0.304812406147471D+03 0.000000000000000D+00 0.000000000000000D+00 0.304812406147471D+03
 0.304812406147471D+03 0.000000000000000D+00 0.000000000000000D+00 -.304812406147471D+03
 0.171297502703743D+03 -.822059395967113D+02 0.338411849714056D+02 -.114562388170341D+03
 0.219587058341475D+03 -.141654634751678D+02 -.184334023528179D+03 0.118485372960163D+03
 0.170339682149361D+02 -.104158525562703D+02 0.654824063554660D+01 0.117807738817307D+02
 0.201706283034787D+03 0.106787255628149D+03 0.143944597921227D+03 -.157037586715527D+02
 0.000000000000000D+00 0.000000000000000D+00 -.000000000000000D+00 -.000000000000000D+00
 0.466602722278378D+03 0.000000000000000D+00 0.000000000000000D+00 0.466602722278378D+03
 0.354853539443948D+04 0.000000000000000D+00 0.000000000000000D+00 -.354853539443948D+04
 0.311354406545009D+03 -.167457471204151D+03 0.217852632955432D+03 -.114562388170341D+03
 0.149134267999383D+03 -.792932651155088D+02 -.437587064882466D+02 0.118485372960163D+03
 0.348702915814362D+02 -.195837799171680D+02 0.263367835142760D+02 0.117807738817307D+02
 0.375678008072949D+03 0.480300113794044D+01 0.364072846487229D+03 -.157037586715527D+02
 0.314410114251908D+04 0.261531515098887D+03 -.564503556468690D+03 -.308193267216111D+04
0.933796557739D-04 0.000000000000D+00 0.000000000000D+00 0.113912581430D-07 0.000000000000D+00  7 -2 2 23 -11 11 23 21 0 0.24286023D+00 0.90548689D-02 0.69070633D+05 0.69070633D+05 0.69070633D+05 0.11351534D+01  1  2  2  1  7  1       -2 0.598429022387D-03 0.100000000000D+01
-.504912315478D-05 0.000000000000D+00 -.358602465600D-06 0.113912581430D-07 0.000000000000D+00  7 -2 2 23 -11 11 23 21 2 0.24286023D+00 0.90548689D-02 0.69070633D+05 0.69070633D+05 0.69070633D+05 0.11351534D+01  1  2  3  1  7  1       -2 -.416951414216D-04 0.100000000000D+01
0.577408517299D-05 0.000000000000D+00 0.000000000000D+00 0.113912581430D-07 0.000000000000D+00  7 -2 2 23 -11 11 23 21 2 0.24286023D+00 0.90548689D-02 0.69070633D+05 0.69070633D+05 0.69070633D+05 0.11351534D+01  1  2 15  1  7  1       -2 0.476818034513D-04 0.100000000000D+01
  </mgrwgt>
  </event>
  <event>
  8     66 0.53686478E-06 0.32011482E+03 0.75467711E-02 0.89815044E-01
       -2 -1    0    0    0  501 0.00000000E+00 0.00000000E+00 0.44254083E+03 0.44254095E+03 0.32000000E+00 0.0000E+00 0.9000E+01
        2 -1    0    0  501    0 0.00000000E+00 0.00000000E+00 -.98757426E+03 0.98757431E+03 0.32000000E+00 0.0000E+00 0.9000E+01
       25  2    1    2    0    0 -.19527807E+03 -.15638539E+03 0.33246717E+03 0.51304957E+03 0.30015916E+03 0.0000E+00 0.0000E+00
       23  2    1    2    0    0 0.19527807E+03 0.15638539E+03 -.87750060E+03 0.91706569E+03 0.91718404E+02 0.0000E+00 0.0000E+00
       23  1    3    3    0    0 -.19904673E+03 -.19285016E+03 0.23501242E+03 0.37464233E+03 0.91188000E+02 0.0000E+00 0.9000E+01
      -11  1    4    4    0    0 0.50605849E+02 0.39613310E+02 -.11027720E+03 0.12763709E+03 0.51099893E-03 0.0000E+00 0.9000E+01
       11  1    4    4    0    0 0.14467222E+03 0.11677208E+03 -.76722340E+03 0.78942860E+03 0.51099893E-03 0.0000E+00 0.9000E+01
       23  1    3    3    0    0 0.37686587E+01 0.36464776E+02 0.97454753E+02 0.13840724E+03 0.91188000E+02 0.0000E+00 0.9000E+01
#aMCatNLO 1  0  0  2  2 0.65598012D+03 0.00000000D+00  -5  7  0 0.00000000D+00 0.00000000D+00 0.00000000D+00 0.00000000D+00 0.00000000D+00
  <mgrwgt>
 0.2740151526D-03    5    2    0
 0.661091563423408D+03 0.000000000000000D+00 0.000000000000000D+00 0.661091563423408D+03
 0.661091563423408D+03 0.000000000000000D+00 0.000000000000000D+00 -.661091563423408D+03
 0.502102413780429D+03 -.199046731862670D+03 -.192850161628211D+03 0.408632837979153D+03
 0.925976076016181D+02 0.506058494408039D+02 0.396133096595806D+02 -.666644630499046D+02
 0.537604416636622D+03 0.144672223757124D+03 0.116772076296585D+03 -.504433086402702D+03
 0.189878688828147D+03 0.376865866474238D+01 0.364647756720445D+02 0.162464711473453D+03
 0.000000000000000D+00 -.000000000000000D+00 0.000000000000000D+00 -.000000000000000D+00
 0.103882590858707D+04 0.000000000000000D+00 0.000000000000000D+00 0.103882590858707D+04
 0.109557082472022D+04 0.000000000000000D+00 0.000000000000000D+00 -.109557082472022D+04
 0.606114994986227D+03 -.903982697299114D+02 -.428844368457947D+03 0.408632837979153D+03
 0.960150105687530D+02 0.690972309521720D+02 -.551629883043788D+00 -.666644630499046D+02
 0.577524825862068D+03 0.253998314755448D+03 -.120694001220641D+03 -.504433086402702D+03
 0.196312019600712D+03 0.416303870844868D+02 -.457742951093030D+02 0.162464711473453D+03
 0.658429882289537D+03 -.274327663062195D+03 0.595864294670935D+03 -.567449161331471D+02
0.363313333734D-04 0.000000000000D+00 0.000000000000D+00 0.472973237074D-05 0.000000000000D+00  7 -2 2 23 -11 11 23 21 0 0.68083218D-01 0.15193451D+00 0.10247350D+06 0.10247350D+06 0.10247350D+06 0.11208523D+01  1  2  2  2  7  2        2 0.244675996890D-03 0.100000000000D+01
-.727720198790D-06 0.000000000000D+00 -.139521886414D-06 0.472973237074D-05 0.000000000000D+00  7 -2 2 23 -11 11 23 21 2 0.68083218D-01 0.15193451D+00 0.10247350D+06 0.10247350D+06 0.10247350D+06 0.11208523D+01  1  2  3  2  7  2        2 -.615702928000D-05 0.100000000000D+01
0.202598044270D-05 0.000000000000D+00 0.000000000000D+00 0.472973237074D-05 0.000000000000D+00  7 -2 2 23 -11 11 23 21 2 0.68083218D-01 0.15193451D+00 0.10247350D+06 0.10247350D+06 0.10247350D+06 0.11208523D+01  1  2 15  2  7  2        2 0.171412322032D-04 0.100000000000D+01
0.895855128813D-05 0.000000000000D+00 -.106783107749D-04 0.472973237074D-05 0.000000000000D+00  7 -2 2 23 -11 11 23 21 2 0.68083218D-01 0.32763562D+00 0.10247350D+06 0.10247350D+06 0.10247350D+06 0.11208523D+01  1  2  5  2  7  2        2 0.178386669044D-04 0.100000000000D+01
0.141403565376D-05 0.000000000000D+00 -.888329108763D-06 0.472973237074D-05 0.000000000000D+00  7 -2 21 23 -11 11 23 -2 2 0.68083218D-01 0.32763562D+00 0.10247350D+06 0.10247350D+06 0.10247350D+06 0.11208523D+01  1  2  5  4  7  2        2 0.516285918827D-06 0.100000000000D+01
  </mgrwgt>
  </event>
  <event>
  8     66 0.53686478E-06 0.26384880E+03 0.75467711E-02 0.99773682E-01
       -2 -1    0    0    0  501 0.00000000E+00 0.00000000E+00 0.15024851E+03 0.15024885E+03 0.32000000E+00 0.0000E+00 0.9000E+01
        2 -1    0    0  501    0 0.00000000E+00 0.00000000E+00 -.67952774E+03 0.67952782E+03 0.32000000E+00 0.0000E+00 0.9000E+01
       25  2    1    2    0    0 0.22022486E+03 0.71218971E+02 -.27832039E+03 0.47039798E+03 0.30040121E+03 0.0000E+00 0.0000E+00
       23  2    1    2    0    0 -.22022486E+03 -.71218971E+02 -.25095885E+03 0.35937869E+03 0.11225670E+03 0.0000E+00 0.0000E+00
       23  1    3    3    0    0 0.13211984E+03 0.34454008E+02 -.20473374E+01 0.16420162E+03 0.91188000E+02 0.0000E+00 0.9000E+01
      -11  1    4    4    0    0 -.21320258E+03 -.69669363E+02 -.17874641E+03 0.28680906E+03 0.51099893E-03 0.0000E+00 0.9000E+01
       11  1    4    4    0    0 -.70222769E+01 -.15496079E+01 -.72212438E+02 0.72569621E+02 0.51099893E-03 0.0000E+00 0.9000E+01
       23  1    3    3    0    0 0.88105021E+02 0.36764963E+02 -.27627305E+03 0.30619635E+03 0.91188000E+02 0.0000E+00 0.9000E+01
#aMCatNLO 1  0  0  1  2 0.10687721D+03 0.00000000D+00  -5  7  0 0.00000000D+00 0.00000000D+00 0.00000000D+00 0.00000000D+00 0.00000000D+00
  <mgrwgt>
 0.2904509001D-03    4    2    0
 0.319528091541652D+03 0.000000000000000D+00 0.000000000000000D+00 0.319528091541652D+03
 0.319528091541652D+03 0.000000000000000D+00 0.000000000000000D+00 -.319528091541652D+03
 0.211510453953377D+03 0.132119839956028D+03 0.344540082882755D+02 0.133336754086894D+03
 0.224363227374612D+03 -.213202583097046D+03 -.696693635245047D+02 0.544941692197808D+01
 0.344195612358574D+02 -.702227804234983D+01 -.154960829521083D+01 -.336599542616486D+02
 0.168762940519457D+03 0.881050211833678D+02 0.367649635314401D+02 -.105126216747223D+03
 0.000000000000000D+00 -.000000000000000D+00 -.000000000000000D+00 -.000000000000000D+00
 0.336636397759736D+03 0.000000000000000D+00 0.000000000000000D+00 0.336636397759736D+03
 0.549345946461987D+03 0.000000000000000D+00 0.000000000000000D+00 -.549345946461987D+03
 0.229622013903756D+03 0.148767355691715D+03 0.670865248413030D+02 0.133336754086894D+03
 0.200896746333176D+03 -.197154065656359D+03 -.382110054517686D+02 0.544941692197808D+01
 0.341330480768947D+02 -.443523055568411D+01 0.352153092294372D+01 -.336599542616486D+02
 0.183279933660696D+03 0.101390461985355D+03 0.628071294478691D+02 -.105126216747223D+03
 0.238050602247200D+03 -.485685214650267D+02 -.952041797603472D+02 -.212709548702251D+03
0.370085213902D-05 0.000000000000D+00 0.000000000000D+00 0.170436770608D-08 0.000000000000D+00  7 -2 2 23 -11 11 23 21 0 0.23115187D-01 0.10454276D+00 0.69616191D+05 0.69616191D+05 0.69616191D+05 0.11348627D+01  1  2  2  1  7  1       -2 0.304685697212D-03 0.100000000000D+01
-.196438423177D-06 0.000000000000D+00 -.142122466706D-07 0.170436770608D-08 0.000000000000D+00  7 -2 2 23 -11 11 23 21 2 0.23115187D-01 0.10454276D+00 0.69616191D+05 0.69616191D+05 0.69616191D+05 0.11348627D+01  1  2  3  1  7  1       -2 -.208287586545D-04 0.100000000000D+01
0.236461447772D-06 0.000000000000D+00 0.000000000000D+00 0.170436770608D-08 0.000000000000D+00  7 -2 2 23 -11 11 23 21 2 0.23115187D-01 0.10454276D+00 0.69616191D+05 0.69616191D+05 0.69616191D+05 0.11348627D+01  1  2 15  1  7  1       -2 0.250724799511D-04 0.100000000000D+01
-.174273036425D-06 0.000000000000D+00 0.000000000000D+00 0.170436770608D-08 0.000000000000D+00  7 -2 2 23 -11 11 23 21 2 0.23115187D-01 0.10454276D+00 0.69616191D+05 0.69616191D+05 0.69616191D+05 0.11348627D+01  1  2  4  1  7  1       -2 -.184785183926D-04 0.100000000000D+01
  </mgrwgt>
  </event>
  <event>
  8     66 0.53686478E-06 0.18597863E+03 0.75467711E-02 0.96083658E-01
       -2 -1    0    0    0  501 0.00000000E+00 0.00000000E+00 0.10851989E+03 0.10852036E+03 0.32000000E+00 0.0000E+00 0.9000E+01
        2 -1    0    0  501    0 0.00000000E+00 0.00000000E+00 -.12079178E+04 0.12079178E+04 0.32000000E+00 0.0000E+00 0.9000E+01
       25  2    1    2    0    0 -.18146709E+03 0.13105379E+03 -.29516393E+03 0.47666845E+03 0.29997611E+03 0.0000E+00 0.0000E+00
       23  2    1    2    0    0 0.18146709E+03 -.13105379E+03 -.80423394E+03 0.83976970E+03 0.91189524E+02 0.0000E+00 0.0000E+00
       23  1    3    3    0    0 -.71685274E+02 -.62498903E+02 -.81106346E+02 0.15472034E+03 0.91188000E+02 0.0000E+00 0.9000E+01
      -11  1    4    4    0    0 0.96789533E+02 -.11233063E+03 -.59664794E+03 0.61479684E+03 0.51099893E-03 0.0000E+00 0.9000E+01
       11  1    4    4    0    0 0.84677555E+02 -.18723157E+02 -.20758599E+03 0.22497286E+03 0.51099893E-03 0.0000E+00 0.9000E+01
       23  1    3    3    0    0 -.10978181E+03 0.19355269E+03 -.21405758E+03 0.32194812E+03 0.91188000E+02 0.0000E+00 0.9000E+01
#aMCatNLO 1  0  0  1  2 0.22627500D+03 0.00000000D+00  -5  7  0 0.00000000D+00 0.00000000D+00 0.00000000D+00 0.00000000D+00 0.00000000D+00
  <mgrwgt>
 0.1366894481D-03    7    2    0
 0.362054466966668D+03 0.000000000000000D+00 0.000000000000000D+00 0.362054466966668D+03
 0.362054466966668D+03 0.000000000000000D+00 0.000000000000000D+00 -.362054466966668D+03
 0.158141410872220D+03 -.716852738841103D+02 -.624989029674401D+02 0.874560639674744D+02
 0.211830752063822D+03 0.967895326831522D+02 -.112330629017312D+03 -.151280810638615D+03
 0.938301694685712D+02 0.846775554323706D+02 -.187231565410474D+02 -.358225587812769D+02
 0.260306601528722D+03 -.109781814231412D+03 0.193552688525800D+03 0.996473054524175D+02
 0.000000000000000D+00 -.000000000000000D+00 0.000000000000000D+00 0.000000000000000D+00
 0.731908315070846D+03 0.000000000000000D+00 0.000000000000000D+00 0.731908315070846D+03
 0.415623036231203D+03 0.000000000000000D+00 0.000000000000000D+00 -.415623036231203D+03
 0.158500334167839D+03 -.320695023846949D+02 -.901670032741014D+02 0.874560639674744D+02
 0.266827886396875D+03 0.156675607543816D+03 -.154155737137232D+03 -.151280810638615D+03
 0.123348348446474D+03 0.111849255547956D+03 -.377001774558522D+02 -.358225587812769D+02
 0.209963084204794D+03 -.509453003953612D+02 0.152460605628105D+03 0.996473054524175D+02
 0.388891698086066D+03 -.185510060311716D+03 0.129562312239081D+03 0.316285278839643D+03
0.286105331073D-05 0.000000000000D+00 0.000000000000D+00 0.601884137359D-06 0.000000000000D+00  7 -2 2 23 -11 11 23 21 0 0.16695407D-01 0.18583354D+00 0.92184294D+05 0.92184294D+05 0.92184294D+05 0.11246339D+01  1  2  2  1  7  1       -2 0.185397245223D-03 0.100000000000D+01
-.152959575100D-06 0.000000000000D+00 -.109871980458D-07 0.601884137359D-06 0.000000000000D+00  7 -2 2 23 -11 11 23 21 2 0.16695407D-01 0.18583354D+00 0.92184294D+05 0.92184294D+05 0.92184294D+05 0.11246339D+01  1  2  3  1  7  1       -2 -.125365017863D-04 0.100000000000D+01
0.187263664801D-06 0.000000000000D+00 0.000000000000D+00 0.601884137359D-06 0.000000000000D+00  7 -2 2 23 -11 11 23 21 2 0.16695407D-01 0.18583354D+00 0.92184294D+05 0.92184294D+05 0.92184294D+05 0.11246339D+01  1  2 15  1  7  1       -2 0.153480504032D-04 0.100000000000D+01
0.364074593362D-06 0.000000000000D+00 0.000000000000D+00 0.601884137359D-06 0.000000000000D+00  7 -2 2 23 -11 11 23 21 2 0.33825728D-01 0.18583354D+00 0.19408613D+06 0.19408613D+06 0.19408613D+06 0.10988279D+01  1  2 12  1  7  1       -2 0.842799334489D-05 0.100000000000D+01
-.198922887284D-05 0.000000000000D+00 -.877935983582D-06 0.601884137359D-06 0.000000000000D+00  7 -2 2 23 -11 11 23 21 2 0.38224920D-01 0.18583354D+00 0.92184294D+05 0.92184294D+05 0.92184294D+05 0.11246339D+01  1  2  5  1  7  1       -2 -.394431324957D-04 0.100000000000D+01
0.278033210850D-07 0.000000000000D+00 0.000000000000D+00 0.601884137359D-06 0.000000000000D+00  7 21 2 23 -11 11 23 2 2 0.33825728D-01 0.18583354D+00 0.19408613D+06 0.19408613D+06 0.19408613D+06 0.10988279D+01  1  2 12  3  7  1       -2 0.732957134907D-05 0.100000000000D+01
-.123699499294D-06 0.000000000000D+00 -.791072354035D-07 0.601884137359D-06 0.000000000000D+00  7 21 2 23 -11 11 23 2 2 0.38224920D-01 0.18583354D+00 0.92184294D+05 0.92184294D+05 0.92184294D+05 0.11246339D+01  1  2  5  3  7  1       -2 -.278337779130D-04 0.100000000000D+01
  </mgrwgt>
  </event>
  <event>
  8     66 0.53686478E-06 0.39298358E+03 0.75467711E-02 0.88306778E-01
       -2 -1    0    0    0  501 0.00000000E+00 0.00000000E+00 0.70610759E+03 0.70610766E+03 0.32000000E+00 0.0000E+00 0.9000E+01
        2 -1    0    0  501    0 0.00000000E+00 0.00000000E+00 -.11673596E+04 0.11673596E+04 0.32000000E+00 0.0000E+00 0.9000E+01
       25  2    1    2    0    0 0.73569698E+03 -.14949236E+03 0.23894021E+03 0.84283815E+03 0.29947574E+03 0.0000E+00 0.0000E+00
       23  2    1    2    0    0 -.73569698E+03 0.14949236E+03 -.70019218E+03 0.10306291E+04 0.91264837E+02 0.0000E+00 0.0000E+00
       23  1    3    3    0    0 0.20731887E+03 -.58069866E+02 -.30569018E+02 0.23580275E+03 0.91188000E+02 0.0000E+00 0.9000E+01
      -13  1    4    4    0    0 -.71131748E+03 0.12662259E+03 -.67523614E+03 0.98891339E+03 0.10565837E+00 0.0000E+00 0.9000E+01
       13  1    4    4    0    0 -.24379490E+02 0.22869770E+02 -.24956035E+02 0.41715714E+02 0.10565837E+00 0.0000E+00 0.9000E+01
       23  1    3    3    0    0 0.52837811E+03 -.91422498E+02 0.26950923E+03 0.60703540E+03 0.91188000E+02 0.0000E+00 0.9000E+01
#aMCatNLO 1  0  0  2  1 0.26482624D+03 0.00000000D+00  -5  7  0 0.00000000D+00 0.00000000D+00 0.00000000D+00 0.00000000D+00 0.00000000D+00
  <mgrwgt>
 0.3072201454D-03    9    2    0
 0.907899524676292D+03 0.000000000000000D+00 0.000000000000000D+00 0.907899524676292D+03
 0.907899524676292D+03 0.000000000000000D+00 0.000000000000000D+00 -.907899524676292D+03
 0.235526456043619D+03 0.207318866048734D+03 -.580698656688764D+02 0.283591014302806D+02
 0.848797031619991D+03 -.711318405613679D+03 0.126622732645915D+03 -.445476385793233D+03
 0.367001117024712D+02 -.243785696881362D+02 0.228696312741435D+02 -.151513532174283D+02
 0.694775449986503D+03 0.528378109253082D+03 -.914224982511818D+02 0.432268637580381D+03
 0.000000000000000D+00 0.000000000000000D+00 0.000000000000000D+00 -.000000000000000D+00
 0.100630647875928D+04 0.000000000000000D+00 0.000000000000000D+00 0.100630647875928D+04
 0.111494691767442D+04 0.000000000000000D+00 0.000000000000000D+00 -.111494691767442D+04
 0.225668685762227D+03 0.186352804714014D+03 -.841397523822010D+02 0.283591014302806D+02
 0.908401578898512D+03 -.791201150477727D+03 0.272939137653510D+02 -.445476385793233D+03
 0.367174478399872D+02 -.277161526695732D+02 0.187195713829090D+02 -.151513532174283D+02
 0.664221586160144D+03 0.466597720366099D+03 -.168242255366060D+03 0.432268637580381D+03
 0.286244097772834D+03 0.165966778067186D+03 0.206368522600001D+03 -.108640438915139D+03
0.133012192957D-03 0.000000000000D+00 0.000000000000D+00 0.345606053746D-05 0.000000000000D+00  7 -2 2 23 -13 13 23 21 0 0.10863195D+00 0.17959379D+00 0.58803382D+06 0.58803382D+06 0.58803382D+06 0.10635679D+01  1  2  2  2  7  2        2 0.220640419416D-03 0.100000000000D+01
-.713336941621D-05 0.000000000000D+00 -.510801843870D-06 0.345606053746D-05 0.000000000000D+00  7 -2 2 23 -13 13 23 21 2 0.10863195D+00 0.17959379D+00 0.58803382D+06 0.58803382D+06 0.58803382D+06 0.10635679D+01  1  2  3  2  7  2        2 -.133850134152D-04 0.100000000000D+01
0.825421267717D-05 0.000000000000D+00 0.000000000000D+00 0.345606053746D-05 0.000000000000D+00  7 -2 2 23 -13 13 23 21 2 0.10863195D+00 0.17959379D+00 0.58803382D+06 0.58803382D+06 0.58803382D+06 0.10635679D+01  1  2 15  2  7  2        2 0.154881572745D-04 0.100000000000D+01
0.102720145324D-03 0.000000000000D+00 0.000000000000D+00 0.345606053746D-05 0.000000000000D+00  7 -2 2 23 -13 13 23 21 2 0.10863195D+00 0.22854137D+00 0.82640720D+06 0.82640720D+06 0.82640720D+06 0.10534209D+01  1  2 12  2  7  2        2 0.121951106604D-03 0.100000000000D+01
-.111453075777D-03 0.000000000000D+00 0.000000000000D+00 0.345606053746D-05 0.000000000000D+00  7 -2 2 23 -13 13 23 21 2 0.10863195D+00 0.17959379D+00 0.58803382D+06 0.58803382D+06 0.58803382D+06 0.10635679D+01  1  2  4  2  7  2        2 -.209129911462D-03 0.100000000000D+01
-.214723886067D-03 0.000000000000D+00 -.692153161532D-04 0.345606053746D-05 0.000000000000D+00  7 -2 2 23 -13 13 23 21 2 0.10863195D+00 0.23368166D+00 0.58803382D+06 0.58803382D+06 0.58803382D+06 0.10635679D+01  1  2  5  2  7  2        2 -.253851153968D-03 0.100000000000D+01
0.227352675433D-03 0.000000000000D+00 0.668841301990D-04 0.345606053746D-05 0.000000000000D+00  7 -2 2 23 -13 13 23 21 2 0.10863195D+00 0.17959379D+00 0.58803382D+06 0.58803382D+06 0.58803382D+06 0.10635679D+01  1  2  6  2  7  2        2 0.426603254800D-03 0.100000000000D+01
0.338356046923D-05 0.000000000000D+00 0.000000000000D+00 0.345606053746D-05 0.000000000000D+00  7 -2 21 23 -13 13 23 -2 2 0.10863195D+00 0.22854137D+00 0.82640720D+06 0.82640720D+06 0.82640720D+06 0.10534209D+01  1  2 12  4  7  2        2 0.136534895419D-05 0.100000000000D+01
-.628656661045D-05 0.000000000000D+00 -.243316987060D-05 0.345606053746D-05 0.000000000000D+00  7 -2 21 23 -13 13 23 -2 2 0.10863195D+00 0.23368166D+00 0.58803382D+06 0.58803382D+06 0.58803382D+06 0.10635679D+01  1  2  5  4  7  2        2 -.246206277778D-05 0.100000000000D+01
  </mgrwgt>
  </event>
  <event>
  8     66 0.53686478E-06 0.66012665E+03 0.75467711E-02 0.89958463E-01
       -2 -1    0    0    0  501 0.00000000E+00 0.00000000E+00 0.19569458E+03 0.19569484E+03 0.32000000E+00 0.0000E+00 0.9000E+01
        2 -1    0    0  501    0 0.00000000E+00 0.00000000E+00 -.32865549E+04 0.32865550E+04 0.32000000E+00 0.0000E+00 0.9000E+01
       25  2    1    2    0    0 -.37192859E+03 -.52664797E+03 -.25141225E+04 0.26127615E+04 0.30003615E+03 0.0000E+00 0.0000E+00
       23  2    1    2    0    0 0.37192859E+03 0.52664797E+03 -.57673783E+03 0.86948828E+03 0.87717593E+02 0.0000E+00 0.0000E+00
       23  1    3    3    0    0 -.10429147E+03 -.15010489E+03 -.11900069E+04 0.12074104E+04 0.91188000E+02 0.0000E+00 0.9000E+01
      -13  1    4    4    0    0 0.99222084E+02 0.12420427E+03 -.95547732E+02 0.18547534E+03 0.10565837E+00 0.0000E+00 0.9000E+01
       13  1    4    4    0    0 0.27270651E+03 0.40244370E+03 -.48119010E+03 0.68401293E+03 0.10565837E+00 0.0000E+00 0.9000E+01
       23  1    3    3    0    0 -.26763712E+03 -.37654308E+03 -.13241156E+04 0.14053511E+04 0.91188000E+02 0.0000E+00 0.9000E+01
#aMCatNLO 1  0  0  1  1 0.20775664D+03 0.00000000D+00  -5  7  0 0.00000000D+00 0.00000000D+00 0.00000000D+00 0.00000000D+00 0.00000000D+00
  <mgrwgt>
 0.3642394416D-03    3    2    0
 0.801973484003079D+03 0.000000000000000D+00 0.000000000000000D+00 0.801973484003079D+03
 0.801973484003079D+03 0.000000000000000D+00 0.000000000000000D+00 -.801973484003079D+03
 0.328165126829629D+03 -.104291470381351D+03 -.150104892214650D+03 -.256844134957431D+03
 0.218552108977428D+03 0.992218318697419D+02 0.124203868314877D+03 0.149978170126571D+03
 0.557757399087827D+03 0.272706760742035D+03 0.402444103346006D+03 0.273428386538109D+03
 0.499472333111275D+03 -.267637122230426D+03 -.376543079446234D+03 -.166562421707249D+03
 0.000000000000000D+00 0.000000000000000D+00 -.000000000000000D+00 -.000000000000000D+00
 0.822965986989303D+03 0.000000000000000D+00 0.000000000000000D+00 0.822965986989303D+03
 0.156364315069902D+04 0.000000000000000D+00 0.000000000000000D+00 -.156364315069902D+04
 0.317525809681547D+03 -.119075165663701D+03 -.111173664732496D+03 -.256844134957431D+03
 0.230855374508191D+03 0.889322290307153D+02 0.151300400080208D+03 0.149978170126571D+03
 0.598609500000389D+03 0.246230663736420D+03 0.472165978403574D+03 0.273428386538109D+03
 0.470355505749890D+03 -.289842233740173D+03 -.318068372619408D+03 -.166562421707249D+03
 0.769262947748304D+03 0.737545066367388D+02 -.194224341131878D+03 -.740677163709716D+03
0.256119920550D-03 0.000000000000D+00 0.000000000000D+00 0.539131102860D-06 0.000000000000D+00  7 -2 2 23 -13 13 23 21 0 0.30106880D-01 0.50562386D+00 0.43576719D+06 0.43576719D+06 0.43576719D+06 0.10727565D+01  1  2  2  1  7  1       -2 0.361532410526D-03 0.100000000000D+01
-.135734433653D-04 0.000000000000D+00 -.983567932835D-06 0.539131102860D-06 0.000000000000D+00  7 -2 2 23 -13 13 23 21 2 0.30106880D-01 0.50562386D+00 0.43576719D+06 0.43576719D+06 0.43576719D+06 0.10727565D+01  1  2  3  1  7  1       -2 -.220493730711D-04 0.100000000000D+01
0.152398731735D-04 0.000000000000D+00 0.000000000000D+00 0.539131102860D-06 0.000000000000D+00  7 -2 2 23 -13 13 23 21 2 0.30106880D-01 0.50562386D+00 0.43576719D+06 0.43576719D+06 0.43576719D+06 0.10727565D+01  1  2 15  1  7  1       -2 0.247564041132D-04 0.100000000000D+01
  </mgrwgt>
  </event>
  <event>
  8     66 0.53686478E-06 0.33289418E+03 0.75467711E-02 0.93622982E-01
       -2 -1    0    0    0  501 0.00000000E+00 0.00000000E+00 0.86990805E+02 0.86991394E+02 0.32000000E+00 0.0000E+00 0.9000E+01
        2 -1    0    0  501    0 0.00000000E+00 0.00000000E+00 -.30860458E+04 0.30860458E+04 0.32000000E+00 0.0000E+00 0.9000E+01
       25  2    1    2    0    0 0.16387345E+03 0.43998328E+03 -.16956522E+04 0.17848609E+04 0.30008729E+03 0.0000E+00 0.0000E+00
       23  2    1    2    0    0 -.16387345E+03 -.43998328E+03 -.13034028E+04 0.13881763E+04 0.87947315E+02 0.0000E+00 0.0000E+00
       23  1    3    3    0    0 0.42307856E+02 0.10176080E+03 -.84335771E+03 0.85540206E+03 0.91188000E+02 0.0000E+00 0.9000E+01
      -11  1    4    4    0    0 -.14484577E+03 -.28988152E+03 -.94992237E+03 0.10036753E+04 0.51099893E-03 0.0000E+00 0.9000E+01
       11  1    4    4    0    0 -.19027683E+02 -.15010176E+03 -.35348041E+03 0.38450097E+03 0.51099893E-03 0.0000E+00 0.9000E+01
       23  1    3    3    0    0 0.12156560E+03 0.33822248E+03 -.85229450E+03 0.92945888E+03 0.91188000E+02 0.0000E+00 0.9000E+01
#aMCatNLO 1  0  0  2  1 0.96929251D+02 0.00000000D+00  -5  7  0 0.00000000D+00 0.00000000D+00 0.00000000D+00 0.00000000D+00 0.00000000D+00
  <mgrwgt>
 0.1584293731D-03    9    2    0
 0.518129875928007D+03 0.000000000000000D+00 0.000000000000000D+00 0.518129875928007D+03
 0.518129875928007D+03 0.000000000000000D+00 0.000000000000000D+00 -.518129875928007D+03
 0.178474970312868D+03 0.423078560697857D+02 0.101760795101935D+03 -.106737292354544D+03
 0.324078620281018D+03 -.144845768074725D+03 -.289881515662872D+03 -.391949883109283D+01
 0.154332619035704D+03 -.190276834628587D+02 -.150101763765626D+03 0.304296742490784D+02
 0.379373542226424D+03 0.121565595467798D+03 0.338222484326563D+03 0.802271169365583D+02
 0.000000000000000D+00 -.000000000000000D+00 -.000000000000000D+00 -.000000000000000D+00
 0.532239282536376D+03 0.000000000000000D+00 0.000000000000000D+00 0.532239282536376D+03
 0.718642527852266D+03 0.000000000000000D+00 0.000000000000000D+00 -.718642527852266D+03
 0.189080447857481D+03 0.437987830035921D+02 0.118848565183643D+03 -.106737292354544D+03
 0.297303412838273D+03 -.142325236030951D+03 -.260993264286517D+03 -.391949883109283D+01
 0.140864576503698D+03 -.178302655284295D+02 -.136377950819943D+03 0.304296742490784D+02
 0.413534706894941D+03 0.124781894850724D+03 0.375085044874087D+03 0.802271169365583D+02
 0.210098666294248D+03 -.842517629493466D+01 -.965623949512690D+02 -.186403245315890D+03
0.149371955127D-04 0.000000000000D+00 0.000000000000D+00 0.928324100694D-07 0.000000000000D+00  7 -2 2 23 -11 11 23 21 0 0.13383247D-01 0.47477632D+00 0.24462500D+06 0.24462500D+06 0.24462500D+06 0.10911699D+01  1  2  2  2  7  2        2 0.115753310271D-03 0.100000000000D+01
-.827663949552D-06 0.000000000000D+00 -.573627638226D-07 0.928324100694D-07 0.000000000000D+00  7 -2 2 23 -11 11 23 21 2 0.13383247D-01 0.47477632D+00 0.24462500D+06 0.24462500D+06 0.24462500D+06 0.10911699D+01  1  2  3  2  7  2        2 -.763665493691D-05 0.100000000000D+01
0.877056953978D-06 0.000000000000D+00 0.000000000000D+00 0.928324100694D-07 0.000000000000D+00  7 -2 2 23 -11 11 23 21 2 0.13383247D-01 0.47477632D+00 0.24462500D+06 0.24462500D+06 0.24462500D+06 0.10911699D+01  1  2 15  2  7  2        2 0.809239223380D-05 0.100000000000D+01
0.282631787717D-04 0.000000000000D+00 0.000000000000D+00 0.928324100694D-07 0.000000000000D+00  7 -2 2 23 -11 11 23 21 2 0.13383247D-01 0.66309380D+00 0.29893318D+06 0.29893318D+06 0.29893318D+06 0.10846663D+01  1  2 12  2  7  2        2 0.299086141773D-04 0.100000000000D+01
-.279313411794D-04 0.000000000000D+00 0.000000000000D+00 0.928324100694D-07 0.000000000000D+00  7 -2 2 23 -11 11 23 21 2 0.13383247D-01 0.47477632D+00 0.24462500D+06 0.24462500D+06 0.24462500D+06 0.10911699D+01  1  2  4  2  7  2        2 -.257715724634D-03 0.100000000000D+01
-.335787479660D-04 0.000000000000D+00 -.416654769865D-05 0.928324100694D-07 0.000000000000D+00  7 -2 2 23 -11 11 23 21 2 0.13383247D-01 0.66116237D+00 0.24462500D+06 0.24462500D+06 0.24462500D+06 0.10911699D+01  1  2  5  2  7  2        2 -.375208308180D-04 0.100000000000D+01
0.333325360438D-04 0.000000000000D+00 0.394808078700D-05 0.928324100694D-07 0.000000000000D+00  7 -2 2 23 -11 11 23 21 2 0.13383247D-01 0.47477632D+00 0.24462500D+06 0.24462500D+06 0.24462500D+06 0.10911699D+01  1  2  6  2  7  2        2 0.307551242357D-03 0.100000000000D+01
0.118062311304D-05 0.000000000000D+00 0.000000000000D+00 0.928324100694D-07 0.000000000000D+00  7 -2 21 23 -11 11 23 -2 2 0.13383247D-01 0.66309380D+00 0.29893318D+06 0.29893318D+06 0.29893318D+06 0.10846663D+01  1  2 12  4  7  2        2 0.171888095902D-07 0.100000000000D+01
-.128524328990D-05 0.000000000000D+00 -.172951007295D-06 0.928324100694D-07 0.000000000000D+00  7 -2 21 23 -11 11 23 -2 2 0.13383247D-01 0.66116237D+00 0.24462500D+06 0.24462500D+06 0.24462500D+06 0.10911699D+01  1  2  5  4  7  2        2 -.201643824583D-07 0.100000000000D+01
  </mgrwgt>
  </event>
  <event>
  8     66 0.53686478E-06 0.17106534E+03 0.75467711E-02 0.97036196E-01
       -2 -1    0    0    0  501 0.00000000E+00 0.00000000E+00 0.53403377E+03 0.53403386E+03 0.32000000E+00 0.0000E+00 0.9000E+01
        2 -1    0    0  501    0 0.00000000E+00 0.00000000E+00 -.23889513E+03 0.23889534E+03 0.32000000E+00 0.0000E+00 0.9000E+01
       25  2    1    2    0    0 0.16747229E+03 0.21572305E+03 0.26083947E+03 0.48234849E+03 0.30006571E+03 0.0000E+00 0.0000E+00
       23  2    1    2    0    0 -.16747229E+03 -.21572305E+03 0.34299172E+02 0.29058072E+03 0.93152114E+02 0.0000E+00 0.0000E+00
       23  1    3    3    0    0 0.19781142E+03 0.67053987E+02 0.13166726E+03 0.26320546E+03 0.91188000E+02 0.0000E+00 0.9000E+01
      -11  1    4    4    0    0 -.11758885E+03 -.14320773E+03 -.21231592E+02 0.18651105E+03 0.51099893E-03 0.0000E+00 0.9000E+01
       11  1    4    4    0    0 -.49883442E+02 -.72515319E+02 0.55530764E+02 0.10406966E+03 0.51099893E-03 0.0000E+00 0.9000E+01
       23  1    3    3    0    0 -.30339131E+02 0.14866906E+03 0.12917221E+03 0.21914302E+03 0.91188000E+02 0.0000E+00 0.9000E+01
#aMCatNLO 1  0  0  2  1 0.12536456D+03 0.00000000D+00  -5  7  0 0.00000000D+00 0.00000000D+00 0.00000000D+00 0.00000000D+00 0.00000000D+00
  <mgrwgt>
 0.3432829719D-03    9    2    0
 0.357180883535715D+03 0.000000000000000D+00 0.000000000000000D+00 0.357180883535715D+03
 0.357180883535715D+03 0.000000000000000D+00 0.000000000000000D+00 -.357180883535715D+03
 0.230386198551203D+03 0.197811424223993D+03 0.670539868304260D+02 0.337187252946347D+02
 0.210574123269744D+03 -.117588851705463D+03 -.143207731692220D+03 -.100029340340627D+03
 0.896593451580936D+02 -.498834419731083D+02 -.725153189052704D+02 0.170870979151124D+02
 0.183742100092390D+03 -.303391305454215D+02 0.148669063767065D+03 0.492235171308802D+02
 0.000000000000000D+00 -.000000000000000D+00 0.000000000000000D+00 -.000000000000000D+00
 0.420475842021346D+03 0.000000000000000D+00 0.000000000000000D+00 0.420475842021346D+03
 0.430573282663836D+03 0.000000000000000D+00 0.000000000000000D+00 -.430573282663836D+03
 0.264727046040685D+03 0.239636895291937D+03 0.565894295851540D+02 0.337187252946347D+02
 0.199873128366974D+03 -.829156737289790D+02 -.151882815236910D+03 -.100029340340627D+03
 0.856258918007361D+02 -.350759455323648D+02 -.762200923413329D+02 0.170870979151124D+02
 0.175052506300544D+03 -.293911212782589D-01 0.141085694227055D+03 0.492235171308802D+02
 0.125770552176243D+03 -.121615884909315D+03 0.304277837660342D+02 -.100974406424903D+02
0.105693792558D-04 0.000000000000D+00 0.000000000000D+00 0.234273805845D-06 0.000000000000D+00  7 -2 2 23 -11 11 23 21 0 0.82159065D-01 0.36753120D-01 0.11500444D+06 0.11500444D+06 0.11500444D+06 0.11167735D+01  1  2  2  2  7  2        2 0.243345808919D-03 0.100000000000D+01
-.585266205715D-06 0.000000000000D+00 -.405891993238D-07 0.234273805845D-06 0.000000000000D+00  7 -2 2 23 -11 11 23 21 2 0.82159065D-01 0.36753120D-01 0.11500444D+06 0.11500444D+06 0.11500444D+06 0.11167735D+01  1  2  3  2  7  2        2 -.168057554120D-04 0.100000000000D+01
0.683935514653D-06 0.000000000000D+00 0.000000000000D+00 0.234273805845D-06 0.000000000000D+00  7 -2 2 23 -11 11 23 21 2 0.82159065D-01 0.36753120D-01 0.11500444D+06 0.11500444D+06 0.11500444D+06 0.11167735D+01  1  2 15  2  7  2        2 0.196390170227D-04 0.100000000000D+01
0.555722098544D-05 0.000000000000D+00 0.000000000000D+00 0.234273805845D-06 0.000000000000D+00  7 -2 2 23 -11 11 23 21 2 0.82159065D-01 0.46970711D-01 0.16518943D+06 0.16518943D+06 0.16518943D+06 0.11042612D+01  1  2 12  2  7  2        2 0.118288084346D-03 0.100000000000D+01
-.559099962480D-05 0.000000000000D+00 0.000000000000D+00 0.234273805845D-06 0.000000000000D+00  7 -2 2 23 -11 11 23 21 2 0.82159065D-01 0.36753120D-01 0.11500444D+06 0.11500444D+06 0.11500444D+06 0.11167735D+01  1  2  4  2  7  2        2 -.160543990556D-03 0.100000000000D+01
-.127426109495D-04 0.000000000000D+00 -.533678586197D-05 0.234273805845D-06 0.000000000000D+00  7 -2 2 23 -11 11 23 21 2 0.82159065D-01 0.51486387D-01 0.11500444D+06 0.11500444D+06 0.11500444D+06 0.11167735D+01  1  2  5  2  7  2        2 -.252547203682D-03 0.100000000000D+01
0.140265913162D-04 0.000000000000D+00 0.504729165080D-05 0.234273805845D-06 0.000000000000D+00  7 -2 2 23 -11 11 23 21 2 0.82159065D-01 0.36753120D-01 0.11500444D+06 0.11500444D+06 0.11500444D+06 0.11167735D+01  1  2  6  2  7  2        2 0.402769646740D-03 0.100000000000D+01
0.185456307074D-06 0.000000000000D+00 0.000000000000D+00 0.234273805845D-06 0.000000000000D+00  7 -2 21 23 -11 11 23 -2 2 0.82159065D-01 0.46970711D-01 0.16518943D+06 0.16518943D+06 0.16518943D+06 0.11042612D+01  1  2 12  4  7  2        2 0.133285797485D-04 0.100000000000D+01
-.392936419274D-06 0.000000000000D+00 -.224381597196D-06 0.234273805845D-06 0.000000000000D+00  7 -2 21 23 -11 11 23 -2 2 0.82159065D-01 0.51486387D-01 0.11500444D+06 0.11500444D+06 0.11500444D+06 0.11167735D+01  1  2  5  4  7  2        2 -.241912152410D-04 0.100000000000D+01
  </mgrwgt>
  </event>
  <event>
  8     66 0.53686478E-06 0.21069128E+03 0.75467711E-02 0.96587649E-01
       -2 -1    0    0    0  501 0.00000000E+00 0.00000000E+00 0.51853276E+02 0.51854264E+02 0.32000000E+00 0.0000E+00 0.9000E+01
        2 -1    0    0  501    0 0.00000000E+00 0.00000000E+00 -.34831075E+04 0.34831075E+04 0.32000000E+00 0.0000E+00 0.9000E+01
       25  2    1    2    0    0 0.25903642E+03 0.22864103E+03 -.24064017E+04 0.24495007E+04 0.29984690E+03 0.0000E+00 0.0000E+00
       23  2    1    2    0    0 -.25903642E+03 -.22864103E+03 -.10248525E+04 0.10854610E+04 0.92338389E+02 0.0000E+00 0.0000E+00
       23  1    3    3    0    0 0.16553358E+03 0.12161858E+03 -.71008977E+03 0.74480546E+03 0.91188000E+02 0.0000E+00 0.9000E+01
      -11  1    4    4    0    0 -.14273275E+03 -.79531948E+02 -.38470141E+03 0.41796308E+03 0.51099893E-03 0.0000E+00 0.9000E+01
       11  1    4    4    0    0 -.11630368E+03 -.14910908E+03 -.64015113E+03 0.66749796E+03 0.51099893E-03 0.0000E+00 0.9000E+01
       23  1    3    3    0    0 0.93502848E+02 0.10702245E+03 -.16963119E+04 0.17046953E+04 0.91188000E+02 0.0000E+00 0.9000E+01
#aMCatNLO 1  0  0  1  2 0.89084832D+02 0.00000000D+00  -5  7  0 0.00000000D+00 0.00000000D+00 0.00000000D+00 0.00000000D+00 0.00000000D+00
  <mgrwgt>
 0.1472909459D-03    9    2    0
 0.424985067796521D+03 0.000000000000000D+00 0.000000000000000D+00 0.424985067796521D+03
 0.424985067796521D+03 0.000000000000000D+00 0.000000000000000D+00 -.424985067796521D+03
 0.231020254952287D+03 0.165533575348863D+03 0.121618577148313D+03 0.535038688214433D+02
 0.185271454373673D+03 -.142732747138659D+03 -.795319481092660D+02 0.873358112685313D+02
 0.191840294141946D+03 -.116303675883110D+03 -.149109078400498D+03 0.322898772233500D+02
 0.241838132125136D+03 0.935028476729064D+02 0.107022449361451D+03 -.173129557313325D+03
 0.000000000000000D+00 -.000000000000000D+00 -.000000000000000D+00 0.000000000000000D+00
 0.550723382227636D+03 0.000000000000000D+00 0.000000000000000D+00 0.550723382227636D+03
 0.443389574371664D+03 0.000000000000000D+00 0.000000000000000D+00 -.443389574371664D+03
 0.247972244954454D+03 0.170081374425703D+03 0.146234896718784D+03 0.535038688214433D+02
 0.175371521841404D+03 -.139308618797152D+03 -.609978316980810D+02 0.873358112685313D+02
 0.175308595715974D+03 -.112817777079508D+03 -.130240610930870D+03 0.322898772233500D+02
 0.255973484727120D+03 0.982293250436420D+02 0.132605918515381D+03 -.173129557313325D+03
 0.139487109360347D+03 -.161843035926849D+02 -.876023726052140D+02 0.107333807855971D+03
0.128049438218D-04 0.000000000000D+00 0.000000000000D+00 0.368146239651D-06 0.000000000000D+00  7 -2 2 23 -11 11 23 21 0 0.79775042D-02 0.53586277D+00 0.13916335D+06 0.13916335D+06 0.13916335D+06 0.11101311D+01  1  2  2  1  7  1       -2 0.124079849027D-03 0.100000000000D+01
-.696688954522D-06 0.000000000000D+00 -.491743558948D-07 0.368146239651D-06 0.000000000000D+00  7 -2 2 23 -11 11 23 21 2 0.79775042D-02 0.53586277D+00 0.13916335D+06 0.13916335D+06 0.13916335D+06 0.11101311D+01  1  2  3  1  7  1       -2 -.831976393903D-05 0.100000000000D+01
0.820881235204D-06 0.000000000000D+00 0.000000000000D+00 0.368146239651D-06 0.000000000000D+00  7 -2 2 23 -11 11 23 21 2 0.79775042D-02 0.53586277D+00 0.13916335D+06 0.13916335D+06 0.13916335D+06 0.11101311D+01  1  2 15  1  7  1       -2 0.980285112108D-05 0.100000000000D+01
0.225254595816D-04 0.000000000000D+00 0.000000000000D+00 0.368146239651D-06 0.000000000000D+00  7 -2 2 23 -11 11 23 21 2 0.10473403D-01 0.53586277D+00 0.17814578D+06 0.17814578D+06 0.17814578D+06 0.11017060D+01  1  2 12  1  7  1       -2 0.171855559664D-03 0.100000000000D+01
-.232402365920D-04 0.000000000000D+00 0.000000000000D+00 0.368146239651D-06 0.000000000000D+00  7 -2 2 23 -11 11 23 21 2 0.79775042D-02 0.53586277D+00 0.13916335D+06 0.13916335D+06 0.13916335D+06 0.11101311D+01  1  2  4  1  7  1       -2 -.277531717817D-03 0.100000000000D+01
-.302216302638D-04 0.000000000000D+00 -.624664794067D-05 0.368146239651D-06 0.000000000000D+00  7 -2 2 23 -11 11 23 21 2 0.11018653D-01 0.53586277D+00 0.13916335D+06 0.13916335D+06 0.13916335D+06 0.11101311D+01  1  2  5  1  7  1       -2 -.219310407830D-03 0.100000000000D+01
0.309244067145D-04 0.000000000000D+00 0.593444976456D-05 0.368146239651D-06 0.000000000000D+00  7 -2 2 23 -11 11 23 21 2 0.79775042D-02 0.53586277D+00 0.13916335D+06 0.13916335D+06 0.13916335D+06 0.11101311D+01  1  2  6  1  7  1       -2 0.369295023481D-03 0.100000000000D+01
0.811436809679D-06 0.000000000000D+00 0.000000000000D+00 0.368146239651D-06 0.000000000000D+00  7 21 2 23 -11 11 23 2 2 0.10473403D-01 0.53586277D+00 0.17814578D+06 0.17814578D+06 0.17814578D+06 0.11017060D+01  1  2 12  3  7  1       -2 0.884942915900D-04 0.100000000000D+01
-.107525629338D-05 0.000000000000D+00 -.254658590073D-06 0.368146239651D-06 0.000000000000D+00  7 21 2 23 -11 11 23 2 2 0.11018653D-01 0.53586277D+00 0.13916335D+06 0.13916335D+06 0.13916335D+06 0.11101311D+01  1  2  5  3  7  1       -2 -.111074739445D-03 0.100000000000D+01
  </mgrwgt>
  </event>
  <event>
  8     66 0.53686478E-06 0.29356234E+03 0.75467711E-02 0.91742603E-01
       -2 -1    0    0    0  501 0.00000000E+00 0.00000000E+00 0.38099054E+03 0.38099067E+03 0.32000000E+00 0.0000E+00 0.9000E+01
        2 -1    0    0  501    0 0.00000000E+00 0.00000000E+00 -.29122513E+03 0.29122531E+03 0.32000000E+00 0.0000E+00 0.9000E+01
       25  2    1    2    0    0 0.14589835E+03 -.15171133E+03 0.20014323E+03 0.41762483E+03 0.30008421E+03 0.0000E+00 0.0000E+00
       23  2    1    2    0    0 -.14589835E+03 0.15171133E+03 -.11037782E+03 0.25459116E+03 0.91272890E+02 0.0000E+00 0.0000E+00
       23  1    3    3    0    0 0.47550817E+02 0.51037988E+02 0.10808991E+03 0.15768525E+03 0.91188000E+02 0.0000E+00 0.9000E+01
      -13  1    4    4    0    0 -.11480541E+02 -.12524894E+02 -.54819978E+01 0.17853270E+02 0.10565837E+00 0.0000E+00 0.9000E+01
       13  1    4    4    0    0 -.13441780E+03 0.16423622E+03 -.10489582E+03 0.23673789E+03 0.10565837E+00 0.0000E+00 0.9000E+01
       23  1    3    3    0    0 0.98347528E+02 -.20274932E+03 0.92053313E+02 0.25993958E+03 0.91188000E+02 0.0000E+00 0.9000E+01
#aMCatNLO 1  0  0  2  2 0.53287730D+03 0.00000000D+00  -5  7  0 0.00000000D+00 0.00000000D+00 0.00000000D+00 0.00000000D+00 0.00000000D+00
  <mgrwgt>
 0.3015126712D-03    3    2    0
 0.333097770814667D+03 0.000000000000000D+00 0.000000000000000D+00 0.333097770814667D+03
 0.333097770814667D+03 0.000000000000000D+00 0.000000000000000D+00 -.333097770814667D+03
 0.144545860300525D+03 0.475508172114131D+02 0.510379880826969D+02 0.878196899391940D+02
 0.187529597144767D+02 -.114803758225504D+02 -.125251311728811D+02 -.793697411662077D+01
 0.253011625046388D+03 -.134417969549968D+03 0.164236459201385D+03 -.137742794147895D+03
 0.249885096567946D+03 0.983475281611057D+02 -.202749316111201D+03 0.578600783253219D+02
 0.000000000000000D+00 0.000000000000000D+00 0.000000000000000D+00 0.000000000000000D+00
 0.101273498844579D+04 0.000000000000000D+00 0.000000000000000D+00 0.101273498844579D+04
 0.547652622614297D+03 0.000000000000000D+00 0.000000000000000D+00 -.547652622614297D+03
 0.137855325491249D+03 0.289426270232275D+02 -.462478737054607D+02 0.878196899391940D+02
 0.355795201370223D+02 -.150604922290655D+02 -.312424113805436D+02 -.793697411662077D+01
 0.215162884991878D+03 -.165267274589630D+03 0.295257312767478D+01 -.137742794147895D+03
 0.464499400681886D+03 0.512747704634167D+02 -.448851368651074D+03 0.578600783253219D+02
 0.707290479758051D+03 0.100110369332052D+03 0.523389080609404D+03 0.465082365831491D+03
0.780736831553D-05 0.000000000000D+00 0.000000000000D+00 0.848977934972D-06 0.000000000000D+00  7 -2 2 23 -13 13 23 21 0 0.58613953D-01 0.44803890D-01 0.86178847D+05 0.86178847D+05 0.86178847D+05 0.11270620D+01  1  2  2  2  7  2        2 0.298519181392D-03 0.100000000000D+01
-.425324141487D-06 0.000000000000D+00 -.299823500589D-07 0.848977934972D-06 0.000000000000D+00  7 -2 2 23 -13 13 23 21 2 0.58613953D-01 0.44803890D-01 0.86178847D+05 0.86178847D+05 0.86178847D+05 0.11270620D+01  1  2  3  2  7  2        2 -.206577608055D-04 0.100000000000D+01
0.486957320673D-06 0.000000000000D+00 0.000000000000D+00 0.848977934972D-06 0.000000000000D+00  7 -2 2 23 -13 13 23 21 2 0.58613953D-01 0.44803890D-01 0.86178847D+05 0.86178847D+05 0.86178847D+05 0.11270620D+01  1  2 15  2  7  2        2 0.236512505916D-04 0.100000000000D+01
  </mgrwgt>
  </event>
  <event>
  8     66 0.53686478E-06 0.23031758E+03 0.75467711E-02 0.80180001E-01
       -2 -1    0    0    0  501 0.00000000E+00 0.00000000E+00 0.19794323E+03 0.19794349E+03 0.32000000E+00 0.0000E+00 0.9000E+01
        2 -1    0    0  501    0 0.00000000E+00 0.00000000E+00 -.69506980E+03 0.69506987E+03 0.32000000E+00 0.0000E+00 0.9000E+01
       25  2    1    2    0    0 0.13172055E+03 -.41303748E+02 0.38467278E+02 0.33237119E+03 0.29989094E+03 0.0000E+00 0.0000E+00
       23  2    1    2    0    0 -.13172055E+03 0.41303748E+02 -.53559384E+03 0.56064217E+03 0.91665526E+02 0.0000E+00 0.0000E+00
       23  1    3    3    0    0 0.24148422E+02 0.87361332E+02 -.25435162E+02 0.13106238E+03 0.91188000E+02 0.0000E+00 0.9000E+01
      -11  1    4    4    0    0 -.57489334E+02 0.28318270E+01 -.86957168E+02 0.10428131E+03 0.51099893E-03 0.0000E+00 0.9000E+01
       11  1    4    4    0    0 -.74231216E+02 0.38471921E+02 -.44863668E+03 0.45636085E+03 0.51099893E-03 0.0000E+00 0.9000E+01
       23  1    3    3    0    0 0.10757213E+03 -.12866508E+03 0.63902441E+02 0.20130881E+03 0.91188000E+02 0.0000E+00 0.9000E+01
#aMCatNLO 1  0  0  1  2 0.22335546D+04 0.00000000D+00  -5  7  0 0.00000000D+00 0.00000000D+00 0.00000000D+00 0.00000000D+00 0.00000000D+00
  <mgrwgt>
 0.3044981816D-03    3    2    0
 0.370923859448694D+03 0.000000000000000D+00 0.000000000000000D+00 0.370923859448694D+03
 0.370923859448694D+03 0.000000000000000D+00 0.000000000000000D+00 -.370923859448694D+03
 0.140724246985379D+03 0.241484222024086D+02 0.873613323732344D+02 0.572093843412903D+02
 0.672589322236789D+02 -.574893335410162D+02 0.283182698351490D+01 -.347954199401969D+02
 0.248712943146175D+03 -.742312159794812D+02 0.384719207111835D+02 -.234238694453825D+03
 0.285151596542154D+03 0.107572127318089D+03 -.128665080067933D+03 0.211824730052732D+03
 0.000000000000000D+00 0.000000000000000D+00 0.000000000000000D+00 -.000000000000000D+00
 0.173578526752645D+04 0.000000000000000D+00 0.000000000000000D+00 0.173578526752645D+04
 0.340779643090988D+04 0.000000000000000D+00 0.000000000000000D+00 -.340779643090988D+04
 0.335929711941023D+03 -.316069971964335D+03 0.368833185401528D+02 0.572093843412903D+02
 0.383343900380498D+03 -.379113373884400D+03 -.448873529193449D+02 -.347954199401969D+02
 0.993123440538277D+03 -.960609210671003D+03 -.930394891494165D+02 -.234238694453825D+03
 0.641133114980625D+03 -.553576471563357D+03 -.226759329797721D+03 0.211824730052732D+03
 0.279005153059590D+04 0.220936902808309D+04 0.327802853326330D+03 -.167201116338343D+04
0.593175530609D-05 0.000000000000D+00 0.000000000000D+00 0.118446660972D-05 0.000000000000D+00  7 -2 2 23 -11 11 23 21 0 0.30452830D-01 0.10693384D+00 0.53046188D+05 0.53046188D+05 0.53046188D+05 0.11450431D+01  1  2  2  1  7  1       -2 0.297154821829D-03 0.100000000000D+01
-.238553422315D-06 0.000000000000D+00 -.227795022424D-07 0.118446660972D-05 0.000000000000D+00  7 -2 2 23 -11 11 23 21 2 0.30452830D-01 0.10693384D+00 0.53046188D+05 0.53046188D+05 0.53046188D+05 0.11450431D+01  1  2  3  1  7  1       -2 -.156685510266D-04 0.100000000000D+01
0.350355949139D-06 0.000000000000D+00 0.000000000000D+00 0.118446660972D-05 0.000000000000D+00  7 -2 2 23 -11 11 23 21 2 0.30452830D-01 0.10693384D+00 0.53046188D+05 0.53046188D+05 0.53046188D+05 0.11450431D+01  1  2 15  1  7  1       -2 0.230119107632D-04 0.100000000000D+01
  </mgrwgt>
  </event>
  <event>
  9     66 0.53686478E-06 0.60618510E+03 0.75467711E-02 0.91521097E-01
       -2 -1    0    0    0  501 0.00000000E+00 0.00000000E+00 0.29039960E+03 0.29039978E+03 0.32000000E+00 0.0000E+00 0.9000E+01
        2 -1    0    0  502    0 0.00000000E+00 0.00000000E+00 -.31187260E+04 0.31187260E+04 0.32000000E+00 0.0000E+00 0.9000E+01
       25  2    1    2    0    0 0.57360860E+03 0.13855777E+03 -.25681202E+04 0.26520880E+04 0.30017364E+03 0.0000E+00 0.0000E+00
       23  2    1    2    0    0 -.52745598E+03 -.23920626E+03 -.16004439E+03 0.60772896E+03 0.91054062E+02 0.0000E+00 0.0000E+00
       23  1    3    3    0    0 0.10764486E+03 0.23721932E+02 -.98445424E+03 0.99479422E+03 0.91188000E+02 0.0000E+00 0.9000E+01
      -11  1    4    4    0    0 -.15840025E+02 0.70292758E+01 0.15361778E+01 0.17397613E+02 0.51099893E-03 0.0000E+00 0.9000E+01
       11  1    4    4    0    0 -.51161595E+03 -.24623554E+03 -.16158057E+03 0.59033135E+03 0.51099893E-03 0.0000E+00 0.9000E+01
       23  1    3    3    0    0 0.46596373E+03 0.11483584E+03 -.15836660E+04 0.16572938E+04 0.91188000E+02 0.0000E+00 0.9000E+01
       21  1    1    2  502  501 -.46152622E+02 0.10064849E+03 -.10016181E+03 0.14930885E+03 0.75000000E+00 0.0000E+00 0.9000E+01
#aMCatNLO 2  0  0  2  2 0.11072571D+03 0.00000000D+00  -5  7  0 0.00000000D+00 0.00000000D+00 0.00000000D+00 0.00000000D+00 0.00000000D+00
  <mgrwgt>
 0.1025965288D-03    1    2    0
 0.890402197869096D+03 0.000000000000000D+00 0.000000000000000D+00 0.890402197869096D+03
 0.890402197869096D+03 0.000000000000000D+00 0.000000000000000D+00 -.890402197869096D+03
 0.311383638381453D+03 0.995716509806386D+02 0.413277961302015D+02 -.277528410249621D+03
 0.350080696764496D+02 -.167351328194279D+02 0.898130568070416D+01 0.294081012691574D+02
 0.832423224249113D+03 -.533156550948184D+03 -.199260335807207D+03 0.607427226113816D+03
 0.601989463431176D+03 0.450320032786974D+03 0.148951233996301D+03 -.359306917133352D+03
 0.000000000000000D+00 -.000000000000000D+00 0.000000000000000D+00 0.000000000000000D+00
 0.974590059298598D+03 0.000000000000000D+00 0.000000000000000D+00 0.974590059298598D+03
 0.929288018615056D+03 0.000000000000000D+00 0.000000000000000D+00 -.929288018615056D+03
 0.312229750046442D+03 0.107644864786082D+03 0.237219320369958D+02 -.277528410249621D+03
 0.341343451185193D+02 -.158400245552008D+02 0.702927581645594D+01 0.294081012691574D+02
 0.831474989376921D+03 -.511615951791129D+03 -.246235539286846D+03 0.607427226113816D+03
 0.606404306714469D+03 0.465963733593567D+03 0.114835839934776D+03 -.359306917133352D+03
 0.119634686657304D+03 -.461526220333192D+02 0.100648491498619D+03 0.453020406835420D+02
0.101837505502D-03 0.000000000000D+00 0.000000000000D+00 0.725619955703D-05 0.364543601912D-08  7 -2 2 23 -11 11 23 21 2 0.44676821D-01 0.47980342D+00 0.44049281D+06 0.44049281D+06 0.44049281D+06 0.10724216D+01  1  2  1  2  7  2        2 0.102596528757D-03 0.100000000000D+01
  </mgrwgt>
  </event>
  <event>
  8     66 0.53686478E-06 0.14629084E+03 0.75467711E-02 0.98820067E-01
       -2 -1    0    0    0  501 0.00000000E+00 0.00000000E+00 0.64325787E+03 0.64325795E+03 0.32000000E+00 0.0000E+00 0.9000E+01
        2 -1    0    0  501    0 0.00000000E+00 0.00000000E+00 -.46533127E+03 0.46533138E+03 0.32000000E+00 0.0000E+00 0.9000E+01
       25  2    1    2    0    0 -.72654189E+02 -.17709126E+03 -.37311761E+03 0.51808142E+03 0.30422305E+03 0.0000E+00 0.0000E+00
       23  2    1    2    0    0 0.72654189E+02 0.17709126E+03 0.55104421E+03 0.59050791E+03 0.91705656E+02 0.0000E+00 0.0000E+00
       23  1    3    3    0    0 -.13273403E+03 -.17185373E+03 -.31780351E+03 0.39555828E+03 0.91188000E+02 0.0000E+00 0.9000E+01
      -13  1    4    4    0    0 0.17963495E+02 0.10253626E+02 0.16648381E+03 0.16776380E+03 0.10565837E+00 0.0000E+00 0.9000E+01
       13  1    4    4    0    0 0.54690694E+02 0.16683763E+03 0.38456040E+03 0.42274410E+03 0.10565837E+00 0.0000E+00 0.9000E+01
       23  1    3    3    0    0 0.60079843E+02 -.52375234E+01 -.55314100E+02 0.12252314E+03 0.91188000E+02 0.0000E+00 0.9000E+01
#aMCatNLO 1  0  0  1  2 0.14005489D+03 0.00000000D+00  -5  7  0 0.00000000D+00 0.00000000D+00 0.00000000D+00 0.00000000D+00 0.00000000D+00
  <mgrwgt>
 0.2748412834D-03    9    2    0
 0.547108861624953D+03 0.000000000000000D+00 0.000000000000000D+00 0.547108861624953D+03
 0.547108861624953D+03 0.000000000000000D+00 0.000000000000000D+00 -.547108861624953D+03
 0.452430418168659D+03 -.132734030366513D+03 -.171853732718090D+03 -.386297817329827D+03
 0.142895640762442D+03 0.179634467594796D+02 0.102534182490044D+02 0.141390756924345D+03
 0.365764870885190D+03 0.546907424963968D+02 0.166837839370388D+03 0.320870688616260D+03
 0.133126793433615D+03 0.600798411106367D+02 -.523752490130225D+01 -.759636282107781D+02
 0.000000000000000D+00 -.000000000000000D+00 -.000000000000000D+00 0.000000000000000D+00
 0.632512334718743D+03 0.000000000000000D+00 0.000000000000000D+00 0.632512334718743D+03
 0.612158340741268D+03 0.000000000000000D+00 0.000000000000000D+00 -.612158340741268D+03
 0.430126321287379D+03 -.116328399712664D+03 -.118047027352307D+03 -.386297817329827D+03
 0.145987300803292D+03 0.233334208695248D+02 0.278657015471960D+02 0.141390756924345D+03
 0.391216527882405D+03 0.687620839578754D+02 0.212988611632317D+03 0.320870688616260D+03
 0.135814354551598D+03 0.650791221134501D+02 0.111589700360032D+02 -.759636282107781D+02
 0.141526170935337D+03 -.408462272281861D+02 -.133966255863208D+03 0.203539939774753D+02
0.314759081380D-04 0.000000000000D+00 0.000000000000D+00 0.335451504189D-07 0.000000000000D+00  7 -2 2 23 -13 13 23 21 0 0.98962763D-01 0.71589441D-01 0.73196844D+05 0.73196844D+05 0.73196844D+05 0.11330146D+01  1  2  2  1  7  1       -2 0.229477441618D-03 0.100000000000D+01
-.694342862020D-06 0.000000000000D+00 -.120875775047D-06 0.335451504189D-07 0.000000000000D+00  7 -2 2 23 -13 13 23 21 2 0.98962763D-01 0.71589441D-01 0.73196844D+05 0.73196844D+05 0.73196844D+05 0.11330146D+01  1  2  3  1  7  1       -2 -.649840403393D-05 0.100000000000D+01
0.191523445586D-05 0.000000000000D+00 0.000000000000D+00 0.335451504189D-07 0.000000000000D+00  7 -2 2 23 -13 13 23 21 2 0.98962763D-01 0.71589441D-01 0.73196844D+05 0.73196844D+05 0.73196844D+05 0.11330146D+01  1  2 15  1  7  1       -2 0.179248149505D-04 0.100000000000D+01
0.140591558307D-04 0.000000000000D+00 0.000000000000D+00 0.335451504189D-07 0.000000000000D+00  7 -2 2 23 -13 13 23 21 2 0.11950092D+00 0.71589441D-01 0.12318681D+06 0.12318681D+06 0.12318681D+06 0.11143651D+01  1  2 12  1  7  1       -2 0.788402992515D-04 0.100000000000D+01
-.213691468186D-04 0.000000000000D+00 0.000000000000D+00 0.335451504189D-07 0.000000000000D+00  7 -2 2 23 -13 13 23 21 2 0.98962763D-01 0.71589441D-01 0.73196844D+05 0.73196844D+05 0.73196844D+05 0.11330146D+01  1  2  4  1  7  1       -2 -.199995358898D-03 0.100000000000D+01
-.351091891984D-04 0.000000000000D+00 -.181364543196D-04 0.335451504189D-07 0.000000000000D+00  7 -2 2 23 -13 13 23 21 2 0.12480869D+00 0.71589441D-01 0.73196844D+05 0.73196844D+05 0.73196844D+05 0.11330146D+01  1  2  5  1  7  1       -2 -.185394126323D-03 0.100000000000D+01
0.387472739026D-04 0.000000000000D+00 0.176589231243D-04 0.335451504189D-07 0.000000000000D+00  7 -2 2 23 -13 13 23 21 2 0.98962763D-01 0.71589441D-01 0.73196844D+05 0.73196844D+05 0.73196844D+05 0.11330146D+01  1  2  6  1  7  1       -2 0.362638481369D-03 0.100000000000D+01
0.384492613855D-06 0.000000000000D+00 0.000000000000D+00 0.335451504189D-07 0.000000000000D+00  7 21 2 23 -13 13 23 2 2 0.11950092D+00 0.71589441D-01 0.12318681D+06 0.12318681D+06 0.12318681D+06 0.11143651D+01  1  2 12  3  7  1       -2 0.198168642771D-04 0.100000000000D+01
-.855563534935D-06 0.000000000000D+00 -.580758938418D-06 0.335451504189D-07 0.000000000000D+00  7 21 2 23 -13 13 23 2 2 0.12480869D+00 0.71589441D-01 0.73196844D+05 0.73196844D+05 0.73196844D+05 0.11330146D+01  1  2  5  3  7  1       -2 -.419687287853D-04 0.100000000000D+01
  </mgrwgt>
  </event>
  <event>
  8     66 0.53686478E-06 0.23760751E+03 0.75467711E-02 0.89305459E-01
       -2 -1    0    0    0  501 0.00000000E+00 0.00000000E+00 0.42665085E+03 0.42665097E+03 0.32000000E+00 0.0000E+00 0.9000E+01
        2 -1    0    0  501    0 0.00000000E+00 0.00000000E+00 -.24899074E+04 0.24899074E+04 0.32000000E+00 0.0000E+00 0.9000E+01
       25  2    1    2    0    0 -.81341270E+02 -.64931080E+03 -.21340181E+04 0.22521980E+04 0.30023572E+03 0.0000E+00 0.0000E+00
       23  2    1    2    0    0 0.81341270E+02 0.64931080E+03 0.70761599E+02 0.66436038E+03 0.90258488E+02 0.0000E+00 0.0000E+00
       23  1    3    3    0    0 0.48379213E+01 -.85643224E+02 -.60387924E+03 0.61672000E+03 0.91188000E+02 0.0000E+00 0.9000E+01
      -13  1    4    4    0    0 0.70506912E+02 0.53915116E+03 0.92503118E+02 0.55155420E+03 0.10565837E+00 0.0000E+00 0.9000E+01
       13  1    4    4    0    0 0.10834357E+02 0.11015963E+03 -.21741518E+02 0.11280617E+03 0.10565837E+00 0.0000E+00 0.9000E+01
       23  1    3    3    0    0 -.86179191E+02 -.56366757E+03 -.15301389E+04 0.16354780E+04 0.91188000E+02 0.0000E+00 0.9000E+01
#aMCatNLO 1  0  0  2  1 0.26444213D+03 0.00000000D+00  -5  7  0 0.00000000D+00 0.00000000D+00 0.00000000D+00 0.00000000D+00 0.00000000D+00
  <mgrwgt>
 0.2092598867D-03    9    2    0
 0.103068971904166D+04 0.000000000000000D+00 0.000000000000000D+00 0.103068971904166D+04
 0.103068971904166D+04 0.000000000000000D+00 0.000000000000000D+00 -.103068971904166D+04
 0.268141843487958D+03 0.483792130560634D+01 -.856432238707571D+02 -.237121550280831D+03
 0.872959013989026D+03 0.705069941344492D+02 0.539151752446075D+03 0.682936008508223D+03
 0.137842349668977D+03 0.108342755234877D+02 0.110159046187160D+03 0.821469194752964D+02
 0.782436230937362D+03 -.861791909635433D+02 -.563667574762478D+03 -.527961377702688D+03
 0.000000000000000D+00 0.000000000000000D+00 0.000000000000000D+00 -.000000000000000D+00
 0.108972536901091D+04 0.000000000000000D+00 0.000000000000000D+00 0.108972536901091D+04
 0.138471108831566D+04 0.000000000000000D+00 0.000000000000000D+00 -.138471108831566D+04
 0.269930574315073D+03 -.295279080610976D+02 -.863060637731531D+02 -.237121550280831D+03
 0.869735735020196D+03 -.407961472293684D+02 0.537004964060125D+03 0.682936008508223D+03
 0.137309819679869D+03 -.673925582444750D+01 0.109820092115104D+03 0.821469194752964D+02
 0.801295948663928D+03 -.187329645894797D+03 -.565618540559302D+03 -.527961377702688D+03
 0.396164379647499D+03 0.264392957009710D+03 0.509954815722611D+01 -.294985719304751D+03
0.183478975977D-03 0.000000000000D+00 0.000000000000D+00 0.732781180187D-05 0.000000000000D+00  7 -2 2 23 -13 13 23 21 0 0.65638603D-01 0.38306268D+00 0.46042283D+06 0.46042283D+06 0.46042283D+06 0.10710507D+01  1  2  2  2  7  2        2 0.178393537503D-03 0.100000000000D+01
-.802748370282D-05 0.000000000000D+00 -.704607578877D-06 0.732781180187D-05 0.000000000000D+00  7 -2 2 23 -13 13 23 21 2 0.65638603D-01 0.38306268D+00 0.46042283D+06 0.46042283D+06 0.46042283D+06 0.10710507D+01  1  2  3  2  7  2        2 -.895348922995D-05 0.100000000000D+01
0.104288899050D-04 0.000000000000D+00 0.000000000000D+00 0.732781180187D-05 0.000000000000D+00  7 -2 2 23 -13 13 23 21 2 0.65638603D-01 0.38306268D+00 0.46042283D+06 0.46042283D+06 0.46042283D+06 0.10710507D+01  1  2 15  2  7  2        2 0.116319081921D-04 0.100000000000D+01
0.174430937792D-03 0.000000000000D+00 0.000000000000D+00 0.732781180187D-05 0.000000000000D+00  7 -2 2 23 -13 13 23 21 2 0.65638603D-01 0.52278603D+00 0.67631841D+06 0.67631841D+06 0.67631841D+06 0.10593609D+01  1  2 12  2  7  2        2 0.490458331630D-04 0.100000000000D+01
-.211816704711D-03 0.000000000000D+00 0.000000000000D+00 0.732781180187D-05 0.000000000000D+00  7 -2 2 23 -13 13 23 21 2 0.65638603D-01 0.38306268D+00 0.46042283D+06 0.46042283D+06 0.46042283D+06 0.10710507D+01  1  2  4  2  7  2        2 -.236250692566D-03 0.100000000000D+01
-.251005352210D-03 0.000000000000D+00 -.634177173500D-04 0.732781180187D-05 0.000000000000D+00  7 -2 2 23 -13 13 23 21 2 0.65638603D-01 0.52142407D+00 0.46042283D+06 0.46042283D+06 0.46042283D+06 0.10710507D+01  1  2  5  2  7  2        2 -.756394093132D-04 0.100000000000D+01
0.260955675624D-03 0.000000000000D+00 0.605175680677D-04 0.732781180187D-05 0.000000000000D+00  7 -2 2 23 -13 13 23 21 2 0.65638603D-01 0.38306268D+00 0.46042283D+06 0.46042283D+06 0.46042283D+06 0.10710507D+01  1  2  6  2  7  2        2 0.291058059748D-03 0.100000000000D+01
0.691980139446D-05 0.000000000000D+00 0.000000000000D+00 0.732781180187D-05 0.000000000000D+00  7 -2 21 23 -13 13 23 -2 2 0.65638603D-01 0.52278603D+00 0.67631841D+06 0.67631841D+06 0.67631841D+06 0.10593609D+01  1  2 12  4  7  2        2 0.758603111468D-07 0.100000000000D+01
-.841366084749D-05 0.000000000000D+00 -.250058722882D-05 0.732781180187D-05 0.000000000000D+00  7 -2 21 23 -13 13 23 -2 2 0.65638603D-01 0.52142407D+00 0.46042283D+06 0.46042283D+06 0.46042283D+06 0.10710507D+01  1  2  5  4  7  2        2 -.101721090513D-06 0.100000000000D+01
  </mgrwgt>
  </event>
  <event>
  9     66 0.53686478E-06 0.21387825E+03 0.75467711E-02 0.96376523E-01
       21 -1    0    0  502  501 0.00000000E+00 0.00000000E+00 0.15249467E+03 0.15249651E+03 0.75000000E+00 0.0000E+00 0.9000E+01
        2 -1    0    0  501    0 0.00000000E+00 0.00000000E+00 -.19591808E+04 0.19591809E+04 0.32000000E+00 0.0000E+00 0.9000E+01
       25  2    1    2    0    0 -.13726410E+03 0.28931231E+02 -.14047681E+04 0.14432534E+04 0.29988081E+03 0.0000E+00 0.0000E+00
       23  2    1    2    0    0 -.14586281E+03 0.11199200E+03 -.12884167E+03 0.25058307E+03 0.11123637E+03 0.0000E+00 0.0000E+00
       23  1    3    3    0    0 -.19090565E+03 -.20225670E+02 -.83110912E+03 0.85785294E+03 0.91188000E+02 0.0000E+00 0.9000E+01
      -13  1    4    4    0    0 -.14306421E+03 0.49500377E+02 -.10182120E+03 0.18244239E+03 0.10565837E+00 0.0000E+00 0.9000E+01
       13  1    4    4    0    0 -.27985951E+01 0.62491624E+02 -.27020476E+02 0.68140681E+02 0.10565837E+00 0.0000E+00 0.9000E+01
       23  1    3    3    0    0 0.53641548E+02 0.49156901E+02 -.57365897E+03 0.58540045E+03 0.91188000E+02 0.0000E+00 0.9000E+01
        2  1    1    2  502    0 0.28312691E+03 -.14092323E+03 -.27307640E+03 0.41784091E+03 0.32000000E+00 0.0000E+00 0.9000E+01
#aMCatNLO 2  0  0  1  1 0.31625971D+03 0.00000000D+00  -5  7  0 0.00000000D+00 0.00000000D+00 0.00000000D+00 0.00000000D+00 0.00000000D+00
  <mgrwgt>
 0.2521181917D-04    1    2    0
 0.322917486639873D+03 0.000000000000000D+00 0.000000000000000D+00 0.322917486639873D+03
 0.322917486639873D+03 0.000000000000000D+00 0.000000000000000D+00 -.322917486639873D+03
 0.197055461754559D+03 -.985529397716456D+02 -.661932133899811D+02 -.128145933321262D+03
 0.163187982977510D+03 -.651182142878124D+02 0.107039409997091D+02 0.149249326977743D+03
 0.996869514488263D+02 0.392184085134541D+02 0.415778664013612D+02 0.816742661328711D+02
 0.185904577098851D+03 0.124452745546004D+03 0.139114059889109D+02 -.102777659789352D+03
 0.000000000000000D+00 0.000000000000000D+00 -.000000000000000D+00 0.000000000000000D+00
 0.684414710936540D+03 0.000000000000000D+00 0.000000000000000D+00 0.684414710936540D+03
 0.436528491252491D+03 0.000000000000000D+00 0.000000000000000D+00 -.436528491252491D+03
 0.248174707288676D+03 -.190905671967398D+03 -.202256811435106D+02 -.128145933321262D+03
 0.212586346772627D+03 -.143063934174739D+03 0.495005451411230D+02 0.149249326977743D+03
 0.102877131194131D+03 -.279883959218079D+01 0.624914783896869D+02 0.816742661328711D+02
 0.155474475487536D+03 0.536415328006952D+02 0.491568895592536D+02 -.102777659789352D+03
 0.401830541446060D+03 0.283126912933622D+03 -.140923231946553D+03 0.247886219684049D+03
0.120122409858D-06 0.000000000000D+00 0.000000000000D+00 0.293426554534D-08 0.238647894152D-13  7 21 2 23 -13 13 23 2 2 0.23460859D-01 0.30141254D+00 0.18463695D+06 0.18463695D+06 0.18463695D+06 0.11005013D+01  1  2  1  3  7  1       -2 0.252118191729D-04 0.100000000000D+01
  </mgrwgt>
  </event>
  <event>
  8     66 0.53686478E-06 0.13764938E+03 0.75467711E-02 0.10477664E+00
       -2 -1    0    0    0  501 0.00000000E+00 0.00000000E+00 0.35261737E+03 0.35261752E+03 0.32000000E+00 0.0000E+00 0.9000E+01
        2 -1    0    0  501    0 0.00000000E+00 0.00000000E+00 -.16974920E+03 0.16974950E+03 0.32000000E+00 0.0000E+00 0.9000E+01
       25  2    1    2    0    0 -.10370210E+03 -.25778379E+02 0.39125639E+02 0.32256599E+03 0.30182669E+03 0.0000E+00 0.0000E+00
       23  2    1    2    0    0 0.10370210E+03 0.25778379E+02 0.14374253E+03 0.19980103E+03 0.88543121E+02 0.0000E+00 0.0000E+00
       23  1    3    3    0    0 -.15092085E+03 -.64571817E+02 0.81756195E+02 0.20480710E+03 0.91188000E+02 0.0000E+00 0.9000E+01
      -13  1    4    4    0    0 0.73571503E+02 0.53908708E+02 0.68716114E+02 0.11419645E+03 0.10565837E+00 0.0000E+00 0.9000E+01
       13  1    4    4    0    0 0.30130602E+02 -.28130329E+02 0.75026417E+02 0.85604573E+02 0.10565837E+00 0.0000E+00 0.9000E+01
       23  1    3    3    0    0 0.47218744E+02 0.38793437E+02 -.42630556E+02 0.11775889E+03 0.91188000E+02 0.0000E+00 0.9000E+01
#aMCatNLO 1  0  0  2  1 0.16532902D+02 0.00000000D+00  -5  7  0 0.00000000D+00 0.00000000D+00 0.00000000D+00 0.00000000D+00 0.00000000D+00
  <mgrwgt>
 0.1888721357D-03    9    2    0
 0.244656154485473D+03 0.000000000000000D+00 0.000000000000000D+00 0.244656154485473D+03
 0.244656154485473D+03 0.000000000000000D+00 0.000000000000000D+00 -.244656154485473D+03
 0.188088181364829D+03 -.150920838107470D+03 -.645718046860609D+02 0.107375644190426D+02
 0.962299677112973D+02 0.735715882093333D+02 0.539088290412604D+02 0.306800626706299D+02
 0.633481841059809D+02 0.301305565327232D+02 -.281304399030812D+02 0.481021864722672D+02
 0.141645975788838D+03 0.472186933654132D+02 0.387934155478817D+02 -.895198135619397D+02
 0.000000000000000D+00 0.000000000000000D+00 0.000000000000000D+00 -.000000000000000D+00
 0.252149618316026D+03 0.000000000000000D+00 0.000000000000000D+00 0.252149618316026D+03
 0.254088072637770D+03 0.000000000000000D+00 0.000000000000000D+00 -.254088072637770D+03
 0.192715926661811D+03 -.154274055001962D+03 -.700599579554460D+02 0.107375644190426D+02
 0.934345120752778D+02 0.719014745616597D+02 0.511753823349709D+02 0.306800626706299D+02
 0.636646097753453D+02 0.290121299262808D+02 -.299609497775828D+02 0.481021864722672D+02
 0.139776487939159D+03 0.447405936286414D+02 0.347375517012680D+02 -.895198135619397D+02
 0.166461545022038D+02 0.861985688538050D+01 0.141079736967897D+02 -.193845432174408D+01
0.118817311624D-05 0.000000000000D+00 0.000000000000D+00 0.220539950061D-08 0.000000000000D+00  7 -2 2 23 -13 13 23 21 0 0.54248861D-01 0.26115296D-01 0.46221172D+05 0.46221172D+05 0.46221172D+05 0.11503095D+01  1  2  2  2  7  2        2 0.969452636747D-04 0.100000000000D+01
-.646687128910D-07 0.000000000000D+00 -.456289761954D-08 0.220539950061D-08 0.000000000000D+00  7 -2 2 23 -13 13 23 21 2 0.54248861D-01 0.26115296D-01 0.46221172D+05 0.46221172D+05 0.46221172D+05 0.11503095D+01  1  2  3  2  7  2        2 -.698185004218D-05 0.100000000000D+01
0.766646456355D-07 0.000000000000D+00 0.000000000000D+00 0.220539950061D-08 0.000000000000D+00  7 -2 2 23 -13 13 23 21 2 0.54248861D-01 0.26115296D-01 0.46221172D+05 0.46221172D+05 0.46221172D+05 0.11503095D+01  1  2 15  2  7  2        2 0.827697097151D-05 0.100000000000D+01
0.286212839201D-05 0.000000000000D+00 0.000000000000D+00 0.220539950061D-08 0.000000000000D+00  7 -2 2 23 -13 13 23 21 2 0.54248861D-01 0.27508282D-01 0.49786401D+05 0.49786401D+05 0.49786401D+05 0.11474590D+01  1  2 12  2  7  2        2 0.289914286950D-03 0.100000000000D+01
-.238005568951D-05 0.000000000000D+00 0.000000000000D+00 0.220539950061D-08 0.000000000000D+00  7 -2 2 23 -13 13 23 21 2 0.54248861D-01 0.26115296D-01 0.46221172D+05 0.46221172D+05 0.46221172D+05 0.11503095D+01  1  2  4  2  7  2        2 -.256958754447D-03 0.100000000000D+01
-.143554819558D-04 0.000000000000D+00 -.256382534710D-05 0.220539950061D-08 0.000000000000D+00  7 -2 2 23 -13 13 23 21 2 0.54248861D-01 0.27906022D-01 0.46221172D+05 0.46221172D+05 0.46221172D+05 0.11503095D+01  1  2  5  2  7  2        2 -.143758507625D-02 0.100000000000D+01
0.144992471347D-04 0.000000000000D+00 0.255819714871D-05 0.220539950061D-08 0.000000000000D+00  7 -2 2 23 -13 13 23 21 2 0.54248861D-01 0.26115296D-01 0.46221172D+05 0.46221172D+05 0.46221172D+05 0.11503095D+01  1  2  6  2  7  2        2 0.156538710442D-02 0.100000000000D+01
0.328575161161D-07 0.000000000000D+00 0.000000000000D+00 0.220539950061D-08 0.000000000000D+00  7 -2 21 23 -13 13 23 -2 2 0.54248861D-01 0.27508282D-01 0.49786401D+05 0.49786401D+05 0.49786401D+05 0.11474590D+01  1  2 12  4  7  2        2 0.188699816507D-04 0.100000000000D+01
-.158156166843D-06 0.000000000000D+00 -.289401451749D-07 0.220539950061D-08 0.000000000000D+00  7 -2 21 23 -13 13 23 -2 2 0.54248861D-01 0.27906022D-01 0.46221172D+05 0.46221172D+05 0.46221172D+05 0.11503095D+01  1  2  5  4  7  2        2 -.889957912426D-04 0.100000000000D+01
  </mgrwgt>
  </event>
  <event>
  8     66 0.53686478E-06 0.10564421E+03 0.75467711E-02 0.10215376E+00
       -4 -1    0    0    0  501 0.00000000E+00 0.00000000E+00 0.91577895E+03 0.91578026E+03 0.15500000E+01 0.0000E+00 0.9000E+01
        4 -1    0    0  501    0 0.00000000E+00 0.00000000E+00 -.50247450E+02 0.50271351E+02 0.15500000E+01 0.0000E+00 0.9000E+01
       25  2    1    2    0    0 -.42361898E+02 0.16844378E+02 0.49237766E+03 0.57894945E+03 0.30111201E+03 0.0000E+00 0.0000E+00
       23  2    1    2    0    0 0.42361898E+02 -.16844378E+02 0.37315384E+03 0.38710216E+03 0.92336508E+02 0.0000E+00 0.0000E+00
       23  1    3    3    0    0 -.74042476E+02 0.87086434E+02 0.12404405E+03 0.19175117E+03 0.91188000E+02 0.0000E+00 0.9000E+01
      -11  1    4    4    0    0 -.23179832E+02 0.14060865E+01 0.33885349E+02 0.41079174E+02 0.51099893E-03 0.0000E+00 0.9000E+01
       11  1    4    4    0    0 0.65541730E+02 -.18250465E+02 0.33926849E+03 0.34602298E+03 0.51099893E-03 0.0000E+00 0.9000E+01
       23  1    3    3    0    0 0.31680579E+02 -.70242056E+02 0.36833362E+03 0.38719828E+03 0.91188000E+02 0.0000E+00 0.9000E+01
#aMCatNLO 1  0  0  1  2 0.15585395D+03 0.00000000D+00  -5  7  0 0.00000000D+00 0.00000000D+00 0.00000000D+00 0.00000000D+00 0.00000000D+00
  <mgrwgt>
 0.3861853183D-04    8    2    0
 0.214540753499691D+03 0.000000000000000D+00 0.000000000000000D+00 0.214540753499691D+03
 0.214540753499691D+03 0.000000000000000D+00 0.000000000000000D+00 -.214540753499691D+03
 0.181498149654555D+03 -.740424763476085D+02 0.870864334108195D+02 -.107517402294344D+03
 0.241347282556847D+02 -.231798317916057D+02 0.140608642695071D+01 -.657293138930842D+01
 0.946871326705545D+02 0.655417300440737D+02 -.182504648203779D+02 0.658548043049337D+02
 0.128761496418588D+03 0.316805780951405D+02 -.702420550173923D+02 0.482355293787191D+02
 0.000000000000000D+00 0.000000000000000D+00 0.000000000000000D+00 0.000000000000000D+00
 0.364780149005071D+03 0.000000000000000D+00 0.000000000000000D+00 0.364780149005071D+03
 0.272734826052285D+03 0.000000000000000D+00 0.000000000000000D+00 -.272734826052285D+03
 0.183492667727135D+03 -.112023784418102D+03 0.352843831481223D+02 -.107517402294344D+03
 0.302440554715936D+02 -.288385421998860D+02 -.631173099123108D+01 -.657293138930842D+01
 0.920092788913925D+02 0.461139154649068D+02 -.447477256692268D+02 0.658548043049337D+02
 0.150764012863952D+03 0.259287512830301D+01 -.109914270843079D+03 0.482355293787191D+02
 0.181004960103283D+03 0.921555360247785D+02 0.125689344355414D+03 0.920453229527864D+02
0.333728386733D-05 0.000000000000D+00 0.000000000000D+00 0.144608943425D-07 0.000000000000D+00  7 -4 4 23 -11 11 23 21 0 0.14089101D+00 0.77323163D-02 0.31838599D+05 0.31838599D+05 0.31838599D+05 0.11649467D+01  1  2  2  1  7  1       -4 0.243990506909D-04 0.100000000000D+01
-.177749224667D-06 0.000000000000D+00 -.128160487776D-07 0.144608943425D-07 0.000000000000D+00  7 -4 4 23 -11 11 23 21 2 0.14089101D+00 0.77323163D-02 0.31838599D+05 0.31838599D+05 0.31838599D+05 0.11649467D+01  1  2  3  1  7  1       -4 -.176359797959D-05 0.100000000000D+01
0.201937966409D-06 0.000000000000D+00 0.000000000000D+00 0.144608943425D-07 0.000000000000D+00  7 -4 4 23 -11 11 23 21 2 0.14089101D+00 0.77323163D-02 0.31838599D+05 0.31838599D+05 0.31838599D+05 0.11649467D+01  1  2 15  1  7  1       -4 0.200359461612D-05 0.100000000000D+01
0.397771148581D-07 0.000000000000D+00 0.000000000000D+00 0.144608943425D-07 0.000000000000D+00  7 -4 4 23 -11 11 23 21 2 0.24773195D+00 0.77323163D-02 0.73214517D+05 0.73214517D+05 0.73214517D+05 0.11330057D+01  1  2 12  1  7  1       -4 0.488876263409D-07 0.100000000000D+01
-.113065944973D-05 0.000000000000D+00 -.938949494773D-06 0.144608943425D-07 0.000000000000D+00  7 -4 4 23 -11 11 23 21 2 0.27200681D+00 0.77323163D-02 0.31838599D+05 0.31838599D+05 0.31838599D+05 0.11649467D+01  1  2  5  1  7  1       -4 -.939263991770D-06 0.100000000000D+01
0.156854225385D-05 0.000000000000D+00 0.766931600126D-06 0.144608943425D-07 0.000000000000D+00  7 -4 4 23 -11 11 23 21 2 0.14089101D+00 0.77323163D-02 0.31838599D+05 0.31838599D+05 0.31838599D+05 0.11649467D+01  1  2  6  1  7  1       -4 0.155628130304D-04 0.100000000000D+01
0.247634917915D-08 0.000000000000D+00 0.000000000000D+00 0.144608943425D-07 0.000000000000D+00  7 21 4 23 -11 11 23 4 2 0.24773195D+00 0.77323163D-02 0.73214517D+05 0.73214517D+05 0.73214517D+05 0.11330057D+01  1  2 12  3  7  1       -4 0.986521180397D-07 0.100000000000D+01
-.261262456629D-07 0.000000000000D+00 -.669977438388D-07 0.144608943425D-07 0.000000000000D+00  7 21 4 23 -11 11 23 4 2 0.27200681D+00 0.77323163D-02 0.31838599D+05 0.31838599D+05 0.31838599D+05 0.11649467D+01  1  2  5  3  7  1       -4 -.791604281940D-06 0.100000000000D+01
  </mgrwgt>
  </event>
  <event>
  8     66 0.53686478E-06 0.11168732E+03 0.75467711E-02 0.10225751E+00
       -2 -1    0    0    0  501 0.00000000E+00 0.00000000E+00 0.83984169E+03 0.83984175E+03 0.32000000E+00 0.0000E+00 0.9000E+01
        2 -1    0    0  501    0 0.00000000E+00 0.00000000E+00 -.96862432E+02 0.96862960E+02 0.32000000E+00 0.0000E+00 0.9000E+01
       25  2    1    2    0    0 -.20792697E+02 -.14509327E+03 0.67052728E+03 0.74891454E+03 0.29963606E+03 0.0000E+00 0.0000E+00
       23  2    1    2    0    0 0.20792697E+02 0.14509327E+03 0.72451984E+02 0.18779017E+03 0.92365935E+02 0.0000E+00 0.0000E+00
       23  1    3    3    0    0 -.10394939E+03 -.15308986E+03 0.47058197E+03 0.51381380E+03 0.91188000E+02 0.0000E+00 0.9000E+01
      -11  1    4    4    0    0 0.18851766E+02 -.67233132E+01 0.11379585E+01 0.20047119E+02 0.51099893E-03 0.0000E+00 0.9000E+01
       11  1    4    4    0    0 0.19409310E+01 0.15181658E+03 0.71314025E+02 0.16774305E+03 0.51099893E-03 0.0000E+00 0.9000E+01
       23  1    3    3    0    0 0.83156692E+02 0.79965917E+01 0.19994530E+03 0.23510074E+03 0.91188000E+02 0.0000E+00 0.9000E+01
#aMCatNLO 1  0  0  2  1 0.34642110D+02 0.00000000D+00  -5  7  0 0.00000000D+00 0.00000000D+00 0.00000000D+00 0.00000000D+00 0.00000000D+00
  <mgrwgt>
 0.2029006801D-03    9    2    0
 0.285218135457265D+03 0.000000000000000D+00 0.000000000000000D+00 0.285218135457265D+03
 0.285218135457265D+03 0.000000000000000D+00 0.000000000000000D+00 -.285218135457265D+03
 0.230804338619373D+03 -.103949389150395D+03 -.153089860240269D+03 0.103505606458786D+03
 0.314369051979468D+02 0.188517658795142D+02 -.672331316648896D+01 -.242422563247317D+02
 0.182563543409738D+03 0.194093102028109D+01 0.151816581760143D+03 -.101377540272783D+03
 0.125631483687472D+03 0.831566922505995D+02 0.799659164661499D+01 0.221141901387293D+02
 0.000000000000000D+00 0.000000000000000D+00 0.000000000000000D+00 -.000000000000000D+00
 0.293145368941205D+03 0.000000000000000D+00 0.000000000000000D+00 0.293145368941205D+03
 0.326276998977658D+03 0.000000000000000D+00 0.000000000000000D+00 -.326276998977658D+03
 0.241853573462957D+03 -.107697940987889D+03 -.166930052990378D+03 0.103505606458786D+03
 0.315896294317733D+02 0.183519155096002D+02 -.856883265394184D+01 -.242422563247317D+02
 0.173970005887144D+03 -.886662588502964D+00 0.141376699303907D+03 -.101377540272783D+03
 0.124073987041308D+03 0.811763299691157D+02 0.684809155939214D+00 0.221141901387293D+02
 0.479351720956801D+02 0.905635809767626D+01 0.334373771844730D+02 -.331316300364532D+02
0.762750300688D-05 0.000000000000D+00 0.000000000000D+00 0.174542520742D-06 0.000000000000D+00  7 -2 2 23 -11 11 23 21 0 0.12920646D+00 0.14901958D-01 0.62952736D+05 0.62952736D+05 0.62952736D+05 0.11385981D+01  1  2  2  2  7  2        2 0.169625821767D-03 0.100000000000D+01
-.415284473393D-06 0.000000000000D+00 -.292916199141D-07 0.174542520742D-06 0.000000000000D+00  7 -2 2 23 -11 11 23 21 2 0.12920646D+00 0.14901958D-01 0.62952736D+05 0.62952736D+05 0.62952736D+05 0.11385981D+01  1  2  3  2  7  2        2 -.119728128634D-04 0.100000000000D+01
0.495793291553D-06 0.000000000000D+00 0.000000000000D+00 0.174542520742D-06 0.000000000000D+00  7 -2 2 23 -11 11 23 21 2 0.12920646D+00 0.14901958D-01 0.62952736D+05 0.62952736D+05 0.62952736D+05 0.11385981D+01  1  2 15  2  7  2        2 0.142939133991D-04 0.100000000000D+01
0.231949243127D-04 0.000000000000D+00 0.000000000000D+00 0.174542520742D-06 0.000000000000D+00  7 -2 2 23 -11 11 23 21 2 0.12920646D+00 0.17234231D-01 0.72078431D+05 0.72078431D+05 0.72078431D+05 0.11335810D+01  1  2 12  2  7  2        2 0.555066391861D-03 0.100000000000D+01
-.235373260071D-04 0.000000000000D+00 0.000000000000D+00 0.174542520742D-06 0.000000000000D+00  7 -2 2 23 -11 11 23 21 2 0.12920646D+00 0.14901958D-01 0.62952736D+05 0.62952736D+05 0.62952736D+05 0.11385981D+01  1  2  4  2  7  2        2 -.678590261957D-03 0.100000000000D+01
-.413713654301D-04 0.000000000000D+00 -.730644740999D-05 0.174542520742D-06 0.000000000000D+00  7 -2 2 23 -11 11 23 21 2 0.12920646D+00 0.17485666D-01 0.62952736D+05 0.62952736D+05 0.62952736D+05 0.11385981D+01  1  2  5  2  7  2        2 -.983312704344D-03 0.100000000000D+01
0.420928061829D-04 0.000000000000D+00 0.721403933434D-05 0.174542520742D-06 0.000000000000D+00  7 -2 2 23 -11 11 23 21 2 0.12920646D+00 0.14901958D-01 0.62952736D+05 0.62952736D+05 0.62952736D+05 0.11385981D+01  1  2  6  2  7  2        2 0.121355197126D-02 0.100000000000D+01
0.515902740160D-06 0.000000000000D+00 0.000000000000D+00 0.174542520742D-06 0.000000000000D+00  7 -2 21 23 -11 11 23 -2 2 0.12920646D+00 0.17234231D-01 0.72078431D+05 0.72078431D+05 0.72078431D+05 0.11335810D+01  1  2 12  4  7  2        2 0.955241899421D-04 0.100000000000D+01
-.936632688585D-06 0.000000000000D+00 -.175454723528D-06 0.174542520742D-06 0.000000000000D+00  7 -2 21 23 -11 11 23 -2 2 0.12920646D+00 0.17485666D-01 0.62952736D+05 0.62952736D+05 0.62952736D+05 0.11385981D+01  1  2  5  4  7  2        2 -.171285828970D-03 0.100000000000D+01
  </mgrwgt>
  </event>
  <event>
  8     66 0.53686478E-06 0.30101497E+03 0.75467711E-02 0.92492183E-01
       -2 -1    0    0    0  501 0.00000000E+00 0.00000000E+00 0.55506703E+03 0.55506712E+03 0.32000000E+00 0.0000E+00 0.9000E+01
        2 -1    0    0  501    0 0.00000000E+00 0.00000000E+00 -.38395474E+03 0.38395488E+03 0.32000000E+00 0.0000E+00 0.9000E+01
       25  2    1    2    0    0 0.59570124E+02 0.22324548E+03 0.43467265E+03 0.57706061E+03 0.30111707E+03 0.0000E+00 0.0000E+00
       23  2    1    2    0    0 -.59570124E+02 -.22324548E+03 -.26356036E+03 0.36196139E+03 0.90359501E+02 0.0000E+00 0.0000E+00
       23  1    3    3    0    0 0.48439789E+02 0.25343531E+03 0.37204345E+03 0.46185220E+03 0.91188000E+02 0.0000E+00 0.9000E+01
      -11  1    4    4    0    0 -.10776110E+02 -.70518335E+02 -.14808983E+03 0.16437627E+03 0.51099893E-03 0.0000E+00 0.9000E+01
       11  1    4    4    0    0 -.48794014E+02 -.15272714E+03 -.11547054E+03 0.19758512E+03 0.51099893E-03 0.0000E+00 0.9000E+01
       23  1    3    3    0    0 0.11130335E+02 -.30189834E+02 0.62629200E+02 0.11520841E+03 0.91188000E+02 0.0000E+00 0.9000E+01
#aMCatNLO 1  0  0  1  2 0.47571937D+03 0.00000000D+00  -5  7  0 0.00000000D+00 0.00000000D+00 0.00000000D+00 0.00000000D+00 0.00000000D+00
  <mgrwgt>
 0.2411897077D-03    3    2    0
 0.461650003443523D+03 0.000000000000000D+00 0.000000000000000D+00 0.461650003443523D+03
 0.461650003443523D+03 0.000000000000000D+00 0.000000000000000D+00 -.461650003443523D+03
 0.400766993520997D+03 0.484397888193462D+02 0.253435313522839D+03 0.292785007250331D+03
 0.194620295843708D+03 -.107761101465012D+02 -.705183349678173D+02 -.181074844850878D+03
 0.222349403043153D+03 -.487940136108897D+02 -.152727144760990D+03 -.154054602406233D+03
 0.105563314479189D+03 0.111303349380447D+02 -.301898337940322D+02 0.423444400067804D+02
 0.000000000000000D+00 0.000000000000000D+00 -.000000000000000D+00 -.000000000000000D+00
 0.737552792890055D+03 0.000000000000000D+00 0.000000000000000D+00 0.737552792890055D+03
 0.778581615131981D+03 0.000000000000000D+00 0.000000000000000D+00 -.778581615131981D+03
 0.552683325355928D+03 -.642560869560174D+02 0.455292984352945D+03 0.292785007250331D+03
 0.189916557116653D+03 -.562275789375710D+02 0.108930526526184D+02 -.181074844850878D+03
 0.193674862527807D+03 -.979672301110919D+02 -.646494677238921D+02 -.154054602406233D+03
 0.102374290661369D+03 -.134474642970006D+02 0.138332262654625D+02 0.423444400067804D+02
 0.477485372360280D+03 0.231898360301681D+03 -.415369795547134D+03 -.410288222419260D+02
0.187461990090D-04 0.000000000000D+00 0.000000000000D+00 0.198281649474D-06 0.000000000000D+00  7 -2 2 23 -11 11 23 21 0 0.85394945D-01 0.59069978D-01 0.90610013D+05 0.90610013D+05 0.90610013D+05 0.11252533D+01  1  2  2  1  7  1       -2 0.236155509769D-03 0.100000000000D+01
-.809879717577D-06 0.000000000000D+00 -.719903401821D-07 0.198281649474D-06 0.000000000000D+00  7 -2 2 23 -11 11 23 21 2 0.85394945D-01 0.59069978D-01 0.90610013D+05 0.90610013D+05 0.90610013D+05 0.11252533D+01  1  2  3  1  7  1       -2 -.129183171939D-04 0.100000000000D+01
0.112548543915D-05 0.000000000000D+00 0.000000000000D+00 0.198281649474D-06 0.000000000000D+00  7 -2 2 23 -11 11 23 21 2 0.85394945D-01 0.59069978D-01 0.90610013D+05 0.90610013D+05 0.90610013D+05 0.11252533D+01  1  2 15  1  7  1       -2 0.179525151508D-04 0.100000000000D+01
  </mgrwgt>
  </event>
  <event>
  8     66 0.53686478E-06 0.49415342E+03 0.75467711E-02 0.93508065E-01
       -2 -1    0    0    0  501 0.00000000E+00 0.00000000E+00 0.26772320E+03 0.26772340E+03 0.32000000E+00 0.0000E+00 0.9000E+01
        2 -1    0    0  501    0 0.00000000E+00 0.00000000E+00 -.93918039E+03 0.93918045E+03 0.32000000E+00 0.0000E+00 0.9000E+01
       25  2    1    2    0    0 -.26770088E+03 0.35866641E+03 -.29406742E+03 0.61418572E+03 0.30073759E+03 0.0000E+00 0.0000E+00
       23  2    1    2    0    0 0.26770088E+03 -.35866641E+03 -.37738977E+03 0.59271812E+03 0.92662730E+02 0.0000E+00 0.0000E+00
       23  1    3    3    0    0 -.41489774E+02 0.25316724E+03 -.16931906E+03 0.32062322E+03 0.91188000E+02 0.0000E+00 0.9000E+01
      -11  1    4    4    0    0 0.14259873E+03 -.14969570E+03 -.12315253E+03 0.24064444E+03 0.51099893E-03 0.0000E+00 0.9000E+01
       11  1    4    4    0    0 0.12510214E+03 -.20897071E+03 -.25423724E+03 0.35207368E+03 0.51099893E-03 0.0000E+00 0.9000E+01
       23  1    3    3    0    0 -.22621110E+03 0.10549917E+03 -.12474836E+03 0.29356250E+03 0.91188000E+02 0.0000E+00 0.9000E+01
#aMCatNLO 1  0  0  2  2 0.11126550D+03 0.00000000D+00  -5  7  0 0.00000000D+00 0.00000000D+00 0.00000000D+00 0.00000000D+00 0.00000000D+00
  <mgrwgt>
 0.8677680267D-04    4    2    0
 0.501438463646544D+03 0.000000000000000D+00 0.000000000000000D+00 0.501438463646544D+03
 0.501438463646544D+03 0.000000000000000D+00 0.000000000000000D+00 -.501438463646544D+03
 0.272486972725405D+03 -.414897742260836D+02 0.253167243476427D+03 0.109015790724061D+02
 0.207147101665685D+03 0.142598732444145D+03 -.149695700560636D+03 0.129120280156519D+02
 0.253480413152189D+03 0.125102143392819D+03 -.208970710549506D+03 -.702354305373104D+02
 0.269762439749808D+03 -.226211101610881D+03 0.105499167633716D+03 0.464218234492523D+02
 0.000000000000000D+00 0.000000000000000D+00 -.000000000000000D+00 0.000000000000000D+00
 0.578652988785972D+03 0.000000000000000D+00 0.000000000000000D+00 0.578652988785972D+03
 0.546261752169662D+03 0.000000000000000D+00 0.000000000000000D+00 -.546261752169662D+03
 0.302618674435881D+03 -.461877785929300D+02 0.284623708527080D+03 0.109015790724061D+02
 0.189655185390177D+03 0.139357277788701D+03 -.127991866949538D+03 0.129120280156519D+02
 0.230055314102141D+03 0.121152168341488D+03 -.182522831311673D+03 -.702354305373104D+02
 0.286701124482703D+03 -.230756819893529D+03 0.135935969544188D+03 0.464218234492523D+02
 0.115884442544733D+03 0.164351523562703D+02 -.110044979810058D+03 0.323912366163099D+02
0.990508178749D-05 0.000000000000D+00 0.000000000000D+00 0.220372442918D-06 0.000000000000D+00  7 -2 2 23 -11 11 23 21 0 0.41188204D-01 0.14448931D+00 0.24418760D+06 0.24418760D+06 0.24418760D+06 0.10912285D+01  1  2  2  2  7  2        2 0.190339864850D-03 0.100000000000D+01
-.550139022242D-06 0.000000000000D+00 -.380381221319D-07 0.220372442918D-06 0.000000000000D+00  7 -2 2 23 -11 11 23 21 2 0.41188204D-01 0.14448931D+00 0.24418760D+06 0.24418760D+06 0.24418760D+06 0.10912285D+01  1  2  3  2  7  2        2 -.125885455311D-04 0.100000000000D+01
0.594914018062D-06 0.000000000000D+00 0.000000000000D+00 0.220372442918D-06 0.000000000000D+00  7 -2 2 23 -11 11 23 21 2 0.41188204D-01 0.14448931D+00 0.24418760D+06 0.24418760D+06 0.24418760D+06 0.10912285D+01  1  2 15  2  7  2        2 0.136131085066D-04 0.100000000000D+01
-.457064191405D-05 0.000000000000D+00 0.000000000000D+00 0.220372442918D-06 0.000000000000D+00  7 -2 2 23 -11 11 23 21 2 0.41188204D-01 0.14448931D+00 0.24418760D+06 0.24418760D+06 0.24418760D+06 0.10912285D+01  1  2  4  2  7  2        2 -.104587625155D-03 0.100000000000D+01
  </mgrwgt>
  </event>
  <event>
  8     66 0.53686478E-06 0.30591041E+03 0.75467711E-02 0.87265012E-01
       -2 -1    0    0    0  501 0.00000000E+00 0.00000000E+00 0.21077422E+03 0.21077446E+03 0.32000000E+00 0.0000E+00 0.9000E+01
        2 -1    0    0  501    0 0.00000000E+00 0.00000000E+00 -.66365978E+03 0.66365986E+03 0.32000000E+00 0.0000E+00 0.9000E+01
       25  2    1    2    0    0 -.67343335E+01 -.25937344E+03 -.71238145E+02 0.39798942E+03 0.29325888E+03 0.0000E+00 0.0000E+00
       23  2    1    2    0    0 0.67343335E+01 0.25937344E+03 -.38164742E+03 0.47644491E+03 0.11842746E+03 0.0000E+00 0.0000E+00
       23  1    3    3    0    0 -.50647537E+02 -.72258153E+02 0.67779614E+02 0.14386014E+03 0.91188000E+02 0.0000E+00 0.9000E+01
      -13  1    4    4    0    0 -.37804646E+02 0.10945265E+03 -.94479911E+02 0.14945079E+03 0.10565837E+00 0.0000E+00 0.9000E+01
       13  1    4    4    0    0 0.44538980E+02 0.14992079E+03 -.28716751E+03 0.32699412E+03 0.10565837E+00 0.0000E+00 0.9000E+01
       23  1    3    3    0    0 0.43913203E+02 -.18711529E+03 -.13901776E+03 0.25412928E+03 0.91188000E+02 0.0000E+00 0.9000E+01
#aMCatNLO 1  0  0  2  2 0.92045457D+03 0.00000000D+00  -5  7  0 0.00000000D+00 0.00000000D+00 0.00000000D+00 0.00000000D+00 0.00000000D+00
  <mgrwgt>
 0.2947867704D-03    5    2    0
 0.374008709074961D+03 0.000000000000000D+00 0.000000000000000D+00 0.374008709074961D+03
 0.374008709074961D+03 0.000000000000000D+00 0.000000000000000D+00 -.374008709074961D+03
 0.209209962019908D+03 -.506475382998237D+02 -.722582146858887D+02 0.166334404555844D+03
 0.117505554873807D+03 -.378044850792165D+02 0.109452571073947D+03 -.199627407787414D+02
 0.208392064645660D+03 0.445388218084393D+02 0.149920994271121D+03 -.137721608456899D+03
 0.212909836610548D+03 0.439132015706008D+02 -.187115350659179D+03 -.865005532020321D+01
 0.000000000000000D+00 -.000000000000000D+00 0.000000000000000D+00 -.000000000000000D+00
 0.695457068732749D+03 0.000000000000000D+00 0.000000000000000D+00 0.695457068732749D+03
 0.266105872059232D+04 0.000000000000000D+00 0.000000000000000D+00 -.266105872059232D+04
 0.292750508573080D+03 0.181154093484323D+03 -.130014111544566D+03 0.166334404555844D+03
 0.108617425752609D+03 0.666174345017763D+02 0.834347144666170D+02 -.199627407787414D+02
 0.339009077019324D+03 0.297324619320640D+03 0.869366643676597D+02 -.137721608456899D+03
 0.445694937634574D+03 0.348052013916717D+03 -.262894842552231D+03 -.865005532020321D+01
 0.217044384034548D+04 -.893148161223456D+03 0.222537575262520D+03 -.196560165185957D+04
0.619700195211D-05 0.000000000000D+00 0.000000000000D+00 0.120900351758D-10 0.000000000000D+00  7 -2 2 23 -13 13 23 21 0 0.32426828D-01 0.10210153D+00 0.93581177D+05 0.93581177D+05 0.93581177D+05 0.11240941D+01  1  2  2  2  7  2        2 0.291800450770D-03 0.100000000000D+01
-.327368581665D-06 0.000000000000D+00 -.237981192042D-07 0.120900351758D-10 0.000000000000D+00  7 -2 2 23 -13 13 23 21 2 0.32426828D-01 0.10210153D+00 0.93581177D+05 0.93581177D+05 0.93581177D+05 0.11240941D+01  1  2  3  2  7  2        2 -.194781014842D-04 0.100000000000D+01
0.376416447528D-06 0.000000000000D+00 0.000000000000D+00 0.120900351758D-10 0.000000000000D+00  7 -2 2 23 -13 13 23 21 2 0.32426828D-01 0.10210153D+00 0.93581177D+05 0.93581177D+05 0.93581177D+05 0.11240941D+01  1  2 15  2  7  2        2 0.223964001921D-04 0.100000000000D+01
0.159051577167D-05 0.000000000000D+00 -.352689234768D-05 0.120900351758D-10 0.000000000000D+00  7 -2 2 23 -13 13 23 21 2 0.32426828D-01 0.77948189D+00 0.93581177D+05 0.93581177D+05 0.93581177D+05 0.11240941D+01  1  2  5  2  7  2        2 0.680200945398D-07 0.100000000000D+01
0.286684729299D-08 0.000000000000D+00 -.872713219027D-06 0.120900351758D-10 0.000000000000D+00  7 -2 21 23 -13 13 23 -2 2 0.32426828D-01 0.77948189D+00 0.93581177D+05 0.93581177D+05 0.93581177D+05 0.11240941D+01  1  2  5  4  7  2        2 0.780921243942D-12 0.100000000000D+01
  </mgrwgt>
  </event>
  <event>
  8     66 0.53686478E-06 0.18960415E+03 0.75467711E-02 0.10069688E+00
       -2 -1    0    0    0  501 0.00000000E+00 0.00000000E+00 0.35228524E+03 0.35228539E+03 0.32000000E+00 0.0000E+00 0.9000E+01
        2 -1    0    0  501    0 0.00000000E+00 0.00000000E+00 -.24680130E+03 0.24680151E+03 0.32000000E+00 0.0000E+00 0.9000E+01
       25  2    1    2    0    0 -.16234176E+03 -.64547458E+02 -.47338179E+02 0.35021961E+03 0.29981936E+03 0.0000E+00 0.0000E+00
       23  2    1    2    0    0 0.16234176E+03 0.64547458E+02 0.15282212E+03 0.24886729E+03 0.89772539E+02 0.0000E+00 0.0000E+00
       23  1    3    3    0    0 -.97983207E+02 -.77210898E+02 -.13698784E+03 0.20650218E+03 0.91188000E+02 0.0000E+00 0.9000E+01
      -13  1    4    4    0    0 0.71430437E+01 -.12121844E+02 -.46854930E+01 0.14829942E+02 0.10565837E+00 0.0000E+00 0.9000E+01
       13  1    4    4    0    0 0.15519871E+03 0.76669301E+02 0.15750761E+03 0.23403735E+03 0.10565837E+00 0.0000E+00 0.9000E+01
       23  1    3    3    0    0 -.64358549E+02 0.12663440E+02 0.89649661E+02 0.14371743E+03 0.91188000E+02 0.0000E+00 0.9000E+01
#aMCatNLO 1  0  0  2  1 0.13034746D+03 0.00000000D+00  -5  7  0 0.00000000D+00 0.00000000D+00 0.00000000D+00 0.00000000D+00 0.00000000D+00
  <mgrwgt>
 0.2138479014D-03    9    2    0
 0.294863634972946D+03 0.000000000000000D+00 0.000000000000000D+00 0.294863634972946D+03
 0.294863634972946D+03 0.000000000000000D+00 0.000000000000000D+00 -.294863634972946D+03
 0.234282483559213D+03 -.979832073606234D+02 -.772108979340962D+02 -.176098833256239D+03
 0.159031307738487D+02 0.714283871096966D+01 -.121219666046151D+02 -.741264792066936D+01
 0.209578820242119D+03 0.155198918239634D+03 0.766694244005888D+02 0.118145575598109D+03
 0.129962835370710D+03 -.643585495899798D+02 0.126634401381225D+02 0.653659055788000D+02
 0.000000000000000D+00 0.000000000000000D+00 0.000000000000000D+00 -.000000000000000D+00
 0.343331732023024D+03 0.000000000000000D+00 0.000000000000000D+00 0.343331732023024D+03
 0.404700638412126D+03 0.000000000000000D+00 0.000000000000000D+00 -.404700638412126D+03
 0.266184107421159D+03 -.149206690820674D+03 -.962563870074825D+02 -.176098833256239D+03
 0.157409098398365D+02 0.390402513140775D+01 -.133261952996118D+02 -.741264792066936D+01
 0.176578321665000D+03 0.115675173142659D+03 0.619740346196342D+02 0.118145575598109D+03
 0.145457514358764D+03 -.925482229531763D+02 0.218219052846237D+01 0.653659055788000D+02
 0.144071517150390D+03 0.122175715499784D+03 0.454263571589977D+02 -.613689063891010D+02
0.412511420868D-05 0.000000000000D+00 0.000000000000D+00 0.187304430439D-06 0.000000000000D+00  7 -2 2 23 -13 13 23 21 0 0.54197757D-01 0.37969459D-01 0.51534745D+05 0.51534745D+05 0.51534745D+05 0.11461423D+01  1  2  2  2  7  2        2 0.221981292873D-03 0.100000000000D+01
-.210117860320D-06 0.000000000000D+00 -.158415247288D-07 0.187304430439D-06 0.000000000000D+00  7 -2 2 23 -13 13 23 21 2 0.54197757D-01 0.37969459D-01 0.51534745D+05 0.51534745D+05 0.51534745D+05 0.11461423D+01  1  2  3  2  7  2        2 -.148532133288D-04 0.100000000000D+01
0.257397473658D-06 0.000000000000D+00 0.000000000000D+00 0.187304430439D-06 0.000000000000D+00  7 -2 2 23 -13 13 23 21 2 0.54197757D-01 0.37969459D-01 0.51534745D+05 0.51534745D+05 0.51534745D+05 0.11461423D+01  1  2 15  2  7  2        2 0.181954050965D-04 0.100000000000D+01
0.126224962770D-05 0.000000000000D+00 0.000000000000D+00 0.187304430439D-06 0.000000000000D+00  7 -2 2 23 -13 13 23 21 2 0.54197757D-01 0.54308739D-01 0.91510828D+05 0.91510828D+05 0.91510828D+05 0.11248974D+01  1  2 12  2  7  2        2 0.579642679720D-04 0.100000000000D+01
-.269162378874D-05 0.000000000000D+00 0.000000000000D+00 0.187304430439D-06 0.000000000000D+00  7 -2 2 23 -13 13 23 21 2 0.54197757D-01 0.37969459D-01 0.51534745D+05 0.51534745D+05 0.51534745D+05 0.11461423D+01  1  2  4  2  7  2        2 -.190270652263D-03 0.100000000000D+01
-.315061350556D-05 0.000000000000D+00 -.171805701985D-05 0.187304430439D-06 0.000000000000D+00  7 -2 2 23 -13 13 23 21 2 0.54197757D-01 0.59433185D-01 0.51534745D+05 0.51534745D+05 0.51534745D+05 0.11461423D+01  1  2  5  2  7  2        2 -.137040079666D-03 0.100000000000D+01
0.370170221809D-05 0.000000000000D+00 0.155893015106D-05 0.187304430439D-06 0.000000000000D+00  7 -2 2 23 -13 13 23 21 2 0.54197757D-01 0.37969459D-01 0.51534745D+05 0.51534745D+05 0.51534745D+05 0.11461423D+01  1  2  6  2  7  2        2 0.261673008860D-03 0.100000000000D+01
0.554138241987D-07 0.000000000000D+00 0.000000000000D+00 0.187304430439D-06 0.000000000000D+00  7 -2 21 23 -13 13 23 -2 2 0.54197757D-01 0.54308739D-01 0.91510828D+05 0.91510828D+05 0.91510828D+05 0.11248974D+01  1  2 12  4  7  2        2 0.752589475189D-05 0.100000000000D+01
-.951873685815D-07 0.000000000000D+00 -.889889210010D-07 0.187304430439D-06 0.000000000000D+00  7 -2 21 23 -13 13 23 -2 2 0.54197757D-01 0.59433185D-01 0.51534745D+05 0.51534745D+05 0.51534745D+05 0.11461423D+01  1  2  5  4  7  2        2 -.113280229114D-04 0.100000000000D+01
  </mgrwgt>
  </event>
  <event>
  8     66 0.53686478E-06 0.46842920E+03 0.75467711E-02 0.83539061E-01
       -2 -1    0    0    0  501 0.00000000E+00 0.00000000E+00 0.28506632E+03 0.28506650E+03 0.32000000E+00 0.0000E+00 0.9000E+01
        2 -1    0    0  501    0 0.00000000E+00 0.00000000E+00 -.10739242E+04 0.10739242E+04 0.32000000E+00 0.0000E+00 0.9000E+01
       25  2    1    2    0    0 0.42479240E+03 -.14285347E+03 -.12601155E+03 0.55396713E+03 0.30024153E+03 0.0000E+00 0.0000E+00
       23  2    1    2    0    0 -.42479240E+03 0.14285347E+03 -.66284629E+03 0.80502358E+03 0.88555354E+02 0.0000E+00 0.0000E+00
       23  1    3    3    0    0 0.29050835E+03 -.91273729E+02 0.34747462E+02 0.31976340E+03 0.91188000E+02 0.0000E+00 0.9000E+01
      -11  1    4    4    0    0 -.12446756E+03 0.52122267E+02 -.13432299E+03 0.19039845E+03 0.51099893E-03 0.0000E+00 0.9000E+01
       11  1    4    4    0    0 -.30032484E+03 0.90731205E+02 -.52852331E+03 0.61462513E+03 0.51099893E-03 0.0000E+00 0.9000E+01
       23  1    3    3    0    0 0.13428405E+03 -.51579744E+02 -.16075901E+03 0.23420373E+03 0.91188000E+02 0.0000E+00 0.9000E+01
#aMCatNLO 1  0  0  2  1 0.13754211D+04 0.00000000D+00  -5  7  0 0.00000000D+00 0.00000000D+00 0.00000000D+00 0.00000000D+00 0.00000000D+00
  <mgrwgt>
 0.2549801582D-03    5    2    0
 0.553298981460665D+03 0.000000000000000D+00 0.000000000000000D+00 0.553298981460665D+03
 0.553298981460665D+03 0.000000000000000D+00 0.000000000000000D+00 -.553298981460665D+03
 0.417465347987855D+03 0.290508354538875D+03 -.912737288158568D+02 0.270621632168949D+03
 0.138070001461157D+03 -.124467562323343D+03 0.521222673017341D+02 -.292304718418132D+02
 0.378041615909844D+03 -.300324839257328D+03 0.907312050891410D+02 -.210922504033728D+03
 0.173020997562475D+03 0.134284047041797D+03 -.515797435750183D+02 -.304686562934074D+02
 0.000000000000000D+00 0.000000000000000D+00 -.000000000000000D+00 -.000000000000000D+00
 0.146388831864470D+04 0.000000000000000D+00 0.000000000000000D+00 0.146388831864470D+04
 0.169635641959020D+04 0.000000000000000D+00 0.000000000000000D+00 -.169635641959020D+04
 0.546740491490008D+03 0.283097047220519D+03 0.370445553014169D+03 0.270621632168949D+03
 0.287516961301080D+03 -.127738809646866D+03 0.255918696194149D+03 -.292304718418132D+02
 0.721825166908952D+03 -.308778895852895D+03 0.617413040315108D+03 -.210922504033728D+03
 0.209233892678319D+03 0.131345868958315D+03 0.131466703741221D+03 -.304686562934074D+02
 0.139492822585654D+04 0.220747893209282D+02 -.137524399326465D+04 -.232468100945498D+03
0.178403182079D-04 0.000000000000D+00 0.000000000000D+00 0.404260075115D-06 0.000000000000D+00  7 -2 2 23 -11 11 23 21 0 0.43856374D-01 0.16521912D+00 0.21942592D+06 0.21942592D+06 0.21942592D+06 0.10947468D+01  1  2  2  2  7  2        2 0.251926856604D-03 0.100000000000D+01
-.957716158528D-06 0.000000000000D+00 -.685115193822D-07 0.404260075115D-06 0.000000000000D+00  7 -2 2 23 -11 11 23 21 2 0.43856374D-01 0.16521912D+00 0.21942592D+06 0.21942592D+06 0.21942592D+06 0.10947468D+01  1  2  3  2  7  2        2 -.162082470532D-04 0.100000000000D+01
0.108385926635D-05 0.000000000000D+00 0.000000000000D+00 0.404260075115D-06 0.000000000000D+00  7 -2 2 23 -11 11 23 21 2 0.43856374D-01 0.16521912D+00 0.21942592D+06 0.21942592D+06 0.21942592D+06 0.10947468D+01  1  2 15  2  7  2        2 0.183430744103D-04 0.100000000000D+01
0.800133381072D-05 0.000000000000D+00 -.607506423819D-05 0.404260075115D-06 0.000000000000D+00  7 -2 2 23 -11 11 23 21 2 0.43856374D-01 0.67857296D+00 0.21942592D+06 0.21942592D+06 0.21942592D+06 0.10947468D+01  1  2  5  2  7  2        2 0.916471525767D-06 0.100000000000D+01
0.139763015946D-05 0.000000000000D+00 -.102762803955D-05 0.404260075115D-06 0.000000000000D+00  7 -2 21 23 -11 11 23 -2 2 0.43856374D-01 0.67857296D+00 0.21942592D+06 0.21942592D+06 0.21942592D+06 0.10947468D+01  1  2  5  4  7  2        2 0.200271220805D-08 0.100000000000D+01
  </mgrwgt>
  </event>
  <event>
  9     66 -.53686478E-06 0.31892109E+03 0.75467711E-02 0.99539327E-01
       -4 -1    0    0    0  501 0.00000000E+00 0.00000000E+00 0.37109549E+03 0.37109872E+03 0.15500000E+01 0.0000E+00 0.9000E+01
        4 -1    0    0  502    0 0.00000000E+00 0.00000000E+00 -.34345212E+03 0.34345562E+03 0.15500000E+01 0.0000E+00 0.9000E+01
       25  2    1    2    0    0 0.17740754E+03 -.20980203E+03 0.55826227E+02 0.41095921E+03 0.30046727E+03 0.0000E+00 0.0000E+00
       23  2    1    2    0    0 -.15526439E+03 0.19895759E+03 -.27711812E+02 0.27892318E+03 0.11549477E+03 0.0000E+00 0.0000E+00
       23  1    3    3    0    0 0.10626661E+03 0.47165480E+01 -.45086300E+02 0.14718310E+03 0.91188000E+02 0.0000E+00 0.9000E+01
      -13  1    4    4    0    0 -.91654509E+01 0.27927637E+01 0.26686272E+02 0.28354423E+02 0.10565837E+00 0.0000E+00 0.9000E+01
       13  1    4    4    0    0 -.14609894E+03 0.19616483E+03 -.54398084E+02 0.25056876E+03 0.10565837E+00 0.0000E+00 0.9000E+01
       23  1    3    3    0    0 0.71140928E+02 -.21451857E+03 0.10091253E+03 0.26377612E+03 0.91188000E+02 0.0000E+00 0.9000E+01
       21  1    1    2  502  501 -.22143149E+02 0.10844435E+02 -.47105233E+00 0.24671952E+02 0.75000000E+00 0.0000E+00 0.9000E+01
#aMCatNLO 2  0  0  2  1 0.24656051D+02 0.00000000D+00  -5  7  0 0.00000000D+00 0.00000000D+00 0.00000000D+00 0.00000000D+00 0.00000000D+00
  <mgrwgt>
 -.6826363449D-05    3    2    0
 0.344434090524935D+03 0.000000000000000D+00 0.000000000000000D+00 0.344434090524935D+03
 0.344434090524935D+03 0.000000000000000D+00 0.000000000000000D+00 -.344434090524935D+03
 0.145898275953920D+03 0.101526186331893D+03 0.703811645428968D+01 -.511268421477793D+02
 0.276453481849417D+02 -.100479966810601D+02 0.322492585956557D+01 0.255519645460847D+02
 0.260942334688424D+03 -.154356522698090D+03 0.200209017050640D+03 -.646630916738116D+02
 0.254382222222585D+03 0.628783330472573D+02 -.210472059364495D+03 0.902379692755062D+02
 0.000000000000000D+00 -.000000000000000D+00 0.000000000000000D+00 -.000000000000000D+00
 0.356265939360615D+03 0.000000000000000D+00 0.000000000000000D+00 0.356265939360615D+03
 0.357743638834241D+03 0.000000000000000D+00 0.000000000000000D+00 -.357743638834241D+03
 0.149144385459793D+03 0.106266630771335D+03 0.471652061206013D+01 -.511268421477793D+02
 0.272892970577138D+02 -.916536285337727D+01 0.279266279842517D+01 0.255519645460847D+02
 0.252995980817751D+03 -.146099086236921D+03 0.196165001684440D+03 -.646630916738116D+02
 0.259879622619859D+03 0.711409676476907D+02 -.214518620479023D+03 0.902379692755062D+02
 0.247002922397397D+02 -.221431493287274D+02 0.108444353840977D+02 -.147769947362603D+01
-.871812117813D-05 0.000000000000D+00 0.000000000000D+00 0.159589333284D-08 0.000000000000D+00  7 -4 4 23 -13 13 23 21 2 0.55195180D-01 0.53680740D-01 0.10977547D+06 0.10977547D+06 0.10977547D+06 0.11184132D+01  1  2 13  2  7  2        4 -.265028226096D-04 0.100000000000D+01
-.138666979684D-05 0.000000000000D+00 0.000000000000D+00 0.159589333284D-08 0.000000000000D+00  7 -4 4 23 -13 13 23 21 2 0.55195180D-01 0.50872653D-01 0.10171066D+06 0.10171066D+06 0.10171066D+06 0.11211180D+01  1  2  8  2  7  2        4 -.477484317652D-05 0.100000000000D+01
0.838807733083D-05 0.000000000000D+00 0.000000000000D+00 0.159589333284D-08 0.175448187266D-10  7 -4 4 23 -13 13 23 21 2 0.57091221D-01 0.52838464D-01 0.10977547D+06 0.10977547D+06 0.10977547D+06 0.11184132D+01  1  2  1  2  7  2        4 0.244513023376D-04 0.100000000000D+01
  </mgrwgt>
  </event>
  <event>
  8     66 0.53686478E-06 0.90581109E+02 0.75467711E-02 0.98305847E-01
       -2 -1    0    0    0  501 0.00000000E+00 0.00000000E+00 0.28392555E+03 0.28392573E+03 0.32000000E+00 0.0000E+00 0.9000E+01
        2 -1    0    0  501    0 0.00000000E+00 0.00000000E+00 -.44149867E+03 0.44149879E+03 0.32000000E+00 0.0000E+00 0.9000E+01
       25  2    1    2    0    0 0.23389154E+03 -.13823242E+03 -.16816518E+03 0.43916706E+03 0.30128844E+03 0.0000E+00 0.0000E+00
       23  2    1    2    0    0 -.23389154E+03 0.13823242E+03 0.10592060E+02 0.28625747E+03 0.89541569E+02 0.0000E+00 0.0000E+00
       23  1    3    3    0    0 0.16631662E+03 -.20069615E+03 -.11472586E+03 0.29902749E+03 0.91188000E+02 0.0000E+00 0.9000E+01
      -13  1    4    4    0    0 -.13759346E+02 0.43838722E+02 0.85252183E+01 0.46731613E+02 0.10565837E+00 0.0000E+00 0.9000E+01
       13  1    4    4    0    0 -.22013219E+03 0.94393697E+02 0.20668419E+01 0.23952585E+03 0.10565837E+00 0.0000E+00 0.9000E+01
       23  1    3    3    0    0 0.67574917E+02 0.62463734E+02 -.53439315E+02 0.14013957E+03 0.91188000E+02 0.0000E+00 0.9000E+01
#aMCatNLO 1  0  0  1  2 0.39511754D+02 0.00000000D+00  -5  7  0 0.00000000D+00 0.00000000D+00 0.00000000D+00 0.00000000D+00 0.00000000D+00
  <mgrwgt>
 0.2234619145D-03    9    2    0
 0.354052063065740D+03 0.000000000000000D+00 0.000000000000000D+00 0.354052063065740D+03
 0.354052063065740D+03 0.000000000000000D+00 0.000000000000000D+00 -.354052063065740D+03
 0.280812036565767D+03 0.166316618436490D+03 -.200696154006518D+03 -.509900454506279D+02
 0.497715082107350D+02 -.137590593013595D+02 0.438386516900826D+02 0.191327973571181D+02
 0.245844916019195D+03 -.220132476226269D+03 0.943937679939275D+02 0.554186990724687D+02
 0.131675665335783D+03 0.675749170911391D+02 0.624637343225075D+02 -.235614509789589D+02
 0.000000000000000D+00 0.000000000000000D+00 0.000000000000000D+00 0.000000000000000D+00
 0.435148185308880D+03 0.000000000000000D+00 0.000000000000000D+00 0.435148185308880D+03
 0.359448467563558D+03 0.000000000000000D+00 0.000000000000000D+00 -.359448467563558D+03
 0.276329047740662D+03 0.151709995476648D+03 -.205977143923007D+03 -.509900454506279D+02
 0.497392219715665D+02 -.163679419653275D+02 0.428954163454312D+02 0.191327973571181D+02
 0.255987935538670D+03 -.233289077773062D+03 0.896370298830782D+02 0.554186990724687D+02
 0.127149429368558D+03 0.607892739616293D+02 0.600104011295881D+02 -.235614509789589D+02
 0.853910182529805D+02 0.371577503001118D+02 0.134342965649095D+02 0.756997177453221D+02
0.403360964440D-05 0.000000000000D+00 0.000000000000D+00 0.229170320941D-07 0.000000000000D+00  7 -2 2 23 -13 13 23 21 0 0.43680877D-01 0.67922896D-01 0.11942508D+06 0.11942508D+06 0.11942508D+06 0.11154498D+01  1  2  2  1  7  1       -2 0.174017795204D-03 0.100000000000D+01
-.223929574906D-06 0.000000000000D+00 -.154901231083D-07 0.229170320941D-07 0.000000000000D+00  7 -2 2 23 -13 13 23 21 2 0.43680877D-01 0.67922896D-01 0.11942508D+06 0.11942508D+06 0.11942508D+06 0.11154498D+01  1  2  3  1  7  1       -2 -.120201901697D-04 0.100000000000D+01
0.249445472629D-06 0.000000000000D+00 0.000000000000D+00 0.229170320941D-07 0.000000000000D+00  7 -2 2 23 -13 13 23 21 2 0.43680877D-01 0.67922896D-01 0.11942508D+06 0.11942508D+06 0.11942508D+06 0.11154498D+01  1  2 15  1  7  1       -2 0.133898437454D-04 0.100000000000D+01
0.198516856481D-04 0.000000000000D+00 0.000000000000D+00 0.229170320941D-07 0.000000000000D+00  7 -2 2 23 -13 13 23 21 2 0.53967557D-01 0.67922896D-01 0.13390923D+06 0.13390923D+06 0.13390923D+06 0.11114620D+01  1  2 12  1  7  1       -2 0.699297823685D-03 0.100000000000D+01
-.198806506999D-04 0.000000000000D+00 0.000000000000D+00 0.229170320941D-07 0.000000000000D+00  7 -2 2 23 -13 13 23 21 2 0.43680877D-01 0.67922896D-01 0.11942508D+06 0.11942508D+06 0.11942508D+06 0.11154498D+01  1  2  4  1  7  1       -2 -.106716230855D-02 0.100000000000D+01
-.253769887228D-04 0.000000000000D+00 -.262526169637D-05 0.229170320941D-07 0.000000000000D+00  7 -2 2 23 -13 13 23 21 2 0.54186282D-01 0.67922896D-01 0.11942508D+06 0.11942508D+06 0.11942508D+06 0.11154498D+01  1  2  5  1  7  1       -2 -.894581530490D-03 0.100000000000D+01
0.254101785554D-04 0.000000000000D+00 0.256545103171D-05 0.229170320941D-07 0.000000000000D+00  7 -2 2 23 -13 13 23 21 2 0.43680877D-01 0.67922896D-01 0.11942508D+06 0.11942508D+06 0.11942508D+06 0.11154498D+01  1  2  6  1  7  1       -2 0.136397873577D-02 0.100000000000D+01
0.592790753500D-06 0.000000000000D+00 0.000000000000D+00 0.229170320941D-07 0.000000000000D+00  7 21 2 23 -13 13 23 2 2 0.53967557D-01 0.67922896D-01 0.13390923D+06 0.13390923D+06 0.13390923D+06 0.11114620D+01  1  2 12  3  7  1       -2 0.219891656323D-03 0.100000000000D+01
-.734389350667D-06 0.000000000000D+00 -.795263825591D-07 0.229170320941D-07 0.000000000000D+00  7 21 2 23 -13 13 23 2 2 0.54186282D-01 0.67922896D-01 0.11942508D+06 0.11942508D+06 0.11942508D+06 0.11154498D+01  1  2  5  3  7  1       -2 -.273349910991D-03 0.100000000000D+01
  </mgrwgt>
  </event>
  <event>
  8     66 0.53686478E-06 0.34939292E+03 0.75467711E-02 0.95031315E-01
       -2 -1    0    0    0  501 0.00000000E+00 0.00000000E+00 0.24123756E+03 0.24123777E+03 0.32000000E+00 0.0000E+00 0.9000E+01
        2 -1    0    0  501    0 0.00000000E+00 0.00000000E+00 -.17681047E+04 0.17681047E+04 0.32000000E+00 0.0000E+00 0.9000E+01
       25  2    1    2    0    0 -.22051305E+03 -.16907544E+03 -.16442765E+04 0.16943539E+04 0.29996241E+03 0.0000E+00 0.0000E+00
       23  2    1    2    0    0 0.22051305E+03 0.16907544E+03 0.11740945E+03 0.31498851E+03 0.90665710E+02 0.0000E+00 0.0000E+00
       23  1    3    3    0    0 0.76790043E+01 -.13104095E+03 -.60739173E+03 0.62806899E+03 0.91188000E+02 0.0000E+00 0.9000E+01
      -11  1    4    4    0    0 0.21501106E+03 0.13090353E+03 0.88647343E+02 0.26687795E+03 0.51099893E-03 0.0000E+00 0.9000E+01
       11  1    4    4    0    0 0.55019899E+01 0.38171911E+02 0.28762106E+02 0.48110554E+02 0.51099893E-03 0.0000E+00 0.9000E+01
       23  1    3    3    0    0 -.22819206E+03 -.38034489E+02 -.10368848E+04 0.10662850E+04 0.91188000E+02 0.0000E+00 0.9000E+01
#aMCatNLO 1  0  0  2  2 0.23091378D+03 0.00000000D+00  -5  7  0 0.00000000D+00 0.00000000D+00 0.00000000D+00 0.00000000D+00 0.00000000D+00
  <mgrwgt>
 0.3735866825D-03    4    2    0
 0.653095320169667D+03 0.000000000000000D+00 0.000000000000000D+00 0.653095320169667D+03
 0.653095320169667D+03 0.000000000000000D+00 0.000000000000000D+00 -.653095320169667D+03
 0.256164178589062D+03 0.767900426380919D+01 -.131040951378048D+03 -.200185256709033D+03
 0.514168371327584D+03 0.215011062978679D+03 0.130903528745279D+03 0.448334275995571D+03
 0.107630913902047D+03 0.550198994157130D+01 0.381719113236248D+02 0.100484063014858D+03
 0.428227176520641D+03 -.228192057184060D+03 -.380344886908560D+02 -.348633082301396D+03
 0.000000000000000D+00 -.000000000000000D+00 0.000000000000000D+00 0.000000000000000D+00
 0.879074372146873D+03 0.000000000000000D+00 0.000000000000000D+00 0.879074372146873D+03
 0.724978889877551D+03 0.000000000000000D+00 0.000000000000000D+00 -.724978889877551D+03
 0.261738007035255D+03 0.531027319757688D+02 -.131519944631358D+03 -.200185256709033D+03
 0.559905531705967D+03 0.309215030191339D+03 0.129910147818553D+03 0.448334275995571D+03
 0.110201303923511D+03 0.246074342205379D+02 0.379704443949495D+02 0.100484063014858D+03
 0.394599714822993D+03 -.156024250783676D+03 -.387954982801868D+02 -.348633082301396D+03
 0.277608704536698D+03 -.230900945603969D+03 0.243485069804257D+01 0.154095482269321D+03
0.569142731317D-04 0.000000000000D+00 0.000000000000D+00 0.411841095682D-05 0.000000000000D+00  7 -2 2 23 -11 11 23 21 0 0.37113490D-01 0.27201612D+00 0.12207541D+06 0.12207541D+06 0.12207541D+06 0.11146818D+01  1  2  2  2  7  2        2 0.462163567440D-03 0.100000000000D+01
-.165765108691D-05 0.000000000000D+00 -.218565794698D-06 0.411841095682D-05 0.000000000000D+00  7 -2 2 23 -11 11 23 21 2 0.37113490D-01 0.27201612D+00 0.12207541D+06 0.12207541D+06 0.12207541D+06 0.11146818D+01  1  2  3  2  7  2        2 -.167251272889D-04 0.100000000000D+01
0.341194875680D-05 0.000000000000D+00 0.000000000000D+00 0.411841095682D-05 0.000000000000D+00  7 -2 2 23 -11 11 23 21 2 0.37113490D-01 0.27201612D+00 0.12207541D+06 0.12207541D+06 0.12207541D+06 0.11146818D+01  1  2 15  2  7  2        2 0.344253852404D-04 0.100000000000D+01
-.105332783656D-04 0.000000000000D+00 0.000000000000D+00 0.411841095682D-05 0.000000000000D+00  7 -2 2 23 -11 11 23 21 2 0.37113490D-01 0.27201612D+00 0.12207541D+06 0.12207541D+06 0.12207541D+06 0.11146818D+01  1  2  4  2  7  2        2 -.106277142896D-03 0.100000000000D+01
  </mgrwgt>
  </event>
  <event>
  9     66 0.53686478E-06 0.25511090E+03 0.75467711E-02 0.10176357E+00
       -2 -1    0    0    0  502 0.00000000E+00 0.00000000E+00 0.26588070E+03 0.26588090E+03 0.32000000E+00 0.0000E+00 0.9000E+01
        2 -1    0    0  501    0 0.00000000E+00 0.00000000E+00 -.55531627E+03 0.55531636E+03 0.32000000E+00 0.0000E+00 0.9000E+01
       25  2    1    2    0    0 -.11242829E+03 0.17147150E+03 -.22914014E+03 0.42995833E+03 0.30052681E+03 0.0000E+00 0.0000E+00
       23  2    1    2    0    0 0.72562251E+02 -.19646642E+03 0.80923353E+02 0.24238547E+03 0.91311502E+02 0.0000E+00 0.0000E+00
       23  1    3    3    0    0 -.92033261E+02 0.60078641E+02 0.17269913E+02 0.14385084E+03 0.91188000E+02 0.0000E+00 0.9000E+01
      -11  1    4    4    0    0 -.81584546E+01 0.15447942E+01 -.73117285E+01 0.11063821E+02 0.51099893E-03 0.0000E+00 0.9000E+01
       11  1    4    4    0    0 0.80720706E+02 -.19801122E+03 0.88235081E+02 0.23132165E+03 0.51099893E-03 0.0000E+00 0.9000E+01
       23  1    3    3    0    0 -.20395033E+02 0.11139286E+03 -.24641005E+03 0.28610748E+03 0.91188000E+02 0.0000E+00 0.9000E+01
       21  1    1    2  501  502 0.39866043E+02 0.24994923E+02 -.14121878E+03 0.14885346E+03 0.75000000E+00 0.0000E+00 0.9000E+01
#aMCatNLO 2  0  0  1  2 0.47053666D+02 0.00000000D+00  -5  7  0 0.00000000D+00 0.00000000D+00 0.00000000D+00 0.00000000D+00 0.00000000D+00
  <mgrwgt>
 0.1734810879D-04    1    2    0
 0.327056537795191D+03 0.000000000000000D+00 0.000000000000000D+00 0.327056537795191D+03
 0.327056537795191D+03 0.000000000000000D+00 0.000000000000000D+00 -.327056537795191D+03
 0.148459916290916D+03 -.829078561916664D+02 0.658000205626547D+02 0.502169301805857D+02
 0.927719950488783D+01 -.758119515666189D+01 0.190672014302807D+01 -.499563098579837D+01
 0.255115423506772D+03 0.963094220511397D+02 -.188237517775884D+03 0.142741064297522D+03
 0.241260536287805D+03 -.582037070281142D+01 0.120530777070201D+03 -.187962363492309D+03
 0.000000000000000D+00 0.000000000000000D+00 0.000000000000000D+00 -.000000000000000D+00
 0.332676870188784D+03 0.000000000000000D+00 0.000000000000000D+00 0.332676870188784D+03
 0.443814974371675D+03 0.000000000000000D+00 0.000000000000000D+00 -.443814974371675D+03
 0.151382150685211D+03 -.920332606461973D+02 0.600786406316526D+02 0.502169301805857D+02
 0.969036116114901D+01 -.815845459306785D+01 0.154479420638701D+01 -.499563098579837D+01
 0.257097814627154D+03 0.807207055909200D+02 -.198011218212942D+03 0.142741064297522D+03
 0.237632969633446D+03 -.203950332118171D+02 0.111392860828171D+03 -.187962363492309D+03
 0.120688548453499D+03 0.398660428601622D+02 0.249949225467315D+02 -.111138104182891D+03
0.357131416705D-06 0.000000000000D+00 0.000000000000D+00 0.365232572368D-06 0.117811932319D-08  7 -2 2 23 -11 11 23 21 2 0.40904604D-01 0.85432998D-01 0.77672134D+05 0.77672134D+05 0.77672134D+05 0.11308398D+01  1  2  1  1  7  1       -2 0.173481087894D-04 0.100000000000D+01
  </mgrwgt>
  </event>
  <event>
  8     66 0.53686478E-06 0.24751150E+03 0.75467711E-02 0.91314210E-01
       -2 -1    0    0    0  501 0.00000000E+00 0.00000000E+00 0.31528361E+03 0.31528377E+03 0.32000000E+00 0.0000E+00 0.9000E+01
        2 -1    0    0  501    0 0.00000000E+00 0.00000000E+00 -.58562448E+03 0.58562457E+03 0.32000000E+00 0.0000E+00 0.9000E+01
       25  2    1    2    0    0 0.36285505E+02 0.13858243E+03 -.50860072E+03 0.60811954E+03 0.30101984E+03 0.0000E+00 0.0000E+00
       23  2    1    2    0    0 -.36285505E+02 -.13858243E+03 0.23825985E+03 0.29278881E+03 0.91846625E+02 0.0000E+00 0.0000E+00
       23  1    3    3    0    0 -.82879608E+02 0.12535721E+03 -.21147455E+03 0.27499127E+03 0.91188000E+02 0.0000E+00 0.9000E+01
      -13  1    4    4    0    0 -.64198504E+02 -.11649830E+03 0.17049235E+03 0.21624281E+03 0.10565837E+00 0.0000E+00 0.9000E+01
       13  1    4    4    0    0 0.27912999E+02 -.22084134E+02 0.67767496E+02 0.76545994E+02 0.10565837E+00 0.0000E+00 0.9000E+01
       23  1    3    3    0    0 0.11916511E+03 0.13225220E+02 -.29712617E+03 0.33312827E+03 0.91188000E+02 0.0000E+00 0.9000E+01
#aMCatNLO 1  0  0  1  2 0.61350109D+03 0.00000000D+00  -5  7  0 0.00000000D+00 0.00000000D+00 0.00000000D+00 0.00000000D+00 0.00000000D+00
  <mgrwgt>
 0.5825265405D-03    3    2    0
 0.429695138764261D+03 0.000000000000000D+00 0.000000000000000D+00 0.429695138764261D+03
 0.429695138764261D+03 0.000000000000000D+00 0.000000000000000D+00 -.429695138764261D+03
 0.221752230287284D+03 -.828796071660986D+02 0.125357209787063D+03 -.135186319440172D+03
 0.280322239437209D+03 -.641986258400749D+02 -.116498420921960D+03 0.246753343008819D+03
 0.101561593243178D+03 0.279131210410012D+02 -.220840091594301D+02 0.951205100663855D+02
 0.255754214560852D+03 0.119165111965172D+03 0.132252202943273D+02 -.206687533635032D+03
 0.000000000000000D+00 0.000000000000000D+00 -.000000000000000D+00 -.000000000000000D+00
 0.642390076399709D+03 0.000000000000000D+00 0.000000000000000D+00 0.642390076399709D+03
 0.135019876689062D+04 0.000000000000000D+00 0.000000000000000D+00 -.135019876689062D+04
 0.379577633861351D+03 -.180108645583195D+03 0.291632411789548D+03 -.135186319440172D+03
 0.295764364767725D+03 -.157346081024458D+03 0.427967050913127D+02 0.246753343008819D+03
 0.101117481032703D+03 -.485806275345657D+01 0.339592809316286D+02 0.951205100663855D+02
 0.279445460123148D+03 0.326286652773927D+02 0.161214600708253D+03 -.206687533635032D+03
 0.936683903505405D+03 0.309684124083717D+03 -.529602998520742D+03 -.707808690490914D+03
0.217279704842D-04 0.000000000000D+00 0.000000000000D+00 0.272240159526D-06 0.000000000000D+00  7 -2 2 23 -13 13 23 21 0 0.48505190D-01 0.90096094D-01 0.61261944D+05 0.61261944D+05 0.61261944D+05 0.11396154D+01  1  2  2  1  7  1       -2 0.564185658395D-03 0.100000000000D+01
-.760522068170D-06 0.000000000000D+00 -.834411277652D-07 0.272240159526D-06 0.000000000000D+00  7 -2 2 23 -13 13 23 21 2 0.48505190D-01 0.90096094D-01 0.61261944D+05 0.61261944D+05 0.61261944D+05 0.11396154D+01  1  2  3  1  7  1       -2 -.256466916814D-04 0.100000000000D+01
0.130439906345D-05 0.000000000000D+00 0.000000000000D+00 0.272240159526D-06 0.000000000000D+00  7 -2 2 23 -13 13 23 21 2 0.48505190D-01 0.90096094D-01 0.61261944D+05 0.61261944D+05 0.61261944D+05 0.11396154D+01  1  2 15  1  7  1       -2 0.439875738126D-04 0.100000000000D+01
  </mgrwgt>
  </event>
  <event>
  8     66 0.53686478E-06 0.10574232E+03 0.75467711E-02 0.10270094E+00
       -2 -1    0    0    0  501 0.00000000E+00 0.00000000E+00 0.18916303E+03 0.18916330E+03 0.32000000E+00 0.0000E+00 0.9000E+01
        2 -1    0    0  501    0 0.00000000E+00 0.00000000E+00 -.28158897E+04 0.28158897E+04 0.32000000E+00 0.0000E+00 0.9000E+01
       25  2    1    2    0    0 -.23388639E+02 -.16542351E+03 -.27548766E+04 0.27758602E+04 0.29688830E+03 0.0000E+00 0.0000E+00
       23  2    1    2    0    0 0.23388639E+02 0.16542351E+03 0.12814995E+03 0.22919282E+03 0.90526093E+02 0.0000E+00 0.0000E+00
       23  1    3    3    0    0 0.28797137E+02 -.14645757E+01 -.17303569E+04 0.17329979E+04 0.91188000E+02 0.0000E+00 0.9000E+01
      -11  1    4    4    0    0 -.18660089E+02 0.13573529E+03 0.10565906E+03 0.17302053E+03 0.51099893E-03 0.0000E+00 0.9000E+01
       11  1    4    4    0    0 0.42048727E+02 0.29688221E+02 0.22490891E+02 0.56172289E+02 0.51099893E-03 0.0000E+00 0.9000E+01
       23  1    3    3    0    0 -.52185776E+02 -.16395893E+03 -.10245197E+04 0.10428623E+04 0.91188000E+02 0.0000E+00 0.9000E+01
#aMCatNLO 1  0  0  2  1 0.47200656D+02 0.00000000D+00  -5  7  0 0.00000000D+00 0.00000000D+00 0.00000000D+00 0.00000000D+00 0.00000000D+00
  <mgrwgt>
 0.4316154246D-03    9    2    0
 0.729837422169223D+03 0.000000000000000D+00 0.000000000000000D+00 0.729837422169223D+03
 0.729837422169223D+03 0.000000000000000D+00 0.000000000000000D+00 -.729837422169223D+03
 0.453920206887929D+03 0.287971370787554D+02 -.146457565326088D+01 -.443730642159636D+03
 0.546336295980665D+03 -.186600888009027D+02 0.135735288987982D+03 0.528877188688607D+03
 0.156115681671226D+03 0.420487273854292D+02 0.296882204967628D+02 0.147385956429617D+03
 0.303302659798626D+03 -.521857756632819D+02 -.163958933831484D+03 -.232532502958588D+03
 0.000000000000000D+00 0.000000000000000D+00 0.000000000000000D+00 -.000000000000000D+00
 0.748766286816541D+03 0.000000000000000D+00 0.000000000000000D+00 0.748766286816541D+03
 0.760248756568963D+03 0.000000000000000D+00 0.000000000000000D+00 -.760248756568963D+03
 0.453374177134761D+03 0.160888187106987D+02 -.878409185473400D+01 -.443730642159636D+03
 0.544954095037210D+03 -.339456079943174D+02 0.126931401475583D+03 0.528877188688607D+03
 0.154539895132471D+03 0.376974274740050D+02 0.271820344478522D+02 0.147385956429617D+03
 0.307569627721767D+03 -.607421600614885D+02 -.168887091311873D+03 -.232532502958588D+03
 0.485772483592959D+02 0.409015218711022D+02 0.235577472431721D+02 -.114824697524220D+02
0.480732727210D-04 0.000000000000D+00 0.000000000000D+00 0.131144156551D-06 0.000000000000D+00  7 -2 2 23 -11 11 23 21 0 0.29102027D-01 0.43321382D+00 0.57325964D+05 0.57325964D+05 0.57325964D+05 0.11421086D+01  1  2  2  2  7  2        2 0.163875967769D-03 0.100000000000D+01
0.136316432641D-05 0.000000000000D+00 -.184614025232D-06 0.131144156551D-06 0.000000000000D+00  7 -2 2 23 -11 11 23 21 2 0.29102027D-01 0.43321382D+00 0.57325964D+05 0.57325964D+05 0.57325964D+05 0.11421086D+01  1  2  3  2  7  2        2 0.606142278960D-05 0.100000000000D+01
0.278684067388D-05 0.000000000000D+00 0.000000000000D+00 0.131144156551D-06 0.000000000000D+00  7 -2 2 23 -11 11 23 21 2 0.29102027D-01 0.43321382D+00 0.57325964D+05 0.57325964D+05 0.57325964D+05 0.11421086D+01  1  2 15  2  7  2        2 0.123919172798D-04 0.100000000000D+01
0.952046850121D-04 0.000000000000D+00 0.000000000000D+00 0.131144156551D-06 0.000000000000D+00  7 -2 2 23 -11 11 23 21 2 0.29102027D-01 0.45669242D+00 0.67442852D+05 0.67442852D+05 0.67442852D+05 0.11360361D+01  1  2 12  2  7  2        2 0.335166319122D-03 0.100000000000D+01
-.859964540647D-04 0.000000000000D+00 0.000000000000D+00 0.131144156551D-06 0.000000000000D+00  7 -2 2 23 -11 11 23 21 2 0.29102027D-01 0.43321382D+00 0.57325964D+05 0.57325964D+05 0.57325964D+05 0.11421086D+01  1  2  4  2  7  2        2 -.382390337242D-03 0.100000000000D+01
-.349970457240D-03 0.000000000000D+00 -.799127240105D-04 0.131144156551D-06 0.000000000000D+00  7 -2 2 23 -11 11 23 21 2 0.29102027D-01 0.45526246D+00 0.57325964D+05 0.57325964D+05 0.57325964D+05 0.11421086D+01  1  2  5  2  7  2        2 -.127526971345D-02 0.100000000000D+01
0.353600110154D-03 0.000000000000D+00 0.798143568157D-04 0.131144156551D-06 0.000000000000D+00  7 -2 2 23 -11 11 23 21 2 0.29102027D-01 0.43321382D+00 0.57325964D+05 0.57325964D+05 0.57325964D+05 0.11421086D+01  1  2  6  2  7  2        2 0.157231210102D-02 0.100000000000D+01
0.114132926236D-05 0.000000000000D+00 0.000000000000D+00 0.131144156551D-06 0.000000000000D+00  7 -2 21 23 -11 11 23 -2 2 0.29102027D-01 0.45669242D+00 0.67442852D+05 0.67442852D+05 0.67442852D+05 0.11360361D+01  1  2 12  4  7  2        2 0.305321384573D-06 0.100000000000D+01
-.295882808276D-05 0.000000000000D+00 -.691458538537D-06 0.131144156551D-06 0.000000000000D+00  7 -2 21 23 -11 11 23 -2 2 0.29102027D-01 0.45526246D+00 0.57325964D+05 0.57325964D+05 0.57325964D+05 0.11421086D+01  1  2  5  4  7  2        2 -.837574030508D-06 0.100000000000D+01
  </mgrwgt>
  </event>
  <event>
  8     66 0.53686478E-06 0.54345634E+03 0.75467711E-02 0.91392815E-01
       -2 -1    0    0    0  501 0.00000000E+00 0.00000000E+00 0.14150453E+03 0.14150489E+03 0.32000000E+00 0.0000E+00 0.9000E+01
        2 -1    0    0  501    0 0.00000000E+00 0.00000000E+00 -.28170096E+04 0.28170096E+04 0.32000000E+00 0.0000E+00 0.9000E+01
       25  2    1    2    0    0 -.18180143E+02 0.50179537E+03 -.21422105E+04 0.22206458E+04 0.30012145E+03 0.0000E+00 0.0000E+00
       23  2    1    2    0    0 0.18180143E+02 -.50179537E+03 -.53329455E+03 0.73786869E+03 0.88983187E+02 0.0000E+00 0.0000E+00
       23  1    3    3    0    0 -.37761442E+02 0.47756690E+03 -.17391585E+04 0.18062347E+04 0.91188000E+02 0.0000E+00 0.9000E+01
      -13  1    4    4    0    0 0.23572291E+02 -.26824739E+03 -.34605544E+03 0.43848226E+03 0.10565837E+00 0.0000E+00 0.9000E+01
       13  1    4    4    0    0 -.53921489E+01 -.23354798E+03 -.18723911E+03 0.29938642E+03 0.10565837E+00 0.0000E+00 0.9000E+01
       23  1    3    3    0    0 0.19581300E+02 0.24228472E+02 -.40305198E+03 0.41441115E+03 0.91188000E+02 0.0000E+00 0.9000E+01
#aMCatNLO 1  0  0  1  2 0.23135974D+03 0.00000000D+00  -5  7  0 0.00000000D+00 0.00000000D+00 0.00000000D+00 0.00000000D+00 0.00000000D+00
  <mgrwgt>
 0.3056906455D-03    4    2    0
 0.631363753665927D+03 0.000000000000000D+00 0.000000000000000D+00 0.631363753665927D+03
 0.631363753665927D+03 0.000000000000000D+00 0.000000000000000D+00 -.631363753665927D+03
 0.546946229678414D+03 -.377614424369711D+02 0.477566898604460D+03 -.247666827891483D+03
 0.294111775158321D+03 0.235723322778123D+02 -.268247437612621D+03 0.118276767169321D+03
 0.304721255102371D+03 -.539218970086958D+01 -.233547933477049D+03 0.195656153417147D+03
 0.116948247392748D+03 0.195812998600284D+02 0.242284724852104D+02 -.662660926949851D+02
 0.000000000000000D+00 -.000000000000000D+00 0.000000000000000D+00 -.000000000000000D+00
 0.703070347107546D+03 0.000000000000000D+00 0.000000000000000D+00 0.703070347107546D+03
 0.860543696654638D+03 0.000000000000000D+00 0.000000000000000D+00 -.860543696654638D+03
 0.531437923487542D+03 0.581571226883846D+02 0.457591418865705D+03 -.247666827891483D+03
 0.313256498931107D+03 0.775956533571200D+02 -.279498041228612D+03 0.118276767169321D+03
 0.317550900707289D+03 0.499567804481186D+02 -.245074609572830D+03 0.195656153417147D+03
 0.121502349715972D+03 0.407906611630527D+02 0.198115260220643D+02 -.662660926949851D+02
 0.279866370920274D+03 -.226500217656676D+03 0.471697059136720D+02 -.157473349547092D+03
0.687050109062D-04 0.000000000000D+00 0.000000000000D+00 0.638573509085D-06 0.000000000000D+00  7 -2 2 23 -13 13 23 21 0 0.21769957D-01 0.43338612D+00 0.29534479D+06 0.29534479D+06 0.29534479D+06 0.10850547D+01  1  2  2  1  7  1       -2 0.349396545257D-03 0.100000000000D+01
-.371261949525D-05 0.000000000000D+00 -.263845332325D-06 0.638573509085D-06 0.000000000000D+00  7 -2 2 23 -13 13 23 21 2 0.21769957D-01 0.43338612D+00 0.29534479D+06 0.29534479D+06 0.29534479D+06 0.10850547D+01  1  2  3  1  7  1       -2 -.222286924067D-04 0.100000000000D+01
0.421621189471D-05 0.000000000000D+00 0.000000000000D+00 0.638573509085D-06 0.000000000000D+00  7 -2 2 23 -13 13 23 21 2 0.21769957D-01 0.43338612D+00 0.29534479D+06 0.29534479D+06 0.29534479D+06 0.10850547D+01  1  2 15  1  7  1       -2 0.252438682307D-04 0.100000000000D+01
-.780331892309D-05 0.000000000000D+00 0.000000000000D+00 0.638573509085D-06 0.000000000000D+00  7 -2 2 23 -13 13 23 21 2 0.21769957D-01 0.43338612D+00 0.29534479D+06 0.29534479D+06 0.29534479D+06 0.10850547D+01  1  2  4  1  7  1       -2 -.467210755949D-04 0.100000000000D+01
  </mgrwgt>
  </event>
  <event>
  8     66 0.53686478E-06 0.22063707E+03 0.75467711E-02 0.93727610E-01
       -2 -1    0    0    0  501 0.00000000E+00 0.00000000E+00 0.12360713E+03 0.12360755E+03 0.32000000E+00 0.0000E+00 0.9000E+01
        2 -1    0    0  501    0 0.00000000E+00 0.00000000E+00 -.20866675E+04 0.20866676E+04 0.32000000E+00 0.0000E+00 0.9000E+01
       25  2    1    2    0    0 -.18077830E+03 0.30003906E+03 -.41906686E+03 0.62310701E+03 0.29990179E+03 0.0000E+00 0.0000E+00
       23  2    1    2    0    0 0.18077830E+03 -.30003906E+03 -.15439935E+04 0.15871681E+04 0.11172416E+03 0.0000E+00 0.0000E+00
       23  1    3    3    0    0 -.13818699E+03 0.23627374E+03 -.14210470E+03 0.32160522E+03 0.91188000E+02 0.0000E+00 0.9000E+01
      -13  1    4    4    0    0 0.26385394E+02 0.37967976E+00 -.66213888E+02 0.71278491E+02 0.10565837E+00 0.0000E+00 0.9000E+01
       13  1    4    4    0    0 0.15439290E+03 -.30041874E+03 -.14777796E+04 0.15158896E+04 0.10565837E+00 0.0000E+00 0.9000E+01
       23  1    3    3    0    0 -.42591305E+02 0.63765316E+02 -.27696217E+03 0.30150179E+03 0.91188000E+02 0.0000E+00 0.9000E+01
#aMCatNLO 1  0  0  2  1 0.26856245D+03 0.00000000D+00  -5  7  0 0.00000000D+00 0.00000000D+00 0.00000000D+00 0.00000000D+00 0.00000000D+00
  <mgrwgt>
 0.2371362581D-03    9    2    0
 0.507865608438651D+03 0.000000000000000D+00 0.000000000000000D+00 0.507865608438651D+03
 0.507865608438651D+03 0.000000000000000D+00 0.000000000000000D+00 -.507865608438651D+03
 0.425187214292843D+03 -.138186993978207D+03 0.236273745137232D+03 0.312326732618586D+03
 0.271359434615544D+02 0.263852666249055D+02 0.379933880113505D+00 -.632714650755498D+01
 0.442600080961477D+03 0.154393033610649D+03 -.300418997241272D+03 -.286017567530660D+03
 0.120807978161428D+03 -.425913062573469D+02 0.637653182239266D+02 -.199820185803707D+02
 0.000000000000000D+00 0.000000000000000D+00 -.000000000000000D+00 -.000000000000000D+00
 0.578743201407810D+03 0.000000000000000D+00 0.000000000000000D+00 0.578743201407810D+03
 0.862825743568093D+03 0.000000000000000D+00 0.000000000000000D+00 -.862825743568093D+03
 0.491921577005905D+03 -.252906612359377D+03 0.268629566683712D+03 0.312326732618586D+03
 0.213813165738455D+02 0.203163229957871D+02 0.209163463200196D+01 -.632714650755498D+01
 0.396958478911592D+03 0.493740451208646D+02 -.270799166749184D+03 -.286017567530660D+03
 0.140374480845651D+03 -.752621870835097D+02 0.729798989965485D+02 -.199820185803707D+02
 0.390933091638909D+03 0.258478431326235D+03 -.729019335630791D+02 -.284082542160284D+03
0.137723782326D-04 0.000000000000D+00 0.000000000000D+00 0.118693411158D-07 0.000000000000D+00  7 -2 2 23 -13 13 23 21 0 0.19016516D-01 0.32102581D+00 0.14892232D+06 0.14892232D+06 0.14892232D+06 0.11077991D+01  1  2  2  2  7  2        2 0.237857276280D-03 0.100000000000D+01
-.694969827587D-06 0.000000000000D+00 -.528895587638D-07 0.118693411158D-07 0.000000000000D+00  7 -2 2 23 -13 13 23 21 2 0.19016516D-01 0.32102581D+00 0.14892232D+06 0.14892232D+06 0.14892232D+06 0.11077991D+01  1  2  3  2  7  2        2 -.147297530356D-04 0.100000000000D+01
0.842844866360D-06 0.000000000000D+00 0.000000000000D+00 0.118693411158D-07 0.000000000000D+00  7 -2 2 23 -13 13 23 21 2 0.19016516D-01 0.32102581D+00 0.14892232D+06 0.14892232D+06 0.14892232D+06 0.11077991D+01  1  2 15  2  7  2        2 0.178639362977D-04 0.100000000000D+01
0.201388845045D-05 0.000000000000D+00 0.000000000000D+00 0.118693411158D-07 0.000000000000D+00  7 -2 2 23 -13 13 23 21 2 0.19016516D-01 0.55455526D+00 0.29335535D+06 0.29335535D+06 0.29335535D+06 0.10852723D+01  1  2 12  2  7  2        2 0.453568094879D-05 0.100000000000D+01
-.901015686749D-05 0.000000000000D+00 0.000000000000D+00 0.118693411158D-07 0.000000000000D+00  7 -2 2 23 -13 13 23 21 2 0.19016516D-01 0.32102581D+00 0.14892232D+06 0.14892232D+06 0.14892232D+06 0.11077991D+01  1  2  4  2  7  2        2 -.190968557486D-03 0.100000000000D+01
-.856477227864D-05 0.000000000000D+00 -.359826653327D-05 0.118693411158D-07 0.000000000000D+00  7 -2 2 23 -13 13 23 21 2 0.19016516D-01 0.56078032D+00 0.14892232D+06 0.14892232D+06 0.14892232D+06 0.11077991D+01  1  2  5  2  7  2        2 -.196827229869D-04 0.100000000000D+01
0.954364216216D-05 0.000000000000D+00 0.310288820627D-05 0.118693411158D-07 0.000000000000D+00  7 -2 2 23 -13 13 23 21 2 0.19016516D-01 0.32102581D+00 0.14892232D+06 0.14892232D+06 0.14892232D+06 0.11077991D+01  1  2  6  2  7  2        2 0.202275676625D-03 0.100000000000D+01
0.122065967532D-06 0.000000000000D+00 0.000000000000D+00 0.118693411158D-07 0.000000000000D+00  7 -2 21 23 -13 13 23 -2 2 0.19016516D-01 0.55455526D+00 0.29335535D+06 0.29335535D+06 0.29335535D+06 0.10852723D+01  1  2 12  4  7  2        2 0.840289608811D-08 0.100000000000D+01
-.345824080003D-06 0.000000000000D+00 -.221815260033D-06 0.118693411158D-07 0.000000000000D+00  7 -2 21 23 -13 13 23 -2 2 0.19016516D-01 0.56078032D+00 0.14892232D+06 0.14892232D+06 0.14892232D+06 0.11077991D+01  1  2  5  4  7  2        2 -.236814710175D-07 0.100000000000D+01
  </mgrwgt>
  </event>
  <event>
  9     66 0.53686478E-06 0.27882223E+03 0.75467711E-02 0.99298066E-01
       -2 -1    0    0    0  501 0.00000000E+00 0.00000000E+00 0.37892303E+03 0.37892316E+03 0.32000000E+00 0.0000E+00 0.9000E+01
       21 -1    0    0  501  502 0.00000000E+00 0.00000000E+00 -.47770313E+03 0.47770372E+03 0.75000000E+00 0.0000E+00 0.9000E+01
       25  2    1    2    0    0 -.30782451E+03 0.47997743E+02 -.23374842E+03 0.49247573E+03 0.30138731E+03 0.0000E+00 0.0000E+00
       23  2    1    2    0    0 0.20226564E+03 -.46301151E+02 0.61143525E+02 0.23532664E+03 0.92654807E+02 0.0000E+00 0.0000E+00
       23  1    3    3    0    0 -.13533702E+03 0.20442588E+02 -.24503035E+03 0.29510868E+03 0.91188000E+02 0.0000E+00 0.9000E+01
      -11  1    4    4    0    0 0.13237717E+03 -.39870579E+02 -.57497746E+01 0.13837065E+03 0.51099893E-03 0.0000E+00 0.9000E+01
       11  1    4    4    0    0 0.69888472E+02 -.64305720E+01 0.66893300E+02 0.96955991E+02 0.51099893E-03 0.0000E+00 0.9000E+01
       23  1    3    3    0    0 -.17248749E+03 0.27555154E+02 0.11281933E+02 0.19736706E+03 0.91188000E+02 0.0000E+00 0.9000E+01
       -2  1    1    2    0  502 0.10555887E+03 -.16965915E+01 0.73824781E+02 0.12882451E+03 0.32000000E+00 0.0000E+00 0.9000E+01
#aMCatNLO 2  0  0  2  1 0.10557250D+03 0.00000000D+00  -5  7  0 0.00000000D+00 0.00000000D+00 0.00000000D+00 0.00000000D+00 0.00000000D+00
  <mgrwgt>
 0.7554145260D-05    1    2    0
 0.349556252453948D+03 0.000000000000000D+00 0.000000000000000D+00 0.349556252453948D+03
 0.349556252453948D+03 0.000000000000000D+00 0.000000000000000D+00 -.349556252453948D+03
 0.226239199065463D+03 -.100039659854988D+03 0.198752727840119D+02 -.180183139715239D+03
 0.162713836580189D+03 0.155179059706967D+03 -.402370618886379D+02 0.278609205461007D+02
 0.128018264356442D+03 0.882167892136503D+02 -.672515331814807D+01 0.925270037476502D+02
 0.182141204905801D+03 -.143356189065629D+03 0.270869424227741D+02 0.597952154214882D+02
 0.000000000000000D+00 0.000000000000000D+00 -.000000000000000D+00 0.000000000000000D+00
 0.482555169239001D+03 0.000000000000000D+00 0.000000000000000D+00 0.482555169239001D+03
 0.375113315176911D+03 0.000000000000000D+00 0.000000000000000D+00 -.375113315176911D+03
 0.243957419697210D+03 -.135337016454191D+03 0.204425884113865D+02 -.180183139715239D+03
 0.141030522454906D+03 0.132377166779553D+03 -.398705791987774D+02 0.278609205461007D+02
 0.116133531471681D+03 0.698884715316575D+02 -.643057202237154D+01 0.925270037476502D+02
 0.205917314504535D+03 -.172487491576970D+03 0.275551543443669D+02 0.597952154214882D+02
 0.150629696287579D+03 0.105558869719951D+03 -.169659153460443D+01 0.107441854062090D+03
0.130906383772D-06 0.000000000000D+00 0.000000000000D+00 0.402520586922D-07 0.387672296186D-12  7 -2 21 23 -11 11 23 -2 2 0.58295880D-01 0.73492814D-01 0.11408123D+06 0.11408123D+06 0.11408123D+06 0.11170570D+01  1  2  1  4  7  2        2 0.755414526008D-05 0.100000000000D+01
  </mgrwgt>
  </event>
  <event>
  8     66 0.53686478E-06 0.23926506E+03 0.75467711E-02 0.96277579E-01
       -2 -1    0    0    0  501 0.00000000E+00 0.00000000E+00 0.10275939E+03 0.10275989E+03 0.32000000E+00 0.0000E+00 0.9000E+01
        2 -1    0    0  501    0 0.00000000E+00 0.00000000E+00 -.82291835E+03 0.82291842E+03 0.32000000E+00 0.0000E+00 0.9000E+01
       25  2    1    2    0    0 0.16208096E+03 -.95478877E+02 -.55825359E+03 0.66092567E+03 0.29964849E+03 0.0000E+00 0.0000E+00
       23  2    1    2    0    0 -.16208096E+03 0.95478877E+02 -.16190538E+03 0.26475263E+03 0.92163726E+02 0.0000E+00 0.0000E+00
       23  1    3    3    0    0 0.13371805E+03 -.11737792E+02 -.49117567E+03 0.51728820E+03 0.91188000E+02 0.0000E+00 0.9000E+01
      -11  1    4    4    0    0 -.84637326E+02 0.37887033E+02 -.13638695E+03 0.16492515E+03 0.51099893E-03 0.0000E+00 0.9000E+01
       11  1    4    4    0    0 -.77443634E+02 0.57591844E+02 -.25518427E+02 0.99827487E+02 0.51099893E-03 0.0000E+00 0.9000E+01
       23  1    3    3    0    0 0.28362908E+02 -.83741085E+02 -.67077918E+02 0.14363747E+03 0.91188000E+02 0.0000E+00 0.9000E+01
#aMCatNLO 1  0  0  1  1 0.30005520D+03 0.00000000D+00  -5  7  0 0.00000000D+00 0.00000000D+00 0.00000000D+00 0.00000000D+00 0.00000000D+00
  <mgrwgt>
 0.2730800144D-03    3    2    0
 0.290796916732715D+03 0.000000000000000D+00 0.000000000000000D+00 0.290796916732715D+03
 0.290796916732715D+03 0.000000000000000D+00 0.000000000000000D+00 -.290796916732715D+03
 0.215129349436976D+03 0.133718052039937D+03 -.117377923292213D+02 -.141234175874883D+03
 0.936174746521338D+02 -.846373257854134D+02 0.378870326632863D+02 -.128579702950269D+02
 0.127289544938146D+03 -.774436339254902D+02 0.575918443174209D+02 0.829957305112311D+02
 0.145557464438175D+03 0.283629076709670D+02 -.837410846514859D+02 0.710964156586784D+02
 0.000000000000000D+00 -.000000000000000D+00 -.000000000000000D+00 -.000000000000000D+00
 0.451740215263912D+03 0.000000000000000D+00 0.000000000000000D+00 0.451740215263912D+03
 0.507973308583646D+03 0.000000000000000D+00 0.000000000000000D+00 -.507973308583646D+03
 0.258608538160036D+03 0.170838015501203D+03 0.971102707741268D+02 -.141234175874883D+03
 0.109748669136937D+03 -.687024723055700D+02 0.846133161879587D+02 -.128579702950269D+02
 0.158457821508753D+03 -.550537595258205D+02 0.123246393360130D+03 0.829957305112311D+02
 0.127619468043218D+03 0.497678195803899D+02 -.209747728077351D+02 0.710964156586784D+02
 0.305279026998614D+03 -.968496032502023D+02 -.283995207514481D+03 -.562330933197348D+02
0.221450589434D-05 0.000000000000D+00 0.000000000000D+00 0.191449476355D-06 0.000000000000D+00  7 -2 2 23 -11 11 23 21 0 0.15809180D-01 0.12660287D+00 0.57247769D+05 0.57247769D+05 0.57247769D+05 0.11421600D+01  1  2  2  1  7  1       -2 0.268823374528D-03 0.100000000000D+01
-.117337062363D-06 0.000000000000D+00 -.850428572707D-08 0.191449476355D-06 0.000000000000D+00  7 -2 2 23 -11 11 23 21 2 0.15809180D-01 0.12660287D+00 0.57247769D+05 0.57247769D+05 0.57247769D+05 0.11421600D+01  1  2  3  1  7  1       -2 -.185814367270D-04 0.100000000000D+01
0.144216664121D-06 0.000000000000D+00 0.000000000000D+00 0.191449476355D-06 0.000000000000D+00  7 -2 2 23 -11 11 23 21 2 0.15809180D-01 0.12660287D+00 0.57247769D+05 0.57247769D+05 0.57247769D+05 0.11421600D+01  1  2 15  1  7  1       -2 0.228380766092D-04 0.100000000000D+01
  </mgrwgt>
  </event>
  <event>
  8     66 0.53686478E-06 0.28645308E+03 0.75467711E-02 0.86706136E-01
       -2 -1    0    0    0  501 0.00000000E+00 0.00000000E+00 0.18207913E+03 0.18207942E+03 0.32000000E+00 0.0000E+00 0.9000E+01
        2 -1    0    0  501    0 0.00000000E+00 0.00000000E+00 -.11955973E+04 0.11955973E+04 0.32000000E+00 0.0000E+00 0.9000E+01
       25  2    1    2    0    0 -.13378199E+03 0.17109791E+03 -.10726376E+04 0.11347894E+04 0.30003906E+03 0.0000E+00 0.0000E+00
       23  2    1    2    0    0 0.13378199E+03 -.17109791E+03 0.59119422E+02 0.24288737E+03 0.91252680E+02 0.0000E+00 0.0000E+00
       23  1    3    3    0    0 -.72930401E+02 -.27442505E+02 -.20044637E+03 0.23359352E+03 0.91188000E+02 0.0000E+00 0.9000E+01
      -11  1    4    4    0    0 0.12565159E+03 -.11775658E+03 0.14399784E+02 0.17280708E+03 0.51099893E-03 0.0000E+00 0.9000E+01
       11  1    4    4    0    0 0.81304089E+01 -.53341335E+02 0.44719638E+02 0.70080294E+02 0.51099893E-03 0.0000E+00 0.9000E+01
       23  1    3    3    0    0 -.60851594E+02 0.19854042E+03 -.87219118E+03 0.90119583E+03 0.91188000E+02 0.0000E+00 0.9000E+01
#aMCatNLO 1  0  0  2  2 0.10167006D+04 0.00000000D+00  -5  7  0 0.00000000D+00 0.00000000D+00 0.00000000D+00 0.00000000D+00 0.00000000D+00
  <mgrwgt>
 0.2527273033D-03    5    2    0
 0.466576402089697D+03 0.000000000000000D+00 0.000000000000000D+00 0.466576402089697D+03
 0.466576402089697D+03 0.000000000000000D+00 0.000000000000000D+00 -.466576402089697D+03
 0.127160659972545D+03 -.729304009391397D+02 -.274425053148750D+02 -.422214118848792D+02
 0.270766729553129D+03 0.125651585590963D+03 -.117756578874518D+03 0.208949010534014D+03
 0.152035285742111D+03 0.813040890900401D+01 -.533413353310753D+02 0.142138406163695D+03
 0.383190128911608D+03 -.608515935608270D+02 0.198540419520468D+03 -.308866004812831D+03
 0.000000000000000D+00 0.000000000000000D+00 -.000000000000000D+00 -.000000000000000D+00
 0.997065618533741D+03 0.000000000000000D+00 0.000000000000000D+00 0.997065618533741D+03
 0.153161608656114D+04 0.000000000000000D+00 0.000000000000000D+00 -.153161608656114D+04
 0.163032999866433D+03 -.806709450957073D+02 0.998702092581225D+02 -.422214118848792D+02
 0.264059736477663D+03 0.111385774688307D+03 0.116880557076849D+03 0.208949010534014D+03
 0.166294120258135D+03 -.360620236312574D+00 0.863149922013350D+02 0.142138406163695D+03
 0.786632839965162D+03 -.920551227867313D+02 0.711760928266884D+03 -.308866004812831D+03
 0.114866200852749D+04 0.617009134304439D+02 -.101482668680319D+04 -.534550468027399D+03
0.884212955974D-05 0.000000000000D+00 0.000000000000D+00 0.159142047714D-05 0.000000000000D+00  7 -2 2 23 -11 11 23 21 0 0.28012200D-01 0.18393807D+00 0.82055369D+05 0.82055369D+05 0.82055369D+05 0.11288395D+01  1  2  2  2  7  2        2 0.245918804865D-03 0.100000000000D+01
-.349083898469D-06 0.000000000000D+00 -.339561056956D-07 0.159142047714D-05 0.000000000000D+00  7 -2 2 23 -11 11 23 21 2 0.28012200D-01 0.18393807D+00 0.82055369D+05 0.82055369D+05 0.82055369D+05 0.11288395D+01  1  2  3  2  7  2        2 -.123716903442D-04 0.100000000000D+01
0.518104177767D-06 0.000000000000D+00 0.000000000000D+00 0.159142047714D-05 0.000000000000D+00  7 -2 2 23 -11 11 23 21 2 0.28012200D-01 0.18393807D+00 0.82055369D+05 0.82055369D+05 0.82055369D+05 0.11288395D+01  1  2 15  2  7  2        2 0.183618450506D-04 0.100000000000D+01
0.441246882286D-05 0.000000000000D+00 -.284981227908D-05 0.159142047714D-05 0.000000000000D+00  7 -2 2 23 -11 11 23 21 2 0.28012200D-01 0.71208221D+00 0.82055369D+05 0.82055369D+05 0.82055369D+05 0.11288395D+01  1  2  5  2  7  2        2 0.816893969050D-06 0.100000000000D+01
0.758010452761D-06 0.000000000000D+00 -.458333693360D-06 0.159142047714D-05 0.000000000000D+00  7 -2 21 23 -11 11 23 -2 2 0.28012200D-01 0.71208221D+00 0.82055369D+05 0.82055369D+05 0.82055369D+05 0.11288395D+01  1  2  5  4  7  2        2 0.144975371455D-08 0.100000000000D+01
  </mgrwgt>
  </event>
  <event>
  8     66 0.53686478E-06 0.10634413E+03 0.75467711E-02 0.10294403E+00
       -2 -1    0    0    0  501 0.00000000E+00 0.00000000E+00 0.47255357E+02 0.47256440E+02 0.32000000E+00 0.0000E+00 0.9000E+01
        2 -1    0    0  501    0 0.00000000E+00 0.00000000E+00 -.33501810E+04 0.33501810E+04 0.32000000E+00 0.0000E+00 0.9000E+01
       25  2    1    2    0    0 -.12148518E+03 -.16882072E+02 -.55466762E+03 0.64487640E+03 0.30523064E+03 0.0000E+00 0.0000E+00
       23  2    1    2    0    0 0.12148518E+03 0.16882072E+02 -.27482580E+04 0.27525611E+04 0.92879406E+02 0.0000E+00 0.0000E+00
       23  1    3    3    0    0 -.16397504E+03 0.59813544E+02 -.27824761E+03 0.34088481E+03 0.91188000E+02 0.0000E+00 0.9000E+01
      -13  1    4    4    0    0 -.15413185E+02 -.23233809E+01 -.26396095E+03 0.26442080E+03 0.10565837E+00 0.0000E+00 0.9000E+01
       13  1    4    4    0    0 0.13689836E+03 0.19205453E+02 -.24842971E+04 0.24881403E+04 0.10565837E+00 0.0000E+00 0.9000E+01
       23  1    3    3    0    0 0.42489862E+02 -.76695616E+02 -.27642001E+03 0.30399158E+03 0.91188000E+02 0.0000E+00 0.9000E+01
#aMCatNLO 1  0  0  2  1 0.29750112D+02 0.00000000D+00  -5  7  0 0.00000000D+00 0.00000000D+00 0.00000000D+00 0.00000000D+00 0.00000000D+00
  <mgrwgt>
 0.3974415320D-03    9    2    0
 0.397889264381331D+03 0.000000000000000D+00 0.000000000000000D+00 0.397889264381331D+03
 0.397889264381331D+03 0.000000000000000D+00 0.000000000000000D+00 -.397889264381331D+03
 0.300465100007015D+03 -.163975031108522D+03 0.598135330033094D+02 0.226932931547730D+03
 0.333125952738030D+02 -.154133809173575D+02 -.232340862511566D+01 -.294407619625135D+02
 0.311459415104557D+03 0.136898564450533D+03 0.192054811907582D+02 -.279100160875783D+03
 0.150541418377288D+03 0.424898475753467D+02 -.766956055689519D+02 0.816079912905665D+02
 0.000000000000000D+00 -.000000000000000D+00 0.000000000000000D+00 -.000000000000000D+00
 0.400150912920392D+03 0.000000000000000D+00 0.000000000000000D+00 0.400150912920392D+03
 0.509710256335367D+03 0.000000000000000D+00 0.000000000000000D+00 -.509710256335367D+03
 0.294311298604413D+03 -.152950248714705D+03 0.584085194083798D+02 0.226932931547730D+03
 0.327752425107628D+02 -.141883759707025D+02 -.247952495852028D+01 -.294407619625135D+02
 0.316663103209491D+03 0.148541450915489D+03 0.177216955537137D+02 -.279100160875783D+03
 0.152584792947194D+03 0.481085986312333D+02 -.774116670147065D+02 0.816079912905665D+02
 0.113526731983898D+03 -.295114248613141D+02 0.376097701113334D+01 -.109559343414976D+03
0.205686725426D-04 0.000000000000D+00 0.000000000000D+00 0.747246321550D-08 0.000000000000D+00  7 -2 2 23 -13 13 23 21 0 0.72701394D-02 0.51541255D+00 0.56943628D+05 0.56943628D+05 0.56943628D+05 0.11423607D+01  1  2  2  2  7  2        2 0.295407956604D-03 0.100000000000D+01
-.779535907266D-06 0.000000000000D+00 -.789891184195D-07 0.747246321550D-08 0.000000000000D+00  7 -2 2 23 -13 13 23 21 2 0.72701394D-02 0.51541255D+00 0.56943628D+05 0.56943628D+05 0.56943628D+05 0.11423607D+01  1  2  3  2  7  2        2 -.146102818310D-04 0.100000000000D+01
0.130623479782D-05 0.000000000000D+00 0.000000000000D+00 0.747246321550D-08 0.000000000000D+00  7 -2 2 23 -13 13 23 21 2 0.72701394D-02 0.51541255D+00 0.56943628D+05 0.56943628D+05 0.56943628D+05 0.11423607D+01  1  2 15  2  7  2        2 0.244818209856D-04 0.100000000000D+01
0.150757484431D-03 0.000000000000D+00 0.000000000000D+00 0.747246321550D-08 0.000000000000D+00  7 -2 2 23 -13 13 23 21 2 0.72701394D-02 0.66144263D+00 0.65045546D+05 0.65045546D+05 0.65045546D+05 0.11373798D+01  1  2 12  2  7  2        2 0.517515671964D-03 0.100000000000D+01
-.148796829955D-03 0.000000000000D+00 0.000000000000D+00 0.747246321550D-08 0.000000000000D+00  7 -2 2 23 -13 13 23 21 2 0.72701394D-02 0.51541255D+00 0.56943628D+05 0.56943628D+05 0.56943628D+05 0.11423607D+01  1  2  4  2  7  2        2 -.278879215303D-02 0.100000000000D+01
-.156396526718D-03 0.000000000000D+00 -.662547117768D-05 0.747246321550D-08 0.000000000000D+00  7 -2 2 23 -13 13 23 21 2 0.72701394D-02 0.66082513D+00 0.56943628D+05 0.56943628D+05 0.56943628D+05 0.11423607D+01  1  2  5  2  7  2        2 -.551225705527D-03 0.100000000000D+01
0.155513472028D-03 0.000000000000D+00 0.651736600879D-05 0.747246321550D-08 0.000000000000D+00  7 -2 2 23 -13 13 23 21 2 0.72701394D-02 0.51541255D+00 0.56943628D+05 0.56943628D+05 0.56943628D+05 0.11423607D+01  1  2  6  2  7  2        2 0.291467735311D-02 0.100000000000D+01
0.509392108294D-05 0.000000000000D+00 0.000000000000D+00 0.747246321550D-08 0.000000000000D+00  7 -2 21 23 -13 13 23 -2 2 0.72701394D-02 0.66144263D+00 0.65045546D+05 0.65045546D+05 0.65045546D+05 0.11373798D+01  1  2 12  4  7  2        2 0.258193551944D-06 0.100000000000D+01
-.515988491516D-05 0.000000000000D+00 -.223247987081D-06 0.747246321550D-08 0.000000000000D+00  7 -2 21 23 -13 13 23 -2 2 0.72701394D-02 0.66082513D+00 0.56943628D+05 0.56943628D+05 0.56943628D+05 0.11423607D+01  1  2  5  4  7  2        2 -.271323830770D-06 0.100000000000D+01
  </mgrwgt>
  </event>
  <event>
  8     66 0.53686478E-06 0.12373265E+03 0.75467711E-02 0.10458064E+00
       -2 -1    0    0    0  501 0.00000000E+00 0.00000000E+00 0.54977979E+02 0.54978910E+02 0.32000000E+00 0.0000E+00 0.9000E+01
        2 -1    0    0  501    0 0.00000000E+00 0.00000000E+00 -.16672708E+04 0.16672708E+04 0.32000000E+00 0.0000E+00 0.9000E+01
       25  2    1    2    0    0 0.13768845E+03 -.47762598E+00 -.14636985E+04 0.15004002E+04 0.29971516E+03 0.0000E+00 0.0000E+00
       23  2    1    2    0    0 -.13768845E+03 0.47762598E+00 -.14859426E+03 0.22184946E+03 0.90435572E+02 0.0000E+00 0.0000E+00
       23  1    3    3    0    0 0.63121815E+02 0.47277497E+02 -.12162959E+04 0.12222563E+04 0.91188000E+02 0.0000E+00 0.9000E+01
      -13  1    4    4    0    0 -.12319239E+03 -.18382057E+01 -.16092780E+03 0.20267588E+03 0.10565837E+00 0.0000E+00 0.9000E+01
       13  1    4    4    0    0 -.14496061E+02 0.23158317E+01 0.12333542E+02 0.19173583E+02 0.10565837E+00 0.0000E+00 0.9000E+01
       23  1    3    3    0    0 0.74566635E+02 -.47755123E+02 -.24740261E+03 0.27814392E+03 0.91188000E+02 0.0000E+00 0.9000E+01
#aMCatNLO 1  0  0  2  1 0.56939647D+02 0.00000000D+00  -5  7  0 0.00000000D+00 0.00000000D+00 0.00000000D+00 0.00000000D+00 0.00000000D+00
  <mgrwgt>
 0.2393554578D-03    6    2    0
 0.302760640229325D+03 0.000000000000000D+00 0.000000000000000D+00 0.302760640229325D+03
 0.302760640229325D+03 0.000000000000000D+00 0.000000000000000D+00 -.302760640229325D+03
 0.237820659600383D+03 0.631218149347000D+02 0.472774966905532D+02 -.204997291627927D+03
 0.147964725960621D+03 -.123192537231321D+03 -.183821136889822D+01 0.819376584854271D+02
 0.873741839551604D+02 -.144959128119283D+02 0.231583734697412D+01 0.861321858016012D+02
 0.132361710942486D+03 0.745666351085496D+02 -.477551226686291D+02 0.369274473408989D+02
 0.000000000000000D+00 -.000000000000000D+00 -.000000000000000D+00 0.000000000000000D+00
 0.332738748987993D+03 0.000000000000000D+00 0.000000000000000D+00 0.332738748987993D+03
 0.332394461169360D+03 0.000000000000000D+00 0.000000000000000D+00 -.332394461169360D+03
 0.243697641454879D+03 0.646130932137288D+02 0.698179612795978D+02 -.204997291627927D+03
 0.147680245261397D+03 -.122276914869884D+03 0.120012937758796D+02 0.819376584854271D+02
 0.878869389227016D+02 -.139531232541208D+02 0.105200263163385D+02 0.861321858016012D+02
 0.128927696891213D+03 0.753758571414168D+02 -.355238437497163D+02 0.369274473408989D+02
 0.569406876271631D+02 -.375891223114078D+01 -.568154376220996D+02 0.344287818633579D+00
0.252078767024D-05 0.000000000000D+00 0.000000000000D+00 0.287635486834D-06 0.000000000000D+00  7 -2 2 23 -13 13 23 21 0 0.84582246D-02 0.25650327D+00 0.37162672D+05 0.37162672D+05 0.37162672D+05 0.11588056D+01  1  2  2  2  7  2        2 0.268809308092D-03 0.100000000000D+01
-.105346723357D-06 0.000000000000D+00 -.968048839236D-08 0.287635486834D-06 0.000000000000D+00  7 -2 2 23 -13 13 23 21 2 0.84582246D-02 0.25650327D+00 0.37162672D+05 0.37162672D+05 0.37162672D+05 0.11588056D+01  1  2  3  2  7  2        2 -.150851716282D-04 0.100000000000D+01
0.156827408017D-06 0.000000000000D+00 0.000000000000D+00 0.287635486834D-06 0.000000000000D+00  7 -2 2 23 -13 13 23 21 2 0.84582246D-02 0.25650327D+00 0.37162672D+05 0.37162672D+05 0.37162672D+05 0.11588056D+01  1  2 15  2  7  2        2 0.224569715180D-04 0.100000000000D+01
0.228607636862D-05 0.000000000000D+00 0.000000000000D+00 0.287635486834D-06 0.000000000000D+00  7 -2 2 23 -13 13 23 21 2 0.84582246D-02 0.29311431D+00 0.51207129D+05 0.51207129D+05 0.51207129D+05 0.11463852D+01  1  2 12  2  7  2        2 0.239262963766D-03 0.100000000000D+01
-.193644857753D-05 0.000000000000D+00 0.000000000000D+00 0.287635486834D-06 0.000000000000D+00  7 -2 2 23 -13 13 23 21 2 0.84582246D-02 0.25650327D+00 0.37162672D+05 0.37162672D+05 0.37162672D+05 0.11588056D+01  1  2  4  2  7  2        2 -.277290628606D-03 0.100000000000D+01
0.473835444471D-07 0.000000000000D+00 0.000000000000D+00 0.287635486834D-06 0.000000000000D+00  7 -2 21 23 -13 13 23 -2 2 0.84582246D-02 0.29311431D+00 0.51207129D+05 0.51207129D+05 0.51207129D+05 0.11463852D+01  1  2 12  4  7  2        2 0.120201464550D-05 0.100000000000D+01
  </mgrwgt>
  </event>
  <event>
  8     66 0.53686478E-06 0.63298818E+03 0.75467711E-02 0.87712894E-01
       -2 -1    0    0    0  501 0.00000000E+00 0.00000000E+00 0.29263544E+03 0.29263562E+03 0.32000000E+00 0.0000E+00 0.9000E+01
        2 -1    0    0  501    0 0.00000000E+00 0.00000000E+00 -.29946571E+04 0.29946571E+04 0.32000000E+00 0.0000E+00 0.9000E+01
       25  2    1    2    0    0 0.54748533E+03 -.69182271E+03 -.17721257E+04 0.20023483E+04 0.30101518E+03 0.0000E+00 0.0000E+00
       23  2    1    2    0    0 -.54748533E+03 0.69182271E+03 -.92989593E+03 0.12849445E+04 0.89537678E+02 0.0000E+00 0.0000E+00
       23  1    3    3    0    0 0.31905670E+03 -.54404690E+03 -.10949910E+04 0.12669273E+04 0.91188000E+02 0.0000E+00 0.9000E+01
      -11  1    4    4    0    0 -.78989365E+02 0.15718063E+03 -.18474701E+03 0.25510102E+03 0.51099893E-03 0.0000E+00 0.9000E+01
       11  1    4    4    0    0 -.46849596E+03 0.53464208E+03 -.74514893E+03 0.10298435E+04 0.51099893E-03 0.0000E+00 0.9000E+01
       23  1    3    3    0    0 0.22842863E+03 -.14777581E+03 -.67713472E+03 0.73542097E+03 0.91188000E+02 0.0000E+00 0.9000E+01
#aMCatNLO 1  0  0  1  2 0.11724283D+03 0.00000000D+00  -5  7  0 0.00000000D+00 0.00000000D+00 0.00000000D+00 0.00000000D+00 0.00000000D+00
  <mgrwgt>
 0.1042713438D-03    9    2    0
 0.936132002892829D+03 0.000000000000000D+00 0.000000000000000D+00 0.936132002892829D+03
 0.936132002892829D+03 0.000000000000000D+00 0.000000000000000D+00 -.936132002892829D+03
 0.644178103042390D+03 0.319056700446384D+03 -.544046901361590D+03 -.941592699335051D+02
 0.181278549700626D+03 -.789893648280861D+02 0.157180634797046D+03 0.437817412903525D+02
 0.732796430109021D+03 -.468495964054584D+03 0.534642079629598D+03 0.177932533097325D+03
 0.314010922933621D+03 0.228428628436286D+03 -.147775813065054D+03 -.127555004454172D+03
 0.000000000000000D+00 -.000000000000000D+00 0.000000000000000D+00 0.000000000000000D+00
 0.100710952504892D+04 0.000000000000000D+00 0.000000000000000D+00 0.100710952504892D+04
 0.987665971029279D+03 0.000000000000000D+00 0.000000000000000D+00 -.987665971029279D+03
 0.684114598738534D+03 0.332371637524394D+03 -.583404370328272D+03 -.941592699335051D+02
 0.170724803323306D+03 -.754608484924334D+02 0.146750734049845D+03 0.437817412903525D+02
 0.693116065659373D+03 -.454202476531503D+03 0.492392124686562D+03 0.177932533097325D+03
 0.327975871428413D+03 0.234863967394622D+03 -.166797957282399D+03 -.127555004454172D+03
 0.118844156928569D+03 -.375722798950795D+02 0.111059468874264D+03 0.194435540196374D+02
0.639416192691D-04 0.000000000000D+00 0.000000000000D+00 0.217474221873D-06 0.000000000000D+00  7 -2 2 23 -11 11 23 21 0 0.45020852D-01 0.46071650D+00 0.81990680D+06 0.81990680D+06 0.81990680D+06 0.10536531D+01  1  2  2  1  7  1       -2 0.634769284609D-04 0.100000000000D+01
-.354752752127D-05 0.000000000000D+00 -.245552654208D-06 0.217474221873D-06 0.000000000000D+00  7 -2 2 23 -11 11 23 21 2 0.45020852D-01 0.46071650D+00 0.81990680D+06 0.81990680D+06 0.81990680D+06 0.10536531D+01  1  2  3  1  7  1       -2 -.390978893078D-05 0.100000000000D+01
0.379076321805D-05 0.000000000000D+00 0.000000000000D+00 0.217474221873D-06 0.000000000000D+00  7 -2 2 23 -11 11 23 21 2 0.45020852D-01 0.46071650D+00 0.81990680D+06 0.81990680D+06 0.81990680D+06 0.10536531D+01  1  2 15  1  7  1       -2 0.417786302722D-05 0.100000000000D+01
0.836723464787D-04 0.000000000000D+00 0.000000000000D+00 0.217474221873D-06 0.000000000000D+00  7 -2 2 23 -11 11 23 21 2 0.49592873D-01 0.46071650D+00 0.93306467D+06 0.93306467D+06 0.93306467D+06 0.10498727D+01  1  2 12  1  7  1       -2 0.749308048663D-04 0.100000000000D+01
-.723600509382D-04 0.000000000000D+00 0.000000000000D+00 0.217474221873D-06 0.000000000000D+00  7 -2 2 23 -11 11 23 21 2 0.45020852D-01 0.46071650D+00 0.81990680D+06 0.81990680D+06 0.81990680D+06 0.10536531D+01  1  2  4  1  7  1       -2 -.797492125129D-04 0.100000000000D+01
-.246407600311D-03 0.000000000000D+00 -.581091301325D-04 0.217474221873D-06 0.000000000000D+00  7 -2 2 23 -11 11 23 21 2 0.52165899D-01 0.46071650D+00 0.81990680D+06 0.81990680D+06 0.81990680D+06 0.10536531D+01  1  2  5  1  7  1       -2 -.202648150758D-03 0.100000000000D+01
0.252843948138D-03 0.000000000000D+00 0.574843469037D-04 0.217474221873D-06 0.000000000000D+00  7 -2 2 23 -11 11 23 21 2 0.45020852D-01 0.46071650D+00 0.81990680D+06 0.81990680D+06 0.81990680D+06 0.10536531D+01  1  2  6  1  7  1       -2 0.278663509647D-03 0.100000000000D+01
0.132036592162D-05 0.000000000000D+00 0.000000000000D+00 0.217474221873D-06 0.000000000000D+00  7 21 2 23 -11 11 23 2 2 0.49592873D-01 0.46071650D+00 0.93306467D+06 0.93306467D+06 0.93306467D+06 0.10498727D+01  1  2 12  3  7  1       -2 0.119900119955D-04 0.100000000000D+01
-.514835562727D-05 0.000000000000D+00 -.130616944271D-05 0.217474221873D-06 0.000000000000D+00  7 21 2 23 -11 11 23 2 2 0.52165899D-01 0.46071650D+00 0.81990680D+06 0.81990680D+06 0.81990680D+06 0.10536531D+01  1  2  5  3  7  1       -2 -.426606219537D-04 0.100000000000D+01
  </mgrwgt>
  </event>
</LesHouchesEvents>
